LAMMPS data file via write_data, version 29 Aug 2024, timestep = 0, units = metal

2592 atoms
3 atom types

0 99.421338694851 xlo xhi
0 102.046109615392 ylo yhi
0 17.891326167126 zlo zhi

Masses

1 91.224
2 32.06
3 32.06

Atoms # atomic

1385 1 1.8411359017565019 0 1.4458824427439998 0 0 0
1391 1 5.5234077052694985 0 1.4458824427439998 0 0 0
1397 1 9.205679508782502 0 1.4458824427439998 0 0 0
1403 1 12.887951312295499 0 1.4458824427439998 0 0 0
1409 1 16.570223115808496 0 1.4458824427439998 0 0 0
1415 1 20.2524949193215 0 1.4458824427439998 0 0 0
1421 1 23.934766722834503 0 1.4458824427439998 0 0 0
1427 1 27.617038526347493 0 1.4458824427439998 0 0 0
1433 1 31.299310329860496 0 1.4458824427439998 0 0 0
1439 1 34.9815821333735 0 1.4458824427439998 0 0 0
1445 1 38.663853936886504 0 1.4458824427439998 0 0 0
1451 1 42.34612574039949 0 1.4458824427439998 0 0 0
1457 1 46.0283975439125 0 1.4458824427439998 0 0 0
1301 1 49.7106693474255 0 1.4458824427439998 -1 0 0
1307 1 53.3929411509385 0 1.4458824427439998 -1 0 0
1313 1 57.0752129544515 0 1.4458824427439998 -1 0 0
1319 1 60.757484757964505 0 1.4458824427439998 -1 0 0
1325 1 64.43975656147751 0 1.4458824427439998 -1 0 0
1331 1 68.1220283649905 0 1.4458824427439998 -1 0 0
1337 1 71.8043001685035 0 1.4458824427439998 -1 0 0
1343 1 75.4865719720165 0 1.4458824427439998 -1 0 0
1349 1 79.1688437755295 0 1.4458824427439998 -1 0 0
1355 1 82.8511155790425 0 1.4458824427439998 -1 0 0
1361 1 86.5333873825555 0 1.4458824427439998 -1 0 0
1367 1 90.2156591860685 0 1.4458824427439998 -1 0 0
1373 1 93.89793098958151 0 1.4458824427439998 -1 0 0
1379 1 97.5802027930945 0 1.4458824427439998 -1 0 0
1383 3 1.8411359017565019 2.125960616987001 0 0 0 0
1380 1 4.973799150320701e-13 3.188940925480999 1.4458824427439998 0 0 0
1386 1 3.682271803513501 3.188940925480999 1.4458824427439998 0 0 0
1389 3 5.5234077052694985 2.125960616987001 0 0 0 0
1392 1 7.364543607026498 3.188940925480999 1.4458824427439998 0 0 0
1395 3 9.205679508782502 2.125960616987001 0 0 0 0
1398 1 11.046815410539502 3.188940925480999 1.4458824427439998 0 0 0
1401 3 12.887951312295499 2.125960616987001 0 0 0 0
1404 1 14.729087214052505 3.188940925480999 1.4458824427439998 0 0 0
1407 3 16.570223115808496 2.125960616987001 0 0 0 0
1410 1 18.411359017565495 3.188940925480999 1.4458824427439998 0 0 0
1413 3 20.2524949193215 2.125960616987001 0 0 0 0
1416 1 22.0936308210785 3.188940925480999 1.4458824427439998 0 0 0
1419 3 23.934766722834503 2.125960616987001 0 0 0 0
1422 1 25.775902624591502 3.188940925480999 1.4458824427439998 0 0 0
1425 3 27.617038526347493 2.125960616987001 0 0 0 0
1428 1 29.458174428104492 3.188940925480999 1.4458824427439998 0 0 0
1431 3 31.299310329860496 2.125960616987001 0 0 0 0
1437 3 34.9815821333735 2.125960616987001 0 0 0 0
1434 1 33.140446231617496 3.188940925480999 1.4458824427439998 0 0 0
1440 1 36.8227180351305 3.188940925480999 1.4458824427439998 0 0 0
1443 3 38.663853936886504 2.125960616987001 0 0 0 0
1446 1 40.5049898386435 3.188940925480999 1.4458824427439998 0 0 0
1449 3 42.34612574039949 2.125960616987001 0 0 0 0
1452 1 44.18726164215649 3.188940925480999 1.4458824427439998 0 0 0
1455 3 46.0283975439125 2.125960616987001 0 0 0 0
1458 1 47.8695334456695 3.188940925480999 1.4458824427439998 0 0 0
1299 3 49.7106693474255 2.125960616987001 0 -1 0 0
1302 1 51.5518052491825 3.188940925480999 1.4458824427439998 -1 0 0
1305 3 53.3929411509385 2.125960616987001 0 -1 0 0
1308 1 55.234077052695504 3.188940925480999 1.4458824427439998 -1 0 0
1311 3 57.0752129544515 2.125960616987001 0 -1 0 0
1314 1 58.9163488562085 3.188940925480999 1.4458824427439998 -1 0 0
1317 3 60.757484757964505 2.125960616987001 0 -1 0 0
1320 1 62.598620659721504 3.188940925480999 1.4458824427439998 -1 0 0
1323 3 64.43975656147751 2.125960616987001 0 -1 0 0
1329 3 68.1220283649905 2.125960616987001 0 -1 0 0
1326 1 66.2808924632345 3.188940925480999 1.4458824427439998 -1 0 0
1332 1 69.9631642667475 3.188940925480999 1.4458824427439998 -1 0 0
1335 3 71.8043001685035 2.125960616987001 0 -1 0 0
1338 1 73.6454360702605 3.188940925480999 1.4458824427439998 -1 0 0
1341 3 75.4865719720165 2.125960616987001 0 -1 0 0
1344 1 77.3277078737735 3.188940925480999 1.4458824427439998 -1 0 0
1347 3 79.1688437755295 2.125960616987001 0 -1 0 0
1350 1 81.00997967728651 3.188940925480999 1.4458824427439998 -1 0 0
1353 3 82.8511155790425 2.125960616987001 0 -1 0 0
1356 1 84.6922514807995 3.188940925480999 1.4458824427439998 -1 0 0
1359 3 86.5333873825555 2.125960616987001 0 -1 0 0
1362 1 88.3745232843125 3.188940925480999 1.4458824427439998 -1 0 0
1365 3 90.2156591860685 2.125960616987001 0 -1 0 0
1368 1 92.05679508782549 3.188940925480999 1.4458824427439998 -1 0 0
1371 3 93.89793098958151 2.125960616987001 0 -1 0 0
1374 1 95.7390668913385 3.188940925480999 1.4458824427439998 -1 0 0
1377 3 97.5802027930945 2.125960616987001 0 -1 0 0
1378 3 4.973799150320701e-13 5.314901542468 0 0 0 0
1384 3 3.682271803513501 5.314901542468 0 0 0 0
1390 3 7.364543607026498 5.314901542468 0 0 0 0
1396 3 11.046815410539502 5.314901542468 0 0 0 0
1402 3 14.729087214052505 5.314901542468 0 0 0 0
1408 3 18.411359017565495 5.314901542468 0 0 0 0
1414 3 22.0936308210785 5.314901542468 0 0 0 0
1420 3 25.775902624591502 5.314901542468 0 0 0 0
1426 3 29.458174428104492 5.314901542468 0 0 0 0
1432 3 33.140446231617496 5.314901542468 0 0 0 0
1438 3 36.8227180351305 5.314901542468 0 0 0 0
1444 3 40.5049898386435 5.314901542468 0 0 0 0
1450 3 44.18726164215649 5.314901542468 0 0 0 0
1456 3 47.8695334456695 5.314901542468 0 0 0 0
1300 3 51.5518052491825 5.314901542468 0 -1 0 0
1306 3 55.234077052695504 5.314901542468 0 -1 0 0
1312 3 58.9163488562085 5.314901542468 0 -1 0 0
1318 3 62.598620659721504 5.314901542468 0 -1 0 0
1324 3 66.2808924632345 5.314901542468 0 -1 0 0
1330 3 69.9631642667475 5.314901542468 0 -1 0 0
1336 3 73.6454360702605 5.314901542468 0 -1 0 0
1342 3 77.3277078737735 5.314901542468 0 -1 0 0
1348 3 81.00997967728651 5.314901542468 0 -1 0 0
1354 3 84.6922514807995 5.314901542468 0 -1 0 0
1360 3 88.3745232843125 5.314901542468 0 -1 0 0
1366 3 92.05679508782549 5.314901542468 0 -1 0 0
1372 3 95.7390668913385 5.314901542468 0 -1 0 0
1547 1 1.8411359017565019 6.377881850961998 1.4458824427439998 0 0 0
1553 1 5.5234077052694985 6.377881850961998 1.4458824427439998 0 0 0
1559 1 9.205679508782502 6.377881850961998 1.4458824427439998 0 0 0
1565 1 12.887951312295499 6.377881850961998 1.4458824427439998 0 0 0
1571 1 16.570223115808496 6.377881850961998 1.4458824427439998 0 0 0
1577 1 20.2524949193215 6.377881850961998 1.4458824427439998 0 0 0
1583 1 23.934766722834503 6.377881850961998 1.4458824427439998 0 0 0
1589 1 27.617038526347493 6.377881850961998 1.4458824427439998 0 0 0
1595 1 31.299310329860496 6.377881850961998 1.4458824427439998 0 0 0
1601 1 34.9815821333735 6.377881850961998 1.4458824427439998 0 0 0
1607 1 38.663853936886504 6.377881850961998 1.4458824427439998 0 0 0
1613 1 42.34612574039949 6.377881850961998 1.4458824427439998 0 0 0
1619 1 46.0283975439125 6.377881850961998 1.4458824427439998 0 0 0
1463 1 49.7106693474255 6.377881850961998 1.4458824427439998 -1 0 0
1469 1 53.3929411509385 6.377881850961998 1.4458824427439998 -1 0 0
1475 1 57.0752129544515 6.377881850961998 1.4458824427439998 -1 0 0
1481 1 60.757484757964505 6.377881850961998 1.4458824427439998 -1 0 0
1487 1 64.43975656147751 6.377881850961998 1.4458824427439998 -1 0 0
1493 1 68.1220283649905 6.377881850961998 1.4458824427439998 -1 0 0
1499 1 71.8043001685035 6.377881850961998 1.4458824427439998 -1 0 0
1505 1 75.4865719720165 6.377881850961998 1.4458824427439998 -1 0 0
1511 1 79.1688437755295 6.377881850961998 1.4458824427439998 -1 0 0
1517 1 82.8511155790425 6.377881850961998 1.4458824427439998 -1 0 0
1523 1 86.5333873825555 6.377881850961998 1.4458824427439998 -1 0 0
1529 1 90.2156591860685 6.377881850961998 1.4458824427439998 -1 0 0
1535 1 93.89793098958151 6.377881850961998 1.4458824427439998 -1 0 0
1541 1 97.5802027930945 6.377881850961998 1.4458824427439998 -1 0 0
1545 3 1.8411359017565019 8.503842467949 0 0 0 0
1542 1 4.973799150320701e-13 9.566822776443004 1.4458824427439998 0 0 0
1548 1 3.682271803513501 9.566822776443004 1.4458824427439998 0 0 0
1551 3 5.5234077052694985 8.503842467949 0 0 0 0
1554 1 7.364543607026498 9.566822776443004 1.4458824427439998 0 0 0
1557 3 9.205679508782502 8.503842467949 0 0 0 0
1560 1 11.046815410539502 9.566822776443004 1.4458824427439998 0 0 0
1563 3 12.887951312295499 8.503842467949 0 0 0 0
1566 1 14.729087214052505 9.566822776443004 1.4458824427439998 0 0 0
1569 3 16.570223115808496 8.503842467949 0 0 0 0
1572 1 18.411359017565495 9.566822776443004 1.4458824427439998 0 0 0
1575 3 20.2524949193215 8.503842467949 0 0 0 0
1578 1 22.0936308210785 9.566822776443004 1.4458824427439998 0 0 0
1581 3 23.934766722834503 8.503842467949 0 0 0 0
1584 1 25.775902624591502 9.566822776443004 1.4458824427439998 0 0 0
1587 3 27.617038526347493 8.503842467949 0 0 0 0
1590 1 29.458174428104492 9.566822776443004 1.4458824427439998 0 0 0
1593 3 31.299310329860496 8.503842467949 0 0 0 0
1599 3 34.9815821333735 8.503842467949 0 0 0 0
1596 1 33.140446231617496 9.566822776443004 1.4458824427439998 0 0 0
1602 1 36.8227180351305 9.566822776443004 1.4458824427439998 0 0 0
1605 3 38.663853936886504 8.503842467949 0 0 0 0
1608 1 40.5049898386435 9.566822776443004 1.4458824427439998 0 0 0
1611 3 42.34612574039949 8.503842467949 0 0 0 0
1614 1 44.18726164215649 9.566822776443004 1.4458824427439998 0 0 0
1617 3 46.0283975439125 8.503842467949 0 0 0 0
1620 1 47.8695334456695 9.566822776443004 1.4458824427439998 0 0 0
1461 3 49.7106693474255 8.503842467949 0 -1 0 0
1464 1 51.5518052491825 9.566822776443004 1.4458824427439998 -1 0 0
1467 3 53.3929411509385 8.503842467949 0 -1 0 0
1470 1 55.234077052695504 9.566822776443004 1.4458824427439998 -1 0 0
1473 3 57.0752129544515 8.503842467949 0 -1 0 0
1476 1 58.9163488562085 9.566822776443004 1.4458824427439998 -1 0 0
1479 3 60.757484757964505 8.503842467949 0 -1 0 0
1482 1 62.598620659721504 9.566822776443004 1.4458824427439998 -1 0 0
1485 3 64.43975656147751 8.503842467949 0 -1 0 0
1491 3 68.1220283649905 8.503842467949 0 -1 0 0
1488 1 66.2808924632345 9.566822776443004 1.4458824427439998 -1 0 0
1494 1 69.9631642667475 9.566822776443004 1.4458824427439998 -1 0 0
1497 3 71.8043001685035 8.503842467949 0 -1 0 0
1500 1 73.6454360702605 9.566822776443004 1.4458824427439998 -1 0 0
1503 3 75.4865719720165 8.503842467949 0 -1 0 0
1506 1 77.3277078737735 9.566822776443004 1.4458824427439998 -1 0 0
1509 3 79.1688437755295 8.503842467949 0 -1 0 0
1512 1 81.00997967728651 9.566822776443004 1.4458824427439998 -1 0 0
1515 3 82.8511155790425 8.503842467949 0 -1 0 0
1518 1 84.6922514807995 9.566822776443004 1.4458824427439998 -1 0 0
1521 3 86.5333873825555 8.503842467949 0 -1 0 0
1524 1 88.3745232843125 9.566822776443004 1.4458824427439998 -1 0 0
1527 3 90.2156591860685 8.503842467949 0 -1 0 0
1530 1 92.05679508782549 9.566822776443004 1.4458824427439998 -1 0 0
1533 3 93.89793098958151 8.503842467949 0 -1 0 0
1536 1 95.7390668913385 9.566822776443004 1.4458824427439998 -1 0 0
1539 3 97.5802027930945 8.503842467949 0 -1 0 0
1540 3 4.973799150320701e-13 11.692783393429998 0 0 0 0
1709 1 1.8411359017565019 12.755763701924003 1.4458824427439998 0 0 0
1546 3 3.682271803513501 11.692783393429998 0 0 0 0
1715 1 5.5234077052694985 12.755763701924003 1.4458824427439998 0 0 0
1552 3 7.364543607026498 11.692783393429998 0 0 0 0
1721 1 9.205679508782502 12.755763701924003 1.4458824427439998 0 0 0
1558 3 11.046815410539502 11.692783393429998 0 0 0 0
1727 1 12.887951312295499 12.755763701924003 1.4458824427439998 0 0 0
1564 3 14.729087214052505 11.692783393429998 0 0 0 0
1733 1 16.570223115808496 12.755763701924003 1.4458824427439998 0 0 0
1570 3 18.411359017565495 11.692783393429998 0 0 0 0
1739 1 20.2524949193215 12.755763701924003 1.4458824427439998 0 0 0
1576 3 22.0936308210785 11.692783393429998 0 0 0 0
1745 1 23.934766722834503 12.755763701924003 1.4458824427439998 0 0 0
1582 3 25.775902624591502 11.692783393429998 0 0 0 0
1751 1 27.617038526347493 12.755763701924003 1.4458824427439998 0 0 0
1588 3 29.458174428104492 11.692783393429998 0 0 0 0
1757 1 31.299310329860496 12.755763701924003 1.4458824427439998 0 0 0
1594 3 33.140446231617496 11.692783393429998 0 0 0 0
1763 1 34.9815821333735 12.755763701924003 1.4458824427439998 0 0 0
1600 3 36.8227180351305 11.692783393429998 0 0 0 0
1769 1 38.663853936886504 12.755763701924003 1.4458824427439998 0 0 0
1606 3 40.5049898386435 11.692783393429998 0 0 0 0
1775 1 42.34612574039949 12.755763701924003 1.4458824427439998 0 0 0
1612 3 44.18726164215649 11.692783393429998 0 0 0 0
1781 1 46.0283975439125 12.755763701924003 1.4458824427439998 0 0 0
1618 3 47.8695334456695 11.692783393429998 0 0 0 0
1625 1 49.7106693474255 12.755763701924003 1.4458824427439998 -1 0 0
1462 3 51.5518052491825 11.692783393429998 0 -1 0 0
1631 1 53.3929411509385 12.755763701924003 1.4458824427439998 -1 0 0
1468 3 55.234077052695504 11.692783393429998 0 -1 0 0
1637 1 57.0752129544515 12.755763701924003 1.4458824427439998 -1 0 0
1474 3 58.9163488562085 11.692783393429998 0 -1 0 0
1643 1 60.757484757964505 12.755763701924003 1.4458824427439998 -1 0 0
1480 3 62.598620659721504 11.692783393429998 0 -1 0 0
1649 1 64.43975656147751 12.755763701924003 1.4458824427439998 -1 0 0
1486 3 66.2808924632345 11.692783393429998 0 -1 0 0
1655 1 68.1220283649905 12.755763701924003 1.4458824427439998 -1 0 0
1492 3 69.9631642667475 11.692783393429998 0 -1 0 0
1661 1 71.8043001685035 12.755763701924003 1.4458824427439998 -1 0 0
1498 3 73.6454360702605 11.692783393429998 0 -1 0 0
1667 1 75.4865719720165 12.755763701924003 1.4458824427439998 -1 0 0
1504 3 77.3277078737735 11.692783393429998 0 -1 0 0
1673 1 79.1688437755295 12.755763701924003 1.4458824427439998 -1 0 0
1510 3 81.00997967728651 11.692783393429998 0 -1 0 0
1679 1 82.8511155790425 12.755763701924003 1.4458824427439998 -1 0 0
1516 3 84.6922514807995 11.692783393429998 0 -1 0 0
1685 1 86.5333873825555 12.755763701924003 1.4458824427439998 -1 0 0
1522 3 88.3745232843125 11.692783393429998 0 -1 0 0
1691 1 90.2156591860685 12.755763701924003 1.4458824427439998 -1 0 0
1528 3 92.05679508782549 11.692783393429998 0 -1 0 0
1697 1 93.89793098958151 12.755763701924003 1.4458824427439998 -1 0 0
1534 3 95.7390668913385 11.692783393429998 0 -1 0 0
1703 1 97.5802027930945 12.755763701924003 1.4458824427439998 -1 0 0
1707 3 1.8411359017565019 14.881724318910997 0 0 0 0
1713 3 5.5234077052694985 14.881724318910997 0 0 0 0
1719 3 9.205679508782502 14.881724318910997 0 0 0 0
1725 3 12.887951312295499 14.881724318910997 0 0 0 0
1731 3 16.570223115808496 14.881724318910997 0 0 0 0
1737 3 20.2524949193215 14.881724318910997 0 0 0 0
1743 3 23.934766722834503 14.881724318910997 0 0 0 0
1749 3 27.617038526347493 14.881724318910997 0 0 0 0
1755 3 31.299310329860496 14.881724318910997 0 0 0 0
1761 3 34.9815821333735 14.881724318910997 0 0 0 0
1767 3 38.663853936886504 14.881724318910997 0 0 0 0
1773 3 42.34612574039949 14.881724318910997 0 0 0 0
1779 3 46.0283975439125 14.881724318910997 0 0 0 0
1623 3 49.7106693474255 14.881724318910997 0 -1 0 0
1629 3 53.3929411509385 14.881724318910997 0 -1 0 0
1635 3 57.0752129544515 14.881724318910997 0 -1 0 0
1641 3 60.757484757964505 14.881724318910997 0 -1 0 0
1647 3 64.43975656147751 14.881724318910997 0 -1 0 0
1653 3 68.1220283649905 14.881724318910997 0 -1 0 0
1659 3 71.8043001685035 14.881724318910997 0 -1 0 0
1665 3 75.4865719720165 14.881724318910997 0 -1 0 0
1671 3 79.1688437755295 14.881724318910997 0 -1 0 0
1677 3 82.8511155790425 14.881724318910997 0 -1 0 0
1683 3 86.5333873825555 14.881724318910997 0 -1 0 0
1689 3 90.2156591860685 14.881724318910997 0 -1 0 0
1695 3 93.89793098958151 14.881724318910997 0 -1 0 0
1701 3 97.5802027930945 14.881724318910997 0 -1 0 0
1704 1 4.973799150320701e-13 15.944704627405002 1.4458824427439998 0 0 0
1710 1 3.682271803513501 15.944704627405002 1.4458824427439998 0 0 0
1716 1 7.364543607026498 15.944704627405002 1.4458824427439998 0 0 0
1722 1 11.046815410539502 15.944704627405002 1.4458824427439998 0 0 0
1728 1 14.729087214052505 15.944704627405002 1.4458824427439998 0 0 0
1734 1 18.411359017565495 15.944704627405002 1.4458824427439998 0 0 0
1740 1 22.0936308210785 15.944704627405002 1.4458824427439998 0 0 0
1746 1 25.775902624591502 15.944704627405002 1.4458824427439998 0 0 0
1752 1 29.458174428104492 15.944704627405002 1.4458824427439998 0 0 0
1758 1 33.140446231617496 15.944704627405002 1.4458824427439998 0 0 0
1764 1 36.8227180351305 15.944704627405002 1.4458824427439998 0 0 0
1770 1 40.5049898386435 15.944704627405002 1.4458824427439998 0 0 0
1776 1 44.18726164215649 15.944704627405002 1.4458824427439998 0 0 0
1782 1 47.8695334456695 15.944704627405002 1.4458824427439998 0 0 0
1626 1 51.5518052491825 15.944704627405002 1.4458824427439998 -1 0 0
1632 1 55.234077052695504 15.944704627405002 1.4458824427439998 -1 0 0
1638 1 58.9163488562085 15.944704627405002 1.4458824427439998 -1 0 0
1644 1 62.598620659721504 15.944704627405002 1.4458824427439998 -1 0 0
1650 1 66.2808924632345 15.944704627405002 1.4458824427439998 -1 0 0
1656 1 69.9631642667475 15.944704627405002 1.4458824427439998 -1 0 0
1662 1 73.6454360702605 15.944704627405002 1.4458824427439998 -1 0 0
1668 1 77.3277078737735 15.944704627405002 1.4458824427439998 -1 0 0
1674 1 81.00997967728651 15.944704627405002 1.4458824427439998 -1 0 0
1680 1 84.6922514807995 15.944704627405002 1.4458824427439998 -1 0 0
1686 1 88.3745232843125 15.944704627405002 1.4458824427439998 -1 0 0
1692 1 92.05679508782549 15.944704627405002 1.4458824427439998 -1 0 0
1698 1 95.7390668913385 15.944704627405002 1.4458824427439998 -1 0 0
1702 3 4.973799150320701e-13 18.070665244392004 0 0 0 0
1871 1 1.8411359017565019 19.133645552885994 1.4458824427439998 0 0 0
1708 3 3.682271803513501 18.070665244392004 0 0 0 0
1877 1 5.5234077052694985 19.133645552885994 1.4458824427439998 0 0 0
1714 3 7.364543607026498 18.070665244392004 0 0 0 0
1883 1 9.205679508782502 19.133645552885994 1.4458824427439998 0 0 0
1720 3 11.046815410539502 18.070665244392004 0 0 0 0
1889 1 12.887951312295499 19.133645552885994 1.4458824427439998 0 0 0
1726 3 14.729087214052505 18.070665244392004 0 0 0 0
1895 1 16.570223115808496 19.133645552885994 1.4458824427439998 0 0 0
1732 3 18.411359017565495 18.070665244392004 0 0 0 0
1901 1 20.2524949193215 19.133645552885994 1.4458824427439998 0 0 0
1738 3 22.0936308210785 18.070665244392004 0 0 0 0
1907 1 23.934766722834503 19.133645552885994 1.4458824427439998 0 0 0
1744 3 25.775902624591502 18.070665244392004 0 0 0 0
1913 1 27.617038526347493 19.133645552885994 1.4458824427439998 0 0 0
1750 3 29.458174428104492 18.070665244392004 0 0 0 0
1919 1 31.299310329860496 19.133645552885994 1.4458824427439998 0 0 0
1756 3 33.140446231617496 18.070665244392004 0 0 0 0
1925 1 34.9815821333735 19.133645552885994 1.4458824427439998 0 0 0
1762 3 36.8227180351305 18.070665244392004 0 0 0 0
1931 1 38.663853936886504 19.133645552885994 1.4458824427439998 0 0 0
1768 3 40.5049898386435 18.070665244392004 0 0 0 0
1937 1 42.34612574039949 19.133645552885994 1.4458824427439998 0 0 0
1774 3 44.18726164215649 18.070665244392004 0 0 0 0
1943 1 46.0283975439125 19.133645552885994 1.4458824427439998 0 0 0
1780 3 47.8695334456695 18.070665244392004 0 0 0 0
1787 1 49.7106693474255 19.133645552885994 1.4458824427439998 -1 0 0
1624 3 51.5518052491825 18.070665244392004 0 -1 0 0
1793 1 53.3929411509385 19.133645552885994 1.4458824427439998 -1 0 0
1630 3 55.234077052695504 18.070665244392004 0 -1 0 0
1799 1 57.0752129544515 19.133645552885994 1.4458824427439998 -1 0 0
1636 3 58.9163488562085 18.070665244392004 0 -1 0 0
1805 1 60.757484757964505 19.133645552885994 1.4458824427439998 -1 0 0
1642 3 62.598620659721504 18.070665244392004 0 -1 0 0
1811 1 64.43975656147751 19.133645552885994 1.4458824427439998 -1 0 0
1648 3 66.2808924632345 18.070665244392004 0 -1 0 0
1817 1 68.1220283649905 19.133645552885994 1.4458824427439998 -1 0 0
1654 3 69.9631642667475 18.070665244392004 0 -1 0 0
1823 1 71.8043001685035 19.133645552885994 1.4458824427439998 -1 0 0
1660 3 73.6454360702605 18.070665244392004 0 -1 0 0
1829 1 75.4865719720165 19.133645552885994 1.4458824427439998 -1 0 0
1666 3 77.3277078737735 18.070665244392004 0 -1 0 0
1835 1 79.1688437755295 19.133645552885994 1.4458824427439998 -1 0 0
1672 3 81.00997967728651 18.070665244392004 0 -1 0 0
1841 1 82.8511155790425 19.133645552885994 1.4458824427439998 -1 0 0
1678 3 84.6922514807995 18.070665244392004 0 -1 0 0
1847 1 86.5333873825555 19.133645552885994 1.4458824427439998 -1 0 0
1684 3 88.3745232843125 18.070665244392004 0 -1 0 0
1853 1 90.2156591860685 19.133645552885994 1.4458824427439998 -1 0 0
1690 3 92.05679508782549 18.070665244392004 0 -1 0 0
1859 1 93.89793098958151 19.133645552885994 1.4458824427439998 -1 0 0
1696 3 95.7390668913385 18.070665244392004 0 -1 0 0
1865 1 97.5802027930945 19.133645552885994 1.4458824427439998 -1 0 0
1869 3 1.8411359017565019 21.259606169872995 0 0 0 0
1866 1 4.973799150320701e-13 22.322586478367 1.4458824427439998 0 0 0
1872 1 3.682271803513501 22.322586478367 1.4458824427439998 0 0 0
1875 3 5.5234077052694985 21.259606169872995 0 0 0 0
1878 1 7.364543607026498 22.322586478367 1.4458824427439998 0 0 0
1881 3 9.205679508782502 21.259606169872995 0 0 0 0
1884 1 11.046815410539502 22.322586478367 1.4458824427439998 0 0 0
1887 3 12.887951312295499 21.259606169872995 0 0 0 0
1890 1 14.729087214052505 22.322586478367 1.4458824427439998 0 0 0
1893 3 16.570223115808496 21.259606169872995 0 0 0 0
1896 1 18.411359017565495 22.322586478367 1.4458824427439998 0 0 0
1899 3 20.2524949193215 21.259606169872995 0 0 0 0
1902 1 22.0936308210785 22.322586478367 1.4458824427439998 0 0 0
1905 3 23.934766722834503 21.259606169872995 0 0 0 0
1908 1 25.775902624591502 22.322586478367 1.4458824427439998 0 0 0
1911 3 27.617038526347493 21.259606169872995 0 0 0 0
1914 1 29.458174428104492 22.322586478367 1.4458824427439998 0 0 0
1917 3 31.299310329860496 21.259606169872995 0 0 0 0
1923 3 34.9815821333735 21.259606169872995 0 0 0 0
1920 1 33.140446231617496 22.322586478367 1.4458824427439998 0 0 0
1926 1 36.8227180351305 22.322586478367 1.4458824427439998 0 0 0
1929 3 38.663853936886504 21.259606169872995 0 0 0 0
1932 1 40.5049898386435 22.322586478367 1.4458824427439998 0 0 0
1935 3 42.34612574039949 21.259606169872995 0 0 0 0
1938 1 44.18726164215649 22.322586478367 1.4458824427439998 0 0 0
1941 3 46.0283975439125 21.259606169872995 0 0 0 0
1944 1 47.8695334456695 22.322586478367 1.4458824427439998 0 0 0
1785 3 49.7106693474255 21.259606169872995 0 -1 0 0
1788 1 51.5518052491825 22.322586478367 1.4458824427439998 -1 0 0
1791 3 53.3929411509385 21.259606169872995 0 -1 0 0
1794 1 55.234077052695504 22.322586478367 1.4458824427439998 -1 0 0
1797 3 57.0752129544515 21.259606169872995 0 -1 0 0
1800 1 58.9163488562085 22.322586478367 1.4458824427439998 -1 0 0
1803 3 60.757484757964505 21.259606169872995 0 -1 0 0
1806 1 62.598620659721504 22.322586478367 1.4458824427439998 -1 0 0
1809 3 64.43975656147751 21.259606169872995 0 -1 0 0
1815 3 68.1220283649905 21.259606169872995 0 -1 0 0
1812 1 66.2808924632345 22.322586478367 1.4458824427439998 -1 0 0
1818 1 69.9631642667475 22.322586478367 1.4458824427439998 -1 0 0
1821 3 71.8043001685035 21.259606169872995 0 -1 0 0
1824 1 73.6454360702605 22.322586478367 1.4458824427439998 -1 0 0
1827 3 75.4865719720165 21.259606169872995 0 -1 0 0
1830 1 77.3277078737735 22.322586478367 1.4458824427439998 -1 0 0
1833 3 79.1688437755295 21.259606169872995 0 -1 0 0
1836 1 81.00997967728651 22.322586478367 1.4458824427439998 -1 0 0
1839 3 82.8511155790425 21.259606169872995 0 -1 0 0
1842 1 84.6922514807995 22.322586478367 1.4458824427439998 -1 0 0
1845 3 86.5333873825555 21.259606169872995 0 -1 0 0
1848 1 88.3745232843125 22.322586478367 1.4458824427439998 -1 0 0
1851 3 90.2156591860685 21.259606169872995 0 -1 0 0
1854 1 92.05679508782549 22.322586478367 1.4458824427439998 -1 0 0
1857 3 93.89793098958151 21.259606169872995 0 -1 0 0
1860 1 95.7390668913385 22.322586478367 1.4458824427439998 -1 0 0
1863 3 97.5802027930945 21.259606169872995 0 -1 0 0
1864 3 4.973799150320701e-13 24.448547095354 0 0 0 0
1870 3 3.682271803513501 24.448547095354 0 0 0 0
1876 3 7.364543607026498 24.448547095354 0 0 0 0
1882 3 11.046815410539502 24.448547095354 0 0 0 0
1888 3 14.729087214052505 24.448547095354 0 0 0 0
1894 3 18.411359017565495 24.448547095354 0 0 0 0
1900 3 22.0936308210785 24.448547095354 0 0 0 0
1906 3 25.775902624591502 24.448547095354 0 0 0 0
1912 3 29.458174428104492 24.448547095354 0 0 0 0
1918 3 33.140446231617496 24.448547095354 0 0 0 0
1924 3 36.8227180351305 24.448547095354 0 0 0 0
1930 3 40.5049898386435 24.448547095354 0 0 0 0
1936 3 44.18726164215649 24.448547095354 0 0 0 0
1942 3 47.8695334456695 24.448547095354 0 0 0 0
1786 3 51.5518052491825 24.448547095354 0 -1 0 0
1792 3 55.234077052695504 24.448547095354 0 -1 0 0
1798 3 58.9163488562085 24.448547095354 0 -1 0 0
1804 3 62.598620659721504 24.448547095354 0 -1 0 0
1810 3 66.2808924632345 24.448547095354 0 -1 0 0
1816 3 69.9631642667475 24.448547095354 0 -1 0 0
1822 3 73.6454360702605 24.448547095354 0 -1 0 0
1828 3 77.3277078737735 24.448547095354 0 -1 0 0
1834 3 81.00997967728651 24.448547095354 0 -1 0 0
1840 3 84.6922514807995 24.448547095354 0 -1 0 0
1846 3 88.3745232843125 24.448547095354 0 -1 0 0
1852 3 92.05679508782549 24.448547095354 0 -1 0 0
1858 3 95.7390668913385 24.448547095354 0 -1 0 0
2033 1 1.8411359017565019 25.511527403848007 1.4458824427439998 0 0 0
2039 1 5.5234077052694985 25.511527403848007 1.4458824427439998 0 0 0
2045 1 9.205679508782502 25.511527403848007 1.4458824427439998 0 0 0
2051 1 12.887951312295499 25.511527403848007 1.4458824427439998 0 0 0
2057 1 16.570223115808496 25.511527403848007 1.4458824427439998 0 0 0
2063 1 20.2524949193215 25.511527403848007 1.4458824427439998 0 0 0
2069 1 23.934766722834503 25.511527403848007 1.4458824427439998 0 0 0
2075 1 27.617038526347493 25.511527403848007 1.4458824427439998 0 0 0
2081 1 31.299310329860496 25.511527403848007 1.4458824427439998 0 0 0
2087 1 34.9815821333735 25.511527403848007 1.4458824427439998 0 0 0
2093 1 38.663853936886504 25.511527403848007 1.4458824427439998 0 0 0
2099 1 42.34612574039949 25.511527403848007 1.4458824427439998 0 0 0
2105 1 46.0283975439125 25.511527403848007 1.4458824427439998 0 0 0
1949 1 49.7106693474255 25.511527403848007 1.4458824427439998 -1 0 0
1955 1 53.3929411509385 25.511527403848007 1.4458824427439998 -1 0 0
1961 1 57.0752129544515 25.511527403848007 1.4458824427439998 -1 0 0
1967 1 60.757484757964505 25.511527403848007 1.4458824427439998 -1 0 0
1973 1 64.43975656147751 25.511527403848007 1.4458824427439998 -1 0 0
1979 1 68.1220283649905 25.511527403848007 1.4458824427439998 -1 0 0
1985 1 71.8043001685035 25.511527403848007 1.4458824427439998 -1 0 0
1991 1 75.4865719720165 25.511527403848007 1.4458824427439998 -1 0 0
1997 1 79.1688437755295 25.511527403848007 1.4458824427439998 -1 0 0
2003 1 82.8511155790425 25.511527403848007 1.4458824427439998 -1 0 0
2009 1 86.5333873825555 25.511527403848007 1.4458824427439998 -1 0 0
2015 1 90.2156591860685 25.511527403848007 1.4458824427439998 -1 0 0
2021 1 93.89793098958151 25.511527403848007 1.4458824427439998 -1 0 0
2027 1 97.5802027930945 25.511527403848007 1.4458824427439998 -1 0 0
2031 3 1.8411359017565019 27.637488020835008 0 0 0 0
2028 1 4.973799150320701e-13 28.700468329329 1.4458824427439998 0 0 0
2034 1 3.682271803513501 28.700468329329 1.4458824427439998 0 0 0
2037 3 5.5234077052694985 27.637488020835008 0 0 0 0
2040 1 7.364543607026498 28.700468329329 1.4458824427439998 0 0 0
2043 3 9.205679508782502 27.637488020835008 0 0 0 0
2046 1 11.046815410539502 28.700468329329 1.4458824427439998 0 0 0
2049 3 12.887951312295499 27.637488020835008 0 0 0 0
2052 1 14.729087214052505 28.700468329329 1.4458824427439998 0 0 0
2055 3 16.570223115808496 27.637488020835008 0 0 0 0
2058 1 18.411359017565495 28.700468329329 1.4458824427439998 0 0 0
2061 3 20.2524949193215 27.637488020835008 0 0 0 0
2064 1 22.0936308210785 28.700468329329 1.4458824427439998 0 0 0
2067 3 23.934766722834503 27.637488020835008 0 0 0 0
2070 1 25.775902624591502 28.700468329329 1.4458824427439998 0 0 0
2073 3 27.617038526347493 27.637488020835008 0 0 0 0
2076 1 29.458174428104492 28.700468329329 1.4458824427439998 0 0 0
2079 3 31.299310329860496 27.637488020835008 0 0 0 0
2085 3 34.9815821333735 27.637488020835008 0 0 0 0
2082 1 33.140446231617496 28.700468329329 1.4458824427439998 0 0 0
2088 1 36.8227180351305 28.700468329329 1.4458824427439998 0 0 0
2091 3 38.663853936886504 27.637488020835008 0 0 0 0
2094 1 40.5049898386435 28.700468329329 1.4458824427439998 0 0 0
2097 3 42.34612574039949 27.637488020835008 0 0 0 0
2100 1 44.18726164215649 28.700468329329 1.4458824427439998 0 0 0
2103 3 46.0283975439125 27.637488020835008 0 0 0 0
2106 1 47.8695334456695 28.700468329329 1.4458824427439998 0 0 0
1947 3 49.7106693474255 27.637488020835008 0 -1 0 0
1950 1 51.5518052491825 28.700468329329 1.4458824427439998 -1 0 0
1953 3 53.3929411509385 27.637488020835008 0 -1 0 0
1956 1 55.234077052695504 28.700468329329 1.4458824427439998 -1 0 0
1959 3 57.0752129544515 27.637488020835008 0 -1 0 0
1962 1 58.9163488562085 28.700468329329 1.4458824427439998 -1 0 0
1965 3 60.757484757964505 27.637488020835008 0 -1 0 0
1968 1 62.598620659721504 28.700468329329 1.4458824427439998 -1 0 0
1971 3 64.43975656147751 27.637488020835008 0 -1 0 0
1977 3 68.1220283649905 27.637488020835008 0 -1 0 0
1974 1 66.2808924632345 28.700468329329 1.4458824427439998 -1 0 0
1980 1 69.9631642667475 28.700468329329 1.4458824427439998 -1 0 0
1983 3 71.8043001685035 27.637488020835008 0 -1 0 0
1986 1 73.6454360702605 28.700468329329 1.4458824427439998 -1 0 0
1989 3 75.4865719720165 27.637488020835008 0 -1 0 0