LAMMPS data file via write_data, version 29 Aug 2024, timestep = 2, units = metal

6480 atoms
3 atom types

0 98.54715384198 xlo xhi
0 102.413206437372 ylo yhi
-50 50 zlo zhi

Masses

1 30.973761998
2 30.973761998
3 30.973761998

Atoms # atomic

1141 1 0 1.8963905622124264 1.2409807438931482 0 0 0
1144 1 1.642452564032999 2.844730024911012 0.015204185349517077 0 0 0
1145 1 3.2849051280659958 1.896390562212423 1.2409807438931526 0 0 0
1148 1 4.927357692098998 2.8447300249110126 0.015204185349515644 0 0 0
1142 1 1.6424525640329986 4.741201852139424 1.2409807438931508 0 0 0
1146 1 4.927357692098998 4.741201852139424 1.2409807438931515 0 0 0
1263 1 0 5.689541314838007 0.015204185349518201 0 0 0
1267 1 3.2849051280659967 5.689541314838012 0.015204185349513998 0 0 0
1149 1 6.569810256131995 1.8963905622124246 1.2409807438931508 0 0 0
1152 1 8.212262820164995 2.844730024911012 0.015204185349517101 0 0 0
1153 1 9.854715384197995 1.8963905622124242 1.2409807438931517 0 0 0
1156 1 11.497167948230997 2.8447300249110117 0.015204185349517368 0 0 0
1150 1 8.212262820164995 4.741201852139424 1.2409807438931504 0 0 0
1154 1 11.497167948230997 4.741201852139424 1.2409807438931506 0 0 0
1271 1 6.569810256131994 5.689541314838009 0.01520418534951586 0 0 0
1275 1 9.854715384197995 5.689541314838009 0.015204185349514657 0 0 0
1157 1 13.139620512263999 1.8963905622124255 1.240980743893149 0 0 0
1160 1 14.782073076296996 2.844730024911012 0.015204185349516917 0 0 0
1161 1 16.42452564033 1.8963905622124235 1.2409807438931526 0 0 0
1158 1 14.782073076296998 4.741201852139425 1.2409807438931502 0 0 0
1279 1 13.139620512263999 5.689541314838008 0.015204185349516763 0 0 0
1283 1 16.42452564033 5.68954131483801 0.015204185349514072 0 0 0
1164 1 18.066978204363 2.8447300249110112 0.01520418534951666 0 0 0
1165 1 19.709430768396 1.8963905622124242 1.2409807438931517 0 0 0
1168 1 21.351883332428997 2.8447300249110126 0.015204185349516543 0 0 0
1169 1 22.994335896461997 1.8963905622124224 1.2409807438931533 0 0 0
1162 1 18.066978204363 4.741201852139425 1.2409807438931506 0 0 0
1166 1 21.351883332428997 4.741201852139424 1.2409807438931506 0 0 0
1287 1 19.709430768396 5.689541314838009 0.015204185349515056 0 0 0
1291 1 22.994335896461997 5.689541314838011 0.015204185349513025 0 0 0
1172 1 24.636788460494998 2.8447300249110126 0.01520418534951654 0 0 0
1173 1 26.279241024527995 1.8963905622124242 1.2409807438931517 0 0 0
1176 1 27.921693588560995 2.8447300249110112 0.015204185349516581 0 0 0
1170 1 24.636788460494998 4.741201852139424 1.2409807438931506 0 0 0
1174 1 27.921693588560995 4.741201852139425 1.2409807438931508 0 0 0
1295 1 26.279241024527995 5.689541314838009 0.015204185349515054 0 0 0
1177 1 29.564146152593995 1.8963905622124242 1.2409807438931517 0 0 0
1180 1 31.206598716627 2.8447300249110095 0.015204185349518956 0 0 0
1181 1 32.84905128065999 1.8963905622124226 1.240980743893154 0 0 0
1184 1 34.49150384469301 2.8447300249110117 0.015204185349516354 0 0 0
1178 1 31.206598716627 4.741201852139427 1.2409807438931484 0 0 0
1182 1 34.49150384469301 4.741201852139425 1.240980743893151 0 0 0
1299 1 29.564146152593995 5.689541314838009 0.015204185349514683 0 0 0
1303 1 32.84905128065999 5.689541314838011 0.0152041853495125 0 0 0
1185 1 36.133956408725986 1.896390562212424 1.240980743893152 0 0 0
1188 1 37.77640897275901 2.8447300249110117 0.015204185349516185 0 0 0
1189 1 39.41886153679199 1.896390562212424 1.240980743893152 0 0 0
1186 1 37.77640897275901 4.741201852139425 1.240980743893151 0 0 0
1307 1 36.133956408725986 5.68954131483801 0.01520418534951443 0 0 0
1311 1 39.41886153679199 5.68954131483801 0.015204185349514433 0 0 0
1192 1 41.06131410082501 2.8447300249110117 0.015204185349516189 0 0 0
1193 1 42.70376666485799 1.896390562212424 1.240980743893152 0 0 0
1196 1 44.34621922889101 2.8447300249110117 0.015204185349516194 0 0 0
1197 1 45.98867179292399 1.896390562212424 1.240980743893152 0 0 0
1190 1 41.06131410082501 4.741201852139425 1.240980743893151 0 0 0
1194 1 44.34621922889101 4.741201852139425 1.2409807438931513 0 0 0
1315 1 42.70376666485799 5.68954131483801 0.015204185349514435 0 0 0
1319 1 45.98867179292399 5.689541314838009 0.01520418534951485 0 0 0
1200 1 47.63112435695701 2.844730024911013 0.015204185349515613 0 0 0
1081 1 49.273576920989996 1.8963905622124266 1.240980743893148 -1 0 0
1084 1 50.916029485023 2.8447300249110126 0.015204185349516178 -1 0 0
1198 1 47.63112435695701 4.741201852139424 1.2409807438931515 0 0 0
1082 1 50.916029485023 4.741201852139423 1.2409807438931517 -1 0 0
1203 1 49.273576920989996 5.689541314838007 0.015204185349517943 -1 0 0
1085 1 52.558482049056 1.8963905622124244 1.2409807438931515 -1 0 0
1088 1 54.200934613089004 2.844730024911012 0.015204185349517075 -1 0 0
1089 1 55.843387177122004 1.8963905622124244 1.2409807438931515 -1 0 0
1092 1 57.485839741155004 2.844730024911012 0.015204185349517072 -1 0 0
1086 1 54.200934613089004 4.741201852139424 1.2409807438931504 -1 0 0
1090 1 57.485839741155004 4.741201852139424 1.2409807438931504 -1 0 0
1207 1 52.558482049056 5.689541314838009 0.015204185349514732 -1 0 0
1211 1 55.843387177122004 5.689541314838009 0.01520418534951486 -1 0 0
1093 1 59.128292305188005 1.8963905622124244 1.2409807438931515 -1 0 0
1096 1 60.770744869221005 2.844730024911012 0.015204185349517058 -1 0 0
1097 1 62.413197433254005 1.8963905622124253 1.24098074389315 -1 0 0
1094 1 60.770744869221005 4.741201852139424 1.2409807438931504 -1 0 0
1215 1 59.128292305188005 5.689541314838009 0.01520418534951486 -1 0 0
1219 1 62.413197433254005 5.689541314838008 0.01520418534951622 -1 0 0
1100 1 64.05564999728699 2.844730024911014 0.015204185349513493 -1 0 0
1101 1 65.69810256132001 1.8963905622124246 1.2409807438931508 -1 0 0
1104 1 67.34055512535299 2.8447300249110117 0.015204185349516286 -1 0 0
1105 1 68.98300768938601 1.896390562212424 1.240980743893152 -1 0 0
1098 1 64.05564999728699 4.741201852139422 1.240980743893154 -1 0 0
1102 1 67.34055512535299 4.741201852139424 1.2409807438931515 -1 0 0
1223 1 65.69810256132001 5.689541314838009 0.015204185349515304 -1 0 0
1227 1 68.98300768938601 5.68954131483801 0.015204185349514412 -1 0 0
1108 1 70.62546025341899 2.8447300249110117 0.015204185349516168 -1 0 0
1109 1 72.26791281745201 1.8963905622124237 1.2409807438931524 -1 0 0
1112 1 73.910365381485 2.844730024911011 0.015204185349518637 -1 0 0
1106 1 70.62546025341899 4.741201852139425 1.240980743893151 -1 0 0
1110 1 73.910365381485 4.741201852139426 1.2409807438931484 -1 0 0
1231 1 72.26791281745201 5.689541314838009 0.015204185349514485 -1 0 0
1113 1 75.552817945518 1.8963905622124186 1.240980743893158 -1 0 0
1116 1 77.19527050955101 2.8447300249110117 0.015204185349516338 -1 0 0
1117 1 78.837723073584 1.896390562212429 1.2409807438931453 -1 0 0
1120 1 80.480175637617 2.8447300249110117 0.015204185349516355 -1 0 0
1114 1 77.19527050955101 4.741201852139425 1.240980743893151 -1 0 0
1118 1 80.480175637617 4.741201852139425 1.240980743893151 -1 0 0
1235 1 75.552817945518 5.6895413148380145 0.01520418534950832 -1 0 0
1239 1 78.837723073584 5.689541314838005 0.015204185349521324 -1 0 0
1121 1 82.12262820165 1.8963905622124186 1.240980743893158 -1 0 0
1124 1 83.76508076568301 2.8447300249110117 0.015204185349516355 -1 0 0
1125 1 85.407533329716 1.896390562212429 1.2409807438931453 -1 0 0
1122 1 83.76508076568301 4.741201852139425 1.240980743893151 -1 0 0
1243 1 82.12262820165 5.6895413148380145 0.015204185349508244 -1 0 0
1247 1 85.407533329716 5.689541314838005 0.015204185349521325 -1 0 0
1128 1 87.049985893749 2.8447300249110117 0.015204185349516359 -1 0 0
1129 1 88.692438457782 1.8963905622124186 1.240980743893158 -1 0 0
1132 1 90.33489102181501 2.8447300249110117 0.015204185349516359 -1 0 0
1133 1 91.977343585848 1.896390562212429 1.2409807438931453 -1 0 0
1126 1 87.049985893749 4.741201852139425 1.240980743893151 -1 0 0
1130 1 90.33489102181501 4.741201852139425 1.2409807438931513 -1 0 0
1251 1 88.692438457782 5.6895413148380145 0.015204185349508247 -1 0 0
1255 1 91.977343585848 5.689541314838005 0.015204185349521325 -1 0 0
1136 1 93.619796149881 2.8447300249110117 0.015204185349516355 -1 0 0
1137 1 95.262248713914 1.8963905622124186 1.240980743893158 -1 0 0
1140 1 96.90470127794701 2.8447300249110112 0.015204185349517004 -1 0 0
1134 1 93.619796149881 4.741201852139425 1.240980743893151 -1 0 0
1138 1 96.90470127794701 4.741201852139425 1.2409807438931506 -1 0 0
1259 1 95.262248713914 5.6895413148380145 0.015204185349508292 -1 0 0
1261 1 0 7.586013142066428 1.240980743893149 0 0 0
1265 1 3.284905128065997 7.586013142066424 1.2409807438931528 0 0 0
1264 1 1.6424525640329986 8.534352604765008 0.015204185349515707 0 0 0
1268 1 4.927357692098998 8.534352604765008 0.015204185349516003 0 0 0
1262 1 1.642452564032999 10.430824431993424 1.2409807438931522 0 0 0
1266 1 4.927357692098997 10.430824431993424 1.240980743893154 0 0 0
1383 1 0 11.379163894692006 0.015204185349519594 0 0 0
1387 1 3.284905128065996 11.379163894692008 0.015204185349514208 0 0 0
1269 1 6.569810256131993 7.586013142066427 1.240980743893151 0 0 0
1273 1 9.854715384197997 7.5860131420664265 1.2409807438931517 0 0 0
1272 1 8.212262820164995 8.534352604765008 0.015204185349516404 0 0 0
1276 1 11.497167948230997 8.534352604765006 0.015204185349517018 0 0 0
1270 1 8.212262820164995 10.430824431993424 1.2409807438931524 0 0 0
1274 1 11.497167948230997 10.430824431993425 1.2409807438931526 0 0 0
1391 1 6.569810256131994 11.379163894692006 0.015204185349515582 0 0 0
1395 1 9.854715384197995 11.379163894692008 0.015204185349516248 0 0 0
1277 1 13.139620512263997 7.586013142066427 1.2409807438931508 0 0 0
1281 1 16.42452564033 7.586013142066426 1.2409807438931524 0 0 0
1280 1 14.782073076297 8.534352604765008 0.015204185349516109 0 0 0
1278 1 14.782073076296996 10.430824431993424 1.2409807438931522 0 0 0
1399 1 13.139620512263999 11.379163894692006 0.015204185349518761 0 0 0
1403 1 16.42452564033 11.379163894692008 0.015204185349514095 0 0 0
1285 1 19.709430768396 7.586013142066426 1.2409807438931522 0 0 0
1289 1 22.994335896461997 7.586013142066424 1.2409807438931542 0 0 0
1284 1 18.066978204363 8.534352604765008 0.015204185349516296 0 0 0
1288 1 21.351883332428997 8.534352604765008 0.015204185349516088 0 0 0
1282 1 18.066978204363 10.430824431993422 1.2409807438931528 0 0 0
1286 1 21.351883332428997 10.430824431993422 1.2409807438931526 0 0 0
1407 1 19.709430768396 11.379163894692006 0.015204185349515127 0 0 0
1411 1 22.994335896461997 11.37916389469201 0.015204185349514798 0 0 0
1293 1 26.279241024527995 7.586013142066426 1.2409807438931522 0 0 0
1292 1 24.636788460494998 8.534352604765008 0.015204185349516088 0 0 0
1296 1 27.921693588560995 8.534352604765008 0.015204185349516303 0 0 0
1290 1 24.636788460494998 10.430824431993422 1.2409807438931526 0 0 0
1294 1 27.921693588560995 10.430824431993422 1.2409807438931528 0 0 0
1415 1 26.279241024527995 11.379163894692006 0.01520418534951513 0 0 0
1297 1 29.564146152593995 7.586013142066426 1.2409807438931526 0 0 0
1301 1 32.84905128065999 7.586013142066424 1.2409807438931548 0 0 0
1300 1 31.206598716627 8.534352604765006 0.015204185349518652 0 0 0
1304 1 34.49150384469301 8.534352604765008 0.015204185349516059 0 0 0
1298 1 31.206598716627 10.430824431993424 1.2409807438931506 0 0 0
1302 1 34.49150384469301 10.430824431993424 1.2409807438931524 0 0 0
1419 1 29.564146152593995 11.379163894692008 0.01520418534951478 0 0 0
1423 1 32.84905128065999 11.379163894692008 0.015204185349513021 0 0 0
1305 1 36.133956408725986 7.586013142066426 1.2409807438931528 0 0 0
1309 1 39.41886153679199 7.586013142066426 1.2409807438931528 0 0 0
1308 1 37.77640897275901 8.534352604765008 0.015204185349515892 0 0 0
1306 1 37.77640897275901 10.430824431993424 1.2409807438931526 0 0 0
1427 1 36.133956408725986 11.379163894692006 0.015204185349515337 0 0 0
1431 1 39.41886153679199 11.379163894692006 0.015204185349515339 0 0 0
1313 1 42.70376666485799 7.586013142066426 1.2409807438931528 0 0 0
1317 1 45.98867179292399 7.586013142066426 1.2409807438931528 0 0 0
1312 1 41.06131410082501 8.534352604765008 0.015204185349515894 0 0 0
1316 1 44.34621922889101 8.534352604765008 0.0152041853495159 0 0 0
1310 1 41.06131410082501 10.430824431993424 1.2409807438931526 0 0 0
1314 1 44.34621922889101 10.430824431993424 1.2409807438931526 0 0 0
1435 1 42.70376666485799 11.379163894692006 0.015204185349515342 0 0 0
1439 1 45.98867179292399 11.379163894692006 0.01520418534951533 0 0 0
1201 1 49.273576920989996 7.586013142066428 1.2409807438931484 -1 0 0
1320 1 47.63112435695701 8.53435260476501 0.015204185349514785 0 0 0
1204 1 50.916029485023 8.534352604765008 0.015204185349515752 -1 0 0
1318 1 47.63112435695701 10.430824431993422 1.2409807438931535 0 0 0
1202 1 50.916029485023 10.430824431993424 1.2409807438931537 -1 0 0
1323 1 49.273576920989996 11.379163894692006 0.015204185349519884 -1 0 0
1205 1 52.558482049056 7.5860131420664265 1.2409807438931515 -1 0 0
1209 1 55.843387177122004 7.586013142066426 1.2409807438931524 -1 0 0
1208 1 54.200934613089004 8.534352604765008 0.015204185349516293 -1 0 0
1212 1 57.485839741155004 8.534352604765008 0.01520418534951624 -1 0 0
1206 1 54.200934613089004 10.430824431993424 1.240980743893152 -1 0 0
1210 1 57.485839741155004 10.430824431993424 1.240980743893152 -1 0 0
1327 1 52.558482049056 11.379163894692008 0.015204185349516328 -1 0 0
1331 1 55.843387177122004 11.379163894692006 0.01520418534951625 -1 0 0
1213 1 59.128292305188005 7.586013142066426 1.2409807438931524 -1 0 0
1217 1 62.413197433254005 7.586013142066427 1.2409807438931506 -1 0 0
1216 1 60.770744869221005 8.534352604765008 0.01520418534951631 -1 0 0
1214 1 60.770744869221005 10.430824431993424 1.2409807438931524 -1 0 0
1335 1 59.128292305188005 11.379163894692006 0.015204185349516244 -1 0 0
1339 1 62.413197433254005 11.379163894692006 0.015204185349516341 -1 0 0
1221 1 65.69810256132001 7.5860131420664265 1.2409807438931506 -1 0 0
1225 1 68.98300768938601 7.586013142066426 1.2409807438931528 -1 0 0
1220 1 64.055649997287 8.53435260476501 0.015204185349513876 -1 0 0
1224 1 67.34055512535299 8.534352604765008 0.015204185349515944 -1 0 0
1218 1 64.055649997287 10.430824431993422 1.2409807438931562 -1 0 0
1222 1 67.34055512535299 10.430824431993424 1.2409807438931524 -1 0 0
1343 1 65.69810256132001 11.379163894692006 0.015204185349516388 -1 0 0
1347 1 68.98300768938601 11.379163894692006 0.015204185349515342 -1 0 0
1229 1 72.26791281745201 7.586013142066426 1.2409807438931528 -1 0 0
1228 1 70.62546025341899 8.534352604765008 0.015204185349515887 -1 0 0
1232 1 73.910365381485 8.534352604765006 0.015204185349518229 -1 0 0
1226 1 70.62546025341899 10.430824431993424 1.2409807438931526 -1 0 0
1230 1 73.910365381485 10.430824431993424 1.2409807438931506 -1 0 0
1351 1 72.26791281745201 11.379163894692008 0.015204185349514895 -1 0 0
1233 1 75.552817945518 7.58601314206642 1.2409807438931588 -1 0 0
1237 1 78.837723073584 7.58601314206643 1.240980743893146 -1 0 0
1236 1 77.19527050955101 8.534352604765008 0.015204185349515781 -1 0 0
1240 1 80.480175637617 8.534352604765008 0.015204185349515785 -1 0 0
1234 1 77.19527050955101 10.430824431993424 1.2409807438931517 -1 0 0
1238 1 80.480175637617 10.430824431993424 1.2409807438931517 -1 0 0
1355 1 75.552817945518 11.379163894692013 0.015204185349510561 -1 0 0
1359 1 78.837723073584 11.379163894692 0.0152041853495224 -1 0 0
1241 1 82.12262820165 7.58601314206642 1.240980743893159 -1 0 0
1245 1 85.407533329716 7.58601314206643 1.240980743893146 -1 0 0
1244 1 83.76508076568301 8.534352604765008 0.015204185349515786 -1 0 0
1242 1 83.76508076568301 10.430824431993424 1.2409807438931517 -1 0 0
1363 1 82.12262820165 11.379163894692013 0.015204185349510955 -1 0 0
1367 1 85.407533329716 11.379163894692 0.0152041853495224 -1 0 0
1249 1 88.692438457782 7.58601314206642 1.240980743893159 -1 0 0
1253 1 91.977343585848 7.58601314206643 1.240980743893146 -1 0 0
1248 1 87.049985893749 8.534352604765008 0.015204185349515786 -1 0 0
1252 1 90.33489102181501 8.534352604765008 0.01520418534951579 -1 0 0
1246 1 87.049985893749 10.430824431993424 1.2409807438931517 -1 0 0
1250 1 90.33489102181501 10.430824431993424 1.2409807438931517 -1 0 0
1371 1 88.692438457782 11.379163894692013 0.015204185349510957 -1 0 0
1375 1 91.977343585848 11.379163894692 0.015204185349522403 -1 0 0
1257 1 95.262248713914 7.58601314206642 1.2409807438931588 -1 0 0
1256 1 93.619796149881 8.534352604765008 0.015204185349515783 -1 0 0
1260 1 96.90470127794701 8.534352604765008 0.015204185349516498 -1 0 0
1254 1 93.619796149881 10.430824431993424 1.2409807438931517 -1 0 0
1258 1 96.90470127794701 10.430824431993424 1.2409807438931515 -1 0 0
1379 1 95.262248713914 11.379163894692013 0.015204185349510983 -1 0 0
1381 1 0 13.275635721920423 1.2409807438931495 0 0 0
1385 1 3.284905128065996 13.275635721920423 1.240980743893154 0 0 0
1384 1 1.642452564032999 14.22397518461901 0.015204185349518732 0 0 0
1388 1 4.927357692098998 14.22397518461901 0.015204185349518031 0 0 0
1503 1 0 17.06878647454601 0.015204185349518172 0 0 0
1382 1 1.6424525640329999 16.120447011847418 1.2409807438931524 0 0 0
1507 1 3.2849051280659967 17.068786474546012 0.015204185349514725 0 0 0
1386 1 4.9273576920989965 16.120447011847418 1.2409807438931546 0 0 0
1389 1 6.569810256131994 13.275635721920423 1.2409807438931508 0 0 0
1393 1 9.854715384197995 13.275635721920422 1.2409807438931517 0 0 0
1392 1 8.212262820164995 14.223975184619007 0.015204185349519603 0 0 0
1396 1 11.497167948230995 14.22397518461901 0.015204185349518937 0 0 0
1511 1 6.569810256131996 17.068786474546012 0.015204185349516465 0 0 0
1390 1 8.212262820164996 16.120447011847418 1.2409807438931517 0 0 0
1515 1 9.854715384197995 17.06878647454601 0.015204185349515875 0 0 0
1394 1 11.497167948230995 16.120447011847418 1.240980743893152 0 0 0
1397 1 13.139620512263997 13.275635721920422 1.2409807438931515 0 0 0
1401 1 16.42452564033 13.275635721920423 1.2409807438931522 0 0 0
1400 1 14.782073076297 14.22397518461901 0.015204185349518938 0 0 0
1519 1 13.139620512263997 17.068786474546012 0.015204185349515729 0 0 0
1398 1 14.782073076297 16.120447011847418 1.240980743893152 0 0 0
1523 1 16.42452564033 17.06878647454601 0.01520418534951596 0 0 0
1405 1 19.709430768396 13.275635721920423 1.2409807438931517 0 0 0
1409 1 22.994335896461997 13.27563572192042 1.2409807438931537 0 0 0
1404 1 18.066978204363 14.223975184619007 0.015204185349519176 0 0 0
1408 1 21.351883332428997 14.22397518461901 0.01520418534951886 0 0 0
1402 1 18.066978204363 16.12044701184742 1.2409807438931508 0 0 0
1527 1 19.709430768396 17.06878647454601 0.015204185349516296 0 0 0
1406 1 21.351883332428997 16.12044701184742 1.240980743893151 0 0 0
1531 1 22.994335896461997 17.06878647454601 0.01520418534951239 0 0 0
1413 1 26.279241024527995 13.275635721920423 1.2409807438931517 0 0 0
1412 1 24.636788460494998 14.22397518461901 0.015204185349518862 0 0 0
1416 1 27.921693588560995 14.223975184619007 0.015204185349519173 0 0 0
1410 1 24.636788460494998 16.12044701184742 1.240980743893151 0 0 0
1535 1 26.279241024527995 17.06878647454601 0.015204185349516296 0 0 0
1414 1 27.921693588560995 16.12044701184742 1.2409807438931508 0 0 0
1417 1 29.564146152593995 13.275635721920423 1.2409807438931522 0 0 0
1421 1 32.84905128065999 13.275635721920422 1.2409807438931548 0 0 0
1420 1 31.206598716627 14.223975184619007 0.015204185349521084 0 0 0
1424 1 34.49150384469301 14.22397518461901 0.015204185349518888 0 0 0
1539 1 29.564146152593995 17.06878647454601 0.015204185349515991 0 0 0
1418 1 31.206598716627 16.12044701184742 1.2409807438931484 0 0 0
1543 1 32.84905128065999 17.068786474546012 0.015204185349513812 0 0 0
1422 1 34.49150384469301 16.12044701184742 1.240980743893151 0 0 0
1425 1 36.133956408725986 13.275635721920423 1.2409807438931524 0 0 0
1429 1 39.41886153679199 13.275635721920423 1.2409807438931524 0 0 0
1428 1 37.77640897275901 14.22397518461901 0.015204185349518718 0 0 0
1547 1 36.133956408725986 17.06878647454601 0.015204185349515748 0 0 0
1426 1 37.77640897275901 16.12044701184742 1.2409807438931513 0 0 0
1551 1 39.41886153679199 17.06878647454601 0.01520418534951575 0 0 0
1433 1 42.70376666485799 13.275635721920423 1.2409807438931524 0 0 0
1437 1 45.98867179292399 13.275635721920423 1.2409807438931524 0 0 0
1432 1 41.06131410082501 14.22397518461901 0.015204185349518722 0 0 0
1436 1 44.34621922889101 14.22397518461901 0.015204185349518732 0 0 0
1430 1 41.06131410082501 16.12044701184742 1.2409807438931513 0 0 0
1555 1 42.70376666485799 17.06878647454601 0.015204185349515752 0 0 0
1434 1 44.34621922889101 16.12044701184742 1.2409807438931513 0 0 0
1559 1 45.98867179292399 17.06878647454601 0.01520418534951564 0 0 0
1321 1 49.273576920989996 13.275635721920423 1.2409807438931493 -1 0 0
1440 1 47.63112435695701 14.22397518461901 0.015204185349517594 0 0 0
1324 1 50.916029485023 14.22397518461901 0.015204185349517632 -1 0 0
1438 1 47.63112435695701 16.120447011847418 1.2409807438931533 0 0 0
1443 1 49.273576920989996 17.06878647454601 0.015204185349518123 -1 0 0
1322 1 50.916029485023 16.120447011847418 1.2409807438931533 -1 0 0
1325 1 52.558482049056 13.275635721920422 1.2409807438931515 -1 0 0
1329 1 55.843387177122004 13.275635721920422 1.2409807438931515 -1 0 0
1328 1 54.200934613089004 14.223975184619007 0.015204185349519391 -1 0 0
1332 1 57.485839741155004 14.223975184619007 0.015204185349519391 -1 0 0
1447 1 52.558482049056 17.06878647454601 0.015204185349516043 -1 0 0
1326 1 54.200934613089004 16.12044701184742 1.2409807438931508 -1 0 0
1451 1 55.843387177122004 17.06878647454601 0.015204185349516161 -1 0 0
1330 1 57.485839741155004 16.12044701184742 1.2409807438931508 -1 0 0
1333 1 59.128292305188005 13.275635721920422 1.2409807438931515 -1 0 0
1337 1 62.413197433254005 13.275635721920423 1.2409807438931506 -1 0 0
1336 1 60.770744869221005 14.223975184619007 0.015204185349519558 -1 0 0
1455 1 59.128292305188005 17.06878647454601 0.015204185349516071 -1 0 0
1334 1 60.770744869221005 16.120447011847418 1.240980743893152 -1 0 0
1459 1 62.413197433254005 17.068786474546012 0.01520418534951758 -1 0 0
1341 1 65.69810256132001 13.275635721920423 1.240980743893151 -1 0 0
1345 1 68.98300768938601 13.275635721920423 1.2409807438931524 -1 0 0
1340 1 64.055649997287 14.223975184619011 0.015204185349516314 -1 0 0
1344 1 67.34055512535299 14.22397518461901 0.015204185349518982 -1 0 0
1338 1 64.055649997287 16.120447011847414 1.240980743893157 -1 0 0
1463 1 65.69810256132001 17.068786474546012 0.01520418534951672 -1 0 0
1342 1 67.34055512535299 16.120447011847418 1.2409807438931524 -1 0 0
1467 1 68.98300768938601 17.06878647454601 0.015204185349515661 -1 0 0
1349 1 72.26791281745201 13.275635721920423 1.2409807438931524 -1 0 0
1348 1 70.62546025341899 14.22397518461901 0.015204185349518722 -1 0 0
1352 1 73.910365381485 14.223975184619007 0.01520418534952098 -1 0 0
1346 1 70.62546025341899 16.12044701184742 1.2409807438931513 -1 0 0
1471 1 72.26791281745201 17.06878647454601 0.015204185349515729 -1 0 0
1350 1 73.910365381485 16.12044701184742 1.2409807438931488 -1 0 0
1353 1 75.552817945518 13.275635721920416 1.2409807438931584 -1 0 0
1357 1 78.837723073584 13.275635721920427 1.240980743893147 -1 0 0
1356 1 77.19527050955101 14.22397518461901 0.015204185349518295 -1 0 0
1360 1 80.480175637617 14.22397518461901 0.015204185349518295 -1 0 0
1475 1 75.552817945518 17.068786474546012 0.01520418534950806 -1 0 0
1354 1 77.19527050955101 16.120447011847418 1.2409807438931517 -1 0 0
1479 1 78.837723073584 17.068786474546005 0.015204185349520935 -1 0 0
1358 1 80.480175637617 16.120447011847418 1.2409807438931517 -1 0 0
1361 1 82.12262820165 13.275635721920416 1.2409807438931586 -1 0 0
1365 1 85.407533329716 13.275635721920427 1.240980743893147 -1 0 0
1364 1 83.76508076568301 14.22397518461901 0.015204185349518298 -1 0 0
1483 1 82.12262820165 17.068786474546012 0.015204185349508388 -1 0 0
1362 1 83.76508076568301 16.120447011847418 1.2409807438931517 -1 0 0
1487 1 85.407533329716 17.068786474546005 0.015204185349520939 -1 0 0
1369 1 88.692438457782 13.275635721920416 1.2409807438931586 -1 0 0
1373 1 91.977343585848 13.275635721920427 1.240980743893147 -1 0 0
1368 1 87.049985893749 14.22397518461901 0.015204185349518298 -1 0 0
1372 1 90.33489102181501 14.22397518461901 0.0152041853495183 -1 0 0
1366 1 87.049985893749 16.120447011847418 1.2409807438931517 -1 0 0
1491 1 88.692438457782 17.068786474546012 0.015204185349508393 -1 0 0
1370 1 90.33489102181501 16.120447011847418 1.2409807438931517 -1 0 0
1495 1 91.977343585848 17.068786474546005 0.015204185349520939 -1 0 0
1377 1 95.262248713914 13.275635721920416 1.2409807438931586 -1 0 0
1376 1 93.619796149881 14.22397518461901 0.015204185349518298 -1 0 0
1380 1 96.90470127794701 14.22397518461901 0.015204185349518496 -1 0 0
1374 1 93.619796149881 16.120447011847418 1.2409807438931517 -1 0 0
1499 1 95.262248713914 17.068786474546012 0.015204185349507942 -1 0 0
1378 1 96.90470127794701 16.120447011847418 1.2409807438931517 -1 0 0
1501 1 0 18.965258301774426 1.2409807438931455 0 0 0
1504 1 1.6424525640329988 19.91359776447301 0.015204185349517906 0 0 0
1505 1 3.2849051280659953 18.965258301774423 1.240980743893152 0 0 0
1508 1 4.927357692098998 19.91359776447301 0.015204185349516371 0 0 0
1623 1 0 22.758409054400012 0.01520418534951874 0 0 0
1502 1 1.6424525640329999 21.810069591701424 1.2409807438931535 0 0 0
1627 1 3.2849051280659967 22.758409054400012 0.01520418534951297 0 0 0
1506 1 4.9273576920989965 21.81006959170142 1.2409807438931544 0 0 0
1509 1 6.569810256131995 18.96525830177442 1.2409807438931468 0 0 0
1512 1 8.212262820164995 19.91359776447301 0.015204185349518489 0 0 0
1513 1 9.854715384197995 18.965258301774426 1.24098074389315 0 0 0
1516 1 11.497167948230995 19.91359776447301 0.015204185349518146 0 0 0
1631 1 6.569810256131996 22.758409054400015 0.015204185349516567 0 0 0
1510 1 8.212262820164996 21.810069591701424 1.240980743893153 0 0 0
1635 1 9.854715384197995 22.758409054400012 0.015204185349516456 0 0 0
1514 1 11.497167948230995 21.810069591701424 1.2409807438931533 0 0 0
1517 1 13.139620512263997 18.965258301774423 1.240980743893148 0 0 0
1520 1 14.782073076297 19.91359776447301 0.015204185349518225 0 0 0
1521 1 16.42452564033 18.965258301774426 1.24098074389315 0 0 0
1639 1 13.139620512263997 22.758409054400015 0.015204185349516286 0 0 0
1518 1 14.782073076297 21.810069591701424 1.2409807438931533 0 0 0
1643 1 16.42452564033 22.758409054400012 0.015204185349516536 0 0 0
1524 1 18.066978204363 19.91359776447301 0.015204185349518413 0 0 0
1525 1 19.709430768396 18.965258301774426 1.24098074389315 0 0 0
1528 1 21.351883332429 19.91359776447301 0.015204185349518173 0 0 0
1529 1 22.994335896461997 18.965258301774423 1.240980743893152 0 0 0
1522 1 18.066978204363 21.810069591701424 1.240980743893152 0 0 0
1647 1 19.709430768396 22.758409054400012 0.015204185349516869 0 0 0
1526 1 21.351883332428997 21.810069591701424 1.2409807438931524 0 0 0
1651 1 22.994335896461997 22.758409054400012 0.015204185349512957 0 0 0
1532 1 24.636788460494994 19.91359776447301 0.015204185349518172 0 0 0
1533 1 26.279241024527995 18.965258301774426 1.24098074389315 0 0 0
1536 1 27.921693588560995 19.91359776447301 0.015204185349518414 0 0 0
1530 1 24.636788460494998 21.810069591701424 1.2409807438931524 0 0 0
1655 1 26.279241024527995 22.758409054400012 0.015204185349516869 0 0 0
1534 1 27.921693588560995 21.810069591701424 1.240980743893152 0 0 0
1537 1 29.564146152593995 18.965258301774426 1.24098074389315 0 0 0
1540 1 31.206598716627 19.913597764473007 0.015204185349520323 0 0 0
1541 1 32.84905128065999 18.965258301774423 1.240980743893153 0 0 0
1544 1 34.49150384469301 19.91359776447301 0.015204185349517674 0 0 0
1659 1 29.564146152593995 22.758409054400012 0.015204185349516557 0 0 0
1538 1 31.206598716627 21.810069591701428 1.2409807438931495 0 0 0
1663 1 32.84905128065999 22.758409054400015 0.01520418534951438 0 0 0
1542 1 34.49150384469301 21.810069591701424 1.2409807438931522 0 0 0
1545 1 36.133956408725986 18.965258301774423 1.2409807438931506 0 0 0
1548 1 37.77640897275901 19.91359776447301 0.015204185349517504 0 0 0
1549 1 39.41886153679199 18.965258301774423 1.2409807438931506 0 0 0
1667 1 36.133956408725986 22.758409054400012 0.01520418534951631 0 0 0
1546 1 37.77640897275901 21.810069591701424 1.2409807438931524 0 0 0
1671 1 39.41886153679199 22.758409054400012 0.015204185349516309 0 0 0
1552 1 41.06131410082501 19.91359776447301 0.015204185349517507 0 0 0
1553 1 42.70376666485799 18.965258301774423 1.2409807438931506 0 0 0
1556 1 44.34621922889101 19.91359776447301 0.015204185349517512 0 0 0
1557 1 45.98867179292399 18.965258301774423 1.2409807438931508 0 0 0
1550 1 41.06131410082501 21.810069591701424 1.2409807438931524 0 0 0
1675 1 42.70376666485799 22.758409054400012 0.01520418534951631 0 0 0
1554 1 44.34621922889101 21.810069591701424 1.2409807438931524 0 0 0
1679 1 45.98867179292399 22.758409054400012 0.015204185349516208 0 0 0
1560 1 47.63112435695701 19.91359776447301 0.015204185349516511 0 0 0
1441 1 49.273576920989996 18.965258301774426 1.2409807438931455 -1 0 0
1444 1 50.916029485023 19.91359776447301 0.01520418534951688 -1 0 0
1558 1 47.63112435695701 21.810069591701424 1.2409807438931546 0 0 0
1563 1 49.273576920989996 22.758409054400012 0.015204185349518673 -1 0 0
1442 1 50.916029485023 21.810069591701424 1.2409807438931546 -1 0 0
1445 1 52.558482049056 18.965258301774426 1.2409807438931497 -1 0 0
1448 1 54.200934613089004 19.91359776447301 0.015204185349518342 -1 0 0
1449 1 55.843387177122004 18.965258301774426 1.2409807438931497 -1 0 0
1452 1 57.485839741155004 19.91359776447301 0.015204185349518342 -1 0 0
1567 1 52.558482049056 22.758409054400012 0.015204185349516619 -1 0 0
1446 1 54.200934613089004 21.810069591701424 1.240980743893152 -1 0 0