LAMMPS data file via write_data, version 29 Aug 2024, timestep = 4, units = metal

4320 atoms
2 atom types

0 98.54715384198 xlo xhi
0 102.413206437372 ylo yhi
-50 50 zlo zhi

Masses

1 30.973761998
2 30.973761998

Atoms # atomic

1141 1 7.236381462240296e-15 1.8944541896911407 1.3476342663338419 0 0 0
1144 1 1.6424525640329741 2.8428333187796317 0.11696336730393327 0 0 0
1145 1 3.284905128065984 1.8944541896911646 1.3476342663338152 0 0 0
1148 1 4.927357692099004 2.8428333187796264 0.11696336730394417 0 0 0
1142 1 1.642452564032976 4.739265479618159 1.347634266333832 0 0 0
1146 1 4.927357692099003 4.739265479618168 1.3476342663338219 0 0 0
1263 1 8.123393013468262e-15 5.687644608706649 0.11696336730392688 0 0 0
1267 1 3.2849051280659824 5.687644608706631 0.11696336730395455 0 0 0
1149 1 6.569810256132011 1.8944541896911542 1.3476342663338279 0 0 0
1152 1 8.212262820165005 2.842833318779633 0.11696336730393443 0 0 0
1153 1 9.854715384198002 1.8944541896911586 1.3476342663338219 0 0 0
1156 1 11.497167948231004 2.842833318779631 0.11696336730393854 0 0 0
1150 1 8.212262820165005 4.73926547961816 1.3476342663338317 0 0 0
1154 1 11.497167948231006 4.7392654796181635 1.347634266333828 0 0 0
1271 1 6.569810256132011 5.687644608706638 0.11696336730394147 0 0 0
1275 1 9.854715384198002 5.687644608706633 0.11696336730394646 0 0 0
1157 1 13.139620512263997 1.8944541896911526 1.3476342663338279 0 0 0
1160 1 14.78207307629699 2.8428333187796304 0.11696336730393807 0 0 0
1161 1 16.424525640329993 1.8944541896911593 1.3476342663338206 0 0 0
1158 1 14.782073076296989 4.739265479618163 1.3476342663338288 0 0 0
1279 1 13.139620512263997 5.687644608706639 0.11696336730393803 0 0 0
1283 1 16.424525640329993 5.687644608706633 0.1169633673039478 0 0 0
1164 1 18.066978204362993 2.8428333187796313 0.11696336730393639 0 0 0
1165 1 19.709430768395986 1.8944541896911535 1.347634266333827 0 0 0
1168 1 21.351883332428983 2.842833318779631 0.1169633673039354 0 0 0
1169 1 22.994335896461997 1.8944541896911684 1.3476342663338112 0 0 0
1162 1 18.066978204362993 4.73926547961816 1.34763426633383 0 0 0
1166 1 21.351883332428983 4.73926547961816 1.3476342663338308 0 0 0
1287 1 19.70943076839599 5.687644608706638 0.11696336730394272 0 0 0
1291 1 22.994335896461997 5.68764460870663 0.1169633673039579 0 0 0
1172 1 24.636788460495012 2.8428333187796313 0.11696336730393565 0 0 0
1173 1 26.27924102452801 1.8944541896911542 1.3476342663338259 0 0 0
1176 1 27.921693588561002 2.8428333187796313 0.11696336730393686 0 0 0
1170 1 24.636788460495012 4.73926547961816 1.3476342663338305 0 0 0
1174 1 27.921693588561002 4.73926547961816 1.3476342663338303 0 0 0
1295 1 26.279241024528005 5.687644608706637 0.11696336730394338 0 0 0
1177 1 29.564146152594 1.894454189691157 1.347634266333823 0 0 0
1180 1 31.20659871662699 2.842833318779636 0.11696336730393073 0 0 0
1181 1 32.84905128066 1.8944541896911626 1.3476342663338172 0 0 0
1184 1 34.49150384469299 2.84283331877963 0.11696336730393739 0 0 0
1178 1 31.20659871662699 4.739265479618156 1.3476342663338354 0 0 0
1182 1 34.49150384469299 4.739265479618162 1.3476342663338283 0 0 0
1299 1 29.564146152594 5.687644608706633 0.11696336730394528 0 0 0
1303 1 32.84905128066 5.687644608706628 0.1169633673039517 0 0 0
1185 1 36.13395640872601 1.894454189691156 1.3476342663338237 0 0 0
1188 1 37.77640897275899 2.8428333187796304 0.11696336730393708 0 0 0
1189 1 39.418861536792 1.8944541896911566 1.3476342663338228 0 0 0
1186 1 37.77640897275899 4.739265479618161 1.3476342663338303 0 0 0
1307 1 36.13395640872601 5.687644608706636 0.1169633673039439 0 0 0
1311 1 39.418861536792 5.687644608706634 0.11696336730394691 0 0 0
1192 1 41.061314100824994 2.8428333187796304 0.11696336730393726 0 0 0
1193 1 42.703766664858 1.8944541896911562 1.3476342663338228 0 0 0
1196 1 44.346219228890995 2.8428333187796295 0.11696336730393868 0 0 0
1197 1 45.98867179292401 1.8944541896911582 1.3476342663338212 0 0 0
1190 1 41.061314100824994 4.739265479618163 1.3476342663338274 0 0 0
1194 1 44.346219228890995 4.739265479618162 1.3476342663338292 0 0 0
1315 1 42.70376666485801 5.687644608706636 0.11696336730394417 0 0 0
1319 1 45.98867179292401 5.687644608706633 0.11696336730394827 0 0 0
1200 1 47.63112435695701 2.8428333187796273 0.11696336730394137 0 0 0
1081 1 49.27357692099 1.8944541896911484 1.3476342663338323 -1 0 0
1084 1 50.916029485022996 2.8428333187796286 0.11696336730393994 -1 0 0
1198 1 47.63112435695701 4.739265479618166 1.347634266333825 0 0 0
1082 1 50.91602948502299 4.739265479618165 1.3476342663338272 -1 0 0
1203 1 49.27357692099 5.687644608706644 0.11696336730393288 -1 0 0
1085 1 52.558482049055996 1.8944541896911586 1.347634266333822 -1 0 0
1088 1 54.200934613089004 2.842833318779631 0.11696336730393739 -1 0 0
1089 1 55.843387177122004 1.8944541896911575 1.3476342663338232 -1 0 0
1092 1 57.485839741155004 2.842833318779631 0.11696336730393762 -1 0 0
1086 1 54.200934613089004 4.7392654796181635 1.3476342663338283 -1 0 0
1090 1 57.485839741155004 4.739265479618163 1.347634266333829 -1 0 0
1207 1 52.558482049055996 5.687644608706633 0.11696336730394682 -1 0 0
1211 1 55.843387177122004 5.687644608706635 0.11696336730394474 -1 0 0
1093 1 59.128292305188005 1.894454189691157 1.3476342663338237 -1 0 0
1096 1 60.770744869221 2.842833318779633 0.11696336730393483 -1 0 0
1097 1 62.41319743325399 1.8944541896911546 1.3476342663338234 -1 0 0
1094 1 60.770744869221 4.73926547961816 1.3476342663338317 -1 0 0
1215 1 59.128292305188005 5.687644608706635 0.11696336730394388 -1 0 0
1219 1 62.41319743325399 5.687644608706637 0.11696336730394326 -1 0 0
1100 1 64.055649997287 2.8428333187796206 0.11696336730394963 -1 0 0
1101 1 65.69810256132 1.8944541896911509 1.3476342663338305 -1 0 0
1104 1 67.34055512535302 2.842833318779631 0.11696336730393449 -1 0 0
1105 1 68.98300768938599 1.894454189691158 1.3476342663338228 -1 0 0
1098 1 64.055649997287 4.739265479618173 1.3476342663338186 -1 0 0
1102 1 67.340555125353 4.739265479618158 1.3476342663338317 -1 0 0
1223 1 65.69810256132001 5.6876446087066395 0.11696336730394297 -1 0 0
1227 1 68.98300768938601 5.687644608706635 0.11696336730394626 -1 0 0
1108 1 70.62546025341902 2.842833318779631 0.11696336730393783 -1 0 0
1109 1 72.26791281745199 1.8944541896911506 1.3476342663338263 -1 0 0
1112 1 73.910365381485 2.842833318779637 0.11696336730392896 -1 0 0
1106 1 70.62546025341899 4.73926547961816 1.3476342663338299 -1 0 0
1110 1 73.910365381485 4.739265479618156 1.3476342663338372 -1 0 0
1231 1 72.26791281745199 5.687644608706639 0.1169633673039367 -1 0 0
1113 1 75.55281794551802 1.894454189691184 1.3476342663337928 -1 0 0
1116 1 77.19527050955104 2.842833318779631 0.11696336730393583 -1 0 0
1117 1 78.837723073584 1.8944541896911302 1.347634266333862 -1 0 0
1120 1 80.48017563761697 2.8428333187796304 0.11696336730393664 -1 0 0
1114 1 77.19527050955104 4.73926547961816 1.347634266333829 -1 0 0
1118 1 80.48017563761697 4.739265479618162 1.3476342663338285 -1 0 0
1235 1 75.55281794551802 5.687644608706612 0.11696336730397679 -1 0 0
1239 1 78.837723073584 5.687644608706665 0.11696336730390937 -1 0 0
1121 1 82.12262820165 1.8944541896911862 1.3476342663337866 -1 0 0
1124 1 83.76508076568304 2.8428333187796304 0.11696336730393661 -1 0 0
1125 1 85.407533329716 1.8944541896911302 1.3476342663338623 -1 0 0
1122 1 83.76508076568304 4.739265479618162 1.3476342663338288 -1 0 0
1243 1 82.12262820165 5.6876446087066075 0.11696336730398404 -1 0 0
1247 1 85.407533329716 5.687644608706666 0.11696336730390815 -1 0 0
1128 1 87.04998589374897 2.84283331877963 0.1169633673039367 -1 0 0
1129 1 88.692438457782 1.894454189691186 1.3476342663337866 -1 0 0
1132 1 90.33489102181504 2.84283331877963 0.11696336730393671 -1 0 0
1133 1 91.977343585848 1.89445418969113 1.3476342663338623 -1 0 0
1126 1 87.04998589374897 4.739265479618162 1.3476342663338288 -1 0 0
1130 1 90.33489102181504 4.739265479618162 1.3476342663338288 -1 0 0
1251 1 88.692438457782 5.6876446087066075 0.11696336730398398 -1 0 0
1255 1 91.977343585848 5.687644608706665 0.11696336730390876 -1 0 0
1136 1 93.61979614988097 2.8428333187796295 0.11696336730393679 -1 0 0
1137 1 95.26224871391399 1.8944541896911837 1.3476342663337924 -1 0 0
1140 1 96.90470127794703 2.8428333187796317 0.11696336730393475 -1 0 0
1134 1 93.61979614988097 4.739265479618161 1.3476342663338283 -1 0 0
1138 1 96.90470127794703 4.73926547961816 1.3476342663338303 -1 0 0
1259 1 95.26224871391399 5.687644608706611 0.11696336730397905 -1 0 0
1261 1 3.639049303460422e-15 7.584076769545149 1.3476342663338519 0 0 0
1265 1 3.2849051280659802 7.584076769545171 1.3476342663338274 0 0 0
1264 1 1.6424525640329735 8.532455898633627 0.116963367303935 0 0 0
1268 1 4.927357692099002 8.532455898633616 0.11696336730394115 0 0 0
1262 1 1.6424525640329741 10.428888059472158 1.3476342663338223 0 0 0
1266 1 4.927357692099004 10.428888059472163 1.3476342663338148 0 0 0
1383 1 6.918910970125267e-15 11.377267188560664 0.11696336730392982 0 0 0
1387 1 3.2849051280659842 11.377267188560644 0.11696336730396062 0 0 0
1269 1 6.5698102561320075 7.58407676954516 1.3476342663338374 0 0 0
1273 1 9.854715384198004 7.584076769545161 1.3476342663338334 0 0 0
1272 1 8.212262820165005 8.532455898633623 0.11696336730393453 0 0 0
1276 1 11.497167948231004 8.532455898633623 0.11696336730393797 0 0 0
1270 1 8.212262820165003 10.428888059472156 1.3476342663338206 0 0 0
1274 1 11.497167948231004 10.428888059472156 1.347634266333819 0 0 0
1391 1 6.56981025613201 11.377267188560658 0.11696336730394898 0 0 0
1395 1 9.854715384198002 11.377267188560655 0.11696336730395293 0 0 0
1277 1 13.139620512263997 7.584076769545156 1.3476342663338412 0 0 0
1281 1 16.424525640329993 7.584076769545161 1.3476342663338317 0 0 0
1280 1 14.782073076296989 8.532455898633623 0.11696336730393776 0 0 0
1278 1 14.782073076296992 10.428888059472156 1.3476342663338197 0 0 0
1399 1 13.139620512263997 11.377267188560653 0.11696336730394363 0 0 0
1403 1 16.424525640329993 11.377267188560655 0.11696336730395408 0 0 0
1285 1 19.70943076839599 7.58407676954516 1.3476342663338372 0 0 0
1289 1 22.994335896461997 7.584076769545177 1.347634266333822 0 0 0
1284 1 18.066978204362993 8.532455898633623 0.11696336730393657 0 0 0
1288 1 21.351883332428983 8.532455898633623 0.11696336730393112 0 0 0
1282 1 18.066978204362997 10.428888059472156 1.3476342663338179 0 0 0
1286 1 21.351883332428983 10.428888059472158 1.3476342663338248 0 0 0
1407 1 19.70943076839599 11.377267188560655 0.11696336730394954 0 0 0
1411 1 22.994335896461997 11.377267188560635 0.11696336730396464 0 0 0
1293 1 26.279241024528005 7.58407676954516 1.3476342663338368 0 0 0
1292 1 24.636788460495012 8.532455898633623 0.11696336730393102 0 0 0
1296 1 27.921693588561002 8.532455898633623 0.11696336730393692 0 0 0
1290 1 24.636788460495012 10.428888059472158 1.3476342663338248 0 0 0
1294 1 27.921693588561 10.428888059472156 1.3476342663338188 0 0 0
1415 1 26.279241024528005 11.377267188560655 0.11696336730394968 0 0 0
1297 1 29.564146152594 7.584076769545161 1.3476342663338339 0 0 0
1301 1 32.84905128066 7.584076769545166 1.3476342663338288 0 0 0
1300 1 31.206598716626992 8.532455898633629 0.1169633673039298 0 0 0
1304 1 34.49150384469299 8.532455898633623 0.11696336730393596 0 0 0
1298 1 31.20659871662699 10.42888805947215 1.3476342663338259 0 0 0
1302 1 34.49150384469299 10.428888059472156 1.3476342663338186 0 0 0
1419 1 29.564146152593995 11.377267188560655 0.11696336730395178 0 0 0
1423 1 32.84905128065999 11.37726718856065 0.11696336730395814 0 0 0
1305 1 36.13395640872601 7.58407676954516 1.3476342663338354 0 0 0
1309 1 39.418861536792 7.5840767695451605 1.347634266333834 0 0 0
1308 1 37.77640897275899 8.532455898633623 0.11696336730393664 0 0 0
1306 1 37.77640897275899 10.428888059472156 1.3476342663338186 0 0 0
1427 1 36.133956408726 11.377267188560655 0.11696336730395239 0 0 0
1431 1 39.418861536792 11.377267188560655 0.11696336730395308 0 0 0
1313 1 42.703766664858 7.58407676954516 1.3476342663338345 0 0 0
1317 1 45.98867179292401 7.584076769545161 1.3476342663338325 0 0 0
1312 1 41.061314100824994 8.532455898633623 0.1169633673039363 0 0 0
1316 1 44.346219228890995 8.532455898633623 0.11696336730393675 0 0 0
1310 1 41.061314100824994 10.428888059472156 1.3476342663338186 0 0 0
1314 1 44.346219228890995 10.428888059472156 1.3476342663338177 0 0 0
1435 1 42.703766664858 11.377267188560655 0.11696336730395282 0 0 0
1439 1 45.98867179292401 11.377267188560653 0.11696336730395429 0 0 0
1201 1 49.27357692099 7.584076769545152 1.3476342663338468 -1 0 0
1320 1 47.63112435695701 8.532455898633621 0.11696336730393989 0 0 0
1204 1 50.91602948502299 8.532455898633621 0.11696336730394033 -1 0 0
1318 1 47.631124356957 10.42888805947216 1.3476342663338179 0 0 0
1202 1 50.91602948502299 10.42888805947216 1.3476342663338152 -1 0 0
1323 1 49.27357692099 11.377267188560658 0.1169633673039399 -1 0 0
1205 1 52.558482049055996 7.584076769545161 1.347634266333833 -1 0 0
1209 1 55.843387177122004 7.58407676954516 1.3476342663338352 -1 0 0
1208 1 54.200934613089004 8.532455898633623 0.11696336730393554 -1 0 0
1212 1 57.485839741155004 8.532455898633623 0.11696336730393658 -1 0 0
1206 1 54.200934613089004 10.428888059472156 1.3476342663338183 -1 0 0
1210 1 57.485839741155004 10.428888059472156 1.3476342663338186 -1 0 0
1327 1 52.558482049055996 11.377267188560653 0.11696336730395418 -1 0 0
1331 1 55.843387177122004 11.377267188560655 0.11696336730395263 -1 0 0
1213 1 59.128292305188005 7.584076769545159 1.3476342663338363 -1 0 0
1217 1 62.41319743325399 7.58407676954516 1.3476342663338354 -1 0 0
1216 1 60.770744869221 8.532455898633625 0.1169633673039332 -1 0 0
1214 1 60.770744869221 10.428888059472156 1.347634266333821 -1 0 0
1335 1 59.128292305188005 11.377267188560655 0.11696336730395208 -1 0 0
1339 1 62.413197433254 11.377267188560657 0.11696336730395111 -1 0 0
1221 1 65.69810256132001 7.584076769545154 1.3476342663338385 -1 0 0
1225 1 68.983007689386 7.584076769545162 1.3476342663338317 -1 0 0
1220 1 64.055649997287 8.532455898633613 0.1169633673039491 -1 0 0
1224 1 67.34055512535302 8.532455898633627 0.11696336730393204 -1 0 0
1218 1 64.055649997287 10.428888059472168 1.3476342663338068 -1 0 0
1222 1 67.34055512535302 10.428888059472154 1.3476342663338228 -1 0 0
1343 1 65.69810256132001 11.37726718856066 0.11696336730394681 -1 0 0
1347 1 68.983007689386 11.377267188560657 0.11696336730394977 -1 0 0
1229 1 72.26791281745199 7.584076769545158 1.3476342663338456 -1 0 0
1228 1 70.625460253419 8.532455898633621 0.1169633673039349 -1 0 0
1232 1 73.910365381485 8.532455898633629 0.11696336730392819 -1 0 0
1226 1 70.62546025341902 10.428888059472156 1.347634266333818 -1 0 0
1230 1 73.910365381485 10.42888805947215 1.34763426633383 -1 0 0
1351 1 72.26791281745199 11.377267188560657 0.11696336730395256 -1 0 0
1233 1 75.55281794551802 7.584076769545189 1.3476342663338041 -1 0 0
1237 1 78.837723073584 7.584076769545136 1.3476342663338707 -1 0 0
1236 1 77.19527050955104 8.532455898633627 0.11696336730393363 -1 0 0
1240 1 80.48017563761697 8.532455898633625 0.1169633673039354 -1 0 0
1234 1 77.19527050955104 10.428888059472154 1.3476342663338206 -1 0 0
1238 1 80.48017563761697 10.428888059472154 1.3476342663338212 -1 0 0
1355 1 75.55281794551802 11.377267188560623 0.11696336730397877 -1 0 0
1359 1 78.837723073584 11.377267188560678 0.11696336730391628 -1 0 0
1241 1 82.12262820165 7.5840767695451925 1.3476342663337966 -1 0 0
1245 1 85.407533329716 7.584076769545134 1.3476342663338727 -1 0 0
1244 1 83.76508076568304 8.532455898633625 0.11696336730393579 -1 0 0
1242 1 83.76508076568304 10.428888059472156 1.3476342663338208 -1 0 0
1363 1 82.12262820165 11.377267188560621 0.11696336730398724 -1 0 0
1367 1 85.407533329716 11.37726718856068 0.11696336730391511 -1 0 0
1249 1 88.692438457782 7.5840767695451925 1.3476342663337963 -1 0 0
1253 1 91.977343585848 7.584076769545136 1.3476342663338712 -1 0 0
1248 1 87.04998589374897 8.532455898633625 0.11696336730393561 -1 0 0
1252 1 90.33489102181504 8.532455898633625 0.1169633673039353 -1 0 0
1246 1 87.04998589374897 10.428888059472156 1.347634266333821 -1 0 0
1250 1 90.33489102181504 10.428888059472154 1.3476342663338212 -1 0 0
1371 1 88.692438457782 11.377267188560621 0.11696336730398729 -1 0 0
1375 1 91.977343585848 11.377267188560678 0.11696336730391715 -1 0 0
1257 1 95.262248713914 7.584076769545191 1.3476342663338026 -1 0 0
1256 1 93.61979614988097 8.532455898633625 0.11696336730393533 -1 0 0
1260 1 96.90470127794703 8.532455898633625 0.11696336730393263 -1 0 0
1254 1 93.61979614988097 10.428888059472154 1.3476342663338219 -1 0 0
1258 1 96.90470127794703 10.428888059472156 1.3476342663338245 -1 0 0
1379 1 95.262248713914 11.377267188560621 0.11696336730398417 -1 0 0
1381 1 1.146288306496321e-14 13.273699349399163 1.3476342663338594 0 0 0
1385 1 3.2849051280659785 13.273699349399186 1.3476342663338312 0 0 0
1384 1 1.6424525640329746 14.22207847848763 0.11696336730392642 0 0 0
1388 1 4.927357692099001 14.222078478487617 0.11696336730393565 0 0 0
1503 1 1.1153833022510518e-14 17.06688976841467 0.11696336730393427 0 0 0
1382 1 1.642452564032977 16.118510639326157 1.3476342663338239 0 0 0
1507 1 3.2849051280659816 17.066889768414647 0.11696336730396194 0 0 0
1386 1 4.927357692099001 16.118510639326157 1.3476342663338092 0 0 0
1389 1 6.569810256132011 13.27369934939918 1.3476342663338448 0 0 0
1393 1 9.854715384198002 13.273699349399186 1.3476342663338394 0 0 0
1392 1 8.212262820165007 14.22207847848763 0.11696336730392615 0 0 0
1396 1 11.497167948231006 14.222078478487623 0.11696336730393103 0 0 0
1511 1 6.56981025613201 17.066889768414654 0.11696336730395418 0 0 0
1390 1 8.212262820165007 16.118510639326157 1.34763426633382 0 0 0
1515 1 9.854715384198002 17.06688976841465 0.11696336730395406 0 0 0
1394 1 11.497167948231002 16.118510639326157 1.3476342663338179 0 0 0
1397 1 13.139620512263997 13.273699349399175 1.3476342663338454 0 0 0
1401 1 16.424525640329993 13.273699349399186 1.347634266333839 0 0 0
1400 1 14.782073076296989 14.222078478487623 0.11696336730393038 0 0 0
1519 1 13.139620512263997 17.066889768414654 0.11696336730395081 0 0 0
1398 1 14.782073076296992 16.118510639326157 1.3476342663338177 0 0 0
1523 1 16.424525640329993 17.06688976841465 0.11696336730395655 0 0 0
1405 1 19.709430768395986 13.27369934939918 1.347634266333844 0 0 0
1409 1 22.994335896461997 13.273699349399186 1.3476342663338268 0 0 0
1404 1 18.066978204362993 14.222078478487626 0.11696336730392733 0 0 0
1408 1 21.351883332428983 14.222078478487628 0.11696336730392895 0 0 0
1402 1 18.066978204362993 16.118510639326157 1.3476342663338192 0 0 0
1527 1 19.709430768395986 17.066889768414654 0.11696336730395188 0 0 0
1406 1 21.351883332428983 16.118510639326157 1.3476342663338194 0 0 0
1531 1 22.994335896461997 17.066889768414644 0.11696336730396567 0 0 0
1413 1 26.27924102452801 13.27369934939918 1.3476342663338436 0 0 0
1412 1 24.636788460495012 14.222078478487628 0.11696336730392906 0 0 0
1416 1 27.921693588561002 14.222078478487626 0.11696336730392659 0 0 0
1410 1 24.636788460495012 16.118510639326157 1.347634266333819 0 0 0
1535 1 26.27924102452801 17.066889768414654 0.11696336730395201 0 0 0
1414 1 27.921693588561002 16.118510639326157 1.3476342663338199 0 0 0
1417 1 29.564146152594 13.273699349399184 1.3476342663338414 0 0 0
1421 1 32.84905128065999 13.273699349399187 1.347634266333835 0 0 0
1420 1 31.20659871662699 14.222078478487632 0.11696336730392302 0 0 0
1424 1 34.49150384469299 14.222078478487626 0.11696336730393071 0 0 0
1539 1 29.564146152594 17.06688976841465 0.1169633673039539 0 0 0
1418 1 31.20659871662699 16.11851063932615 1.3476342663338257 0 0 0
1543 1 32.84905128066 17.066889768414644 0.11696336730395866 0 0 0
1422 1 34.49150384469299 16.118510639326153 1.3476342663338186 0 0 0
1425 1 36.133956408726 13.273699349399182 1.3476342663338405 0 0 0
1429 1 39.418861536792 13.273699349399184 1.3476342663338399 0 0 0
1428 1 37.77640897275899 14.222078478487628 0.11696336730393046 0 0 0
1547 1 36.133956408726 17.066889768414654 0.11696336730395222 0 0 0
1426 1 37.77640897275899 16.118510639326153 1.347634266333819 0 0 0
1551 1 39.418861536792 17.066889768414654 0.11696336730395311 0 0 0
1433 1 42.703766664858 13.273699349399184 1.34763426633384 0 0 0
1437 1 45.98867179292401 13.273699349399186 1.3476342663338374 0 0 0
1432 1 41.061314100824994 14.222078478487628 0.11696336730393042 0 0 0
1436 1 44.346219228890995 14.222078478487628 0.11696336730393055 0 0 0
1430 1 41.061314100824994 16.118510639326153 1.3476342663338192 0 0 0
1555 1 42.703766664858 17.066889768414654 0.11696336730395294 0 0 0
1434 1 44.346219228890995 16.118510639326153 1.3476342663338186 0 0 0
1559 1 45.98867179292401 17.066889768414654 0.11696336730395543 0 0 0
1321 1 49.27357692099 13.27369934939917 1.3476342663338507 -1 0 0
1440 1 47.63112435695701 14.222078478487623 0.11696336730393532 0 0 0
1324 1 50.91602948502299 14.222078478487624 0.11696336730393399 -1 0 0
1438 1 47.631124356957 16.118510639326157 1.3476342663338166 0 0 0
1443 1 49.27357692099 17.066889768414665 0.11696336730394404 -1 0 0
1322 1 50.916029485022996 16.11851063932616 1.347634266333816 -1 0 0
1325 1 52.558482049055996 13.273699349399184 1.347634266333838 -1 0 0
1329 1 55.843387177122004 13.273699349399182 1.347634266333841 -1 0 0
1328 1 54.200934613089004 14.222078478487626 0.11696336730392796 -1 0 0
1332 1 57.485839741155004 14.222078478487626 0.11696336730392876 -1 0 0
1447 1 52.558482049056 17.06688976841465 0.11696336730395444 -1 0 0
1326 1 54.200934613089004 16.11851063932616 1.347634266333818 -1 0 0
1451 1 55.843387177122004 17.066889768414647 0.11696336730395461 -1 0 0
1330 1 57.485839741155004 16.11851063932616 1.347634266333818 -1 0 0
1333 1 59.128292305188005 13.273699349399182 1.3476342663338412 -1 0 0
1337 1 62.41319743325399 13.273699349399182 1.3476342663338434 -1 0 0
1336 1 60.770744869221 14.22207847848763 0.116963367303926 -1 0 0
1455 1 59.128292305188005 17.06688976841465 0.11696336730395397 -1 0 0
1334 1 60.770744869221 16.118510639326157 1.34763426633382 -1 0 0
1459 1 62.41319743325399 17.06688976841465 0.11696336730395225 -1 0 0
1341 1 65.69810256132001 13.273699349399177 1.3476342663338476 -1 0 0
1345 1 68.983007689386 13.273699349399184 1.3476342663338423 -1 0 0
1340 1 64.055649997287 14.22207847848761 0.11696336730393796 -1 0 0
1344 1 67.34055512535302 14.22207847848763 0.11696336730392805 -1 0 0
1338 1 64.055649997287 16.118510639326164 1.3476342663338041 -1 0 0
1463 1 65.69810256132 17.066889768414654 0.11696336730395077 -1 0 0
1342 1 67.34055512535302 16.118510639326157 1.3476342663338206 -1 0 0
1467 1 68.983007689386 17.066889768414654 0.11696336730395346 -1 0 0
1349 1 72.26791281745199 13.27369934939918 1.3476342663338425 -1 0 0
1348 1 70.625460253419 14.22207847848763 0.1169633673039293 -1 0 0
1352 1 73.910365381485 14.222078478487633 0.11696336730392265 -1 0 0
1346 1 70.625460253419 16.118510639326153 1.3476342663338199 -1 0 0
1471 1 72.26791281745199 17.066889768414654 0.11696336730394745 -1 0 0
1350 1 73.910365381485 16.118510639326153 1.347634266333827 -1 0 0
1353 1 75.55281794551802 13.273699349399203 1.3476342663338083 -1 0 0
1357 1 78.837723073584 13.273699349399152 1.3476342663338718 -1 0 0
1356 1 77.19527050955104 14.222078478487632 0.1169633673039322 -1 0 0
1360 1 80.48017563761697 14.22207847848763 0.1169633673039327 -1 0 0
1475 1 75.55281794551802 17.066889768414626 0.11696336730398055 -1 0 0
1354 1 77.19527050955104 16.118510639326157 1.3476342663338228 -1 0 0
1479 1 78.837723073584 17.06688976841467 0.1169633673039153 -1 0 0
1358 1 80.48017563761697 16.11851063932616 1.3476342663338219 -1 0 0
1361 1 82.12262820165 13.273699349399207 1.3476342663338023 -1 0 0
1365 1 85.407533329716 13.273699349399152 1.3476342663338725 -1 0 0
1364 1 83.76508076568304 14.22207847848763 0.11696336730393272 -1 0 0
1483 1 82.12262820165 17.066889768414626 0.11696336730398371 -1 0 0
1362 1 83.76508076568304 16.11851063932616 1.3476342663338217 -1 0 0
1487 1 85.407533329716 17.06688976841467 0.1169633673039151 -1 0 0
1369 1 88.692438457782 13.273699349399207 1.3476342663338023 -1 0 0
1373 1 91.977343585848 13.273699349399152 1.3476342663338723 -1 0 0
1368 1 87.04998589374897 14.22207847848763 0.11696336730393248 -1 0 0
1372 1 90.33489102181504 14.22207847848763 0.1169633673039324 -1 0 0
1366 1 87.04998589374897 16.118510639326157 1.3476342663338219 -1 0 0
1491 1 88.692438457782 17.066889768414626 0.1169633673039839 -1 0 0
1370 1 90.33489102181504 16.118510639326157 1.3476342663338219 -1 0 0
1495 1 91.977343585848 17.066889768414672 0.11696336730391514 -1 0 0
1377 1 95.262248713914 13.273699349399207 1.3476342663338041 -1 0 0
1376 1 93.61979614988097 14.222078478487632 0.11696336730393218 -1 0 0
1380 1 96.90470127794704 14.222078478487628 0.11696336730393023 -1 0 0
1374 1 93.61979614988097 16.118510639326157 1.347634266333822 -1 0 0
1499 1 95.262248713914 17.066889768414626 0.11696336730398216 -1 0 0
1378 1 96.90470127794703 16.118510639326157 1.347634266333821 -1 0 0
1501 1 1.0313184452491666e-14 18.963321929253162 1.3476342663338616 0 0 0
1504 1 1.6424525640329763 19.91170105834162 0.11696336730392543 0 0 0
1505 1 3.284905128065981 18.963321929253187 1.3476342663338368 0 0 0
1508 1 4.927357692099001 19.91170105834161 0.11696336730393471 0 0 0
1623 1 1.1464830980738355e-14 22.756512348268647 0.11696336730392719 0 0 0
1502 1 1.642452564032977 21.808133219180142 1.3476342663338217 0 0 0
1627 1 3.2849051280659816 22.756512348268622 0.11696336730395362 0 0 0
1506 1 4.927357692099001 21.80813321918015 1.3476342663338123 0 0 0
1509 1 6.56981025613201 18.96332192925318 1.3476342663338443 0 0 0
1512 1 8.212262820165007 19.91170105834162 0.11696336730392691 0 0 0
1513 1 9.854715384198004 18.963321929253183 1.3476342663338428 0 0 0
1516 1 11.497167948231004 19.911701058341617 0.11696336730392991 0 0 0
1631 1 6.56981025613201 22.756512348268632 0.11696336730394566 0 0 0
1510 1 8.212262820165007 21.808133219180142 1.3476342663338208 0 0 0
1635 1 9.854715384198004 22.756512348268632 0.11696336730394744 0 0 0
1514 1 11.497167948231004 21.808133219180146 1.3476342663338188 0 0 0
1517 1 13.139620512263997 18.963321929253176 1.3476342663338483 0 0 0
1520 1 14.782073076296992 19.911701058341617 0.11696336730392835 0 0 0
1521 1 16.424525640329993 18.963321929253183 1.3476342663338414 0 0 0
1639 1 13.139620512263997 22.75651234826864 0.11696336730394175 0 0 0
1518 1 14.78207307629699 21.808133219180142 1.347634266333818 0 0 0
1643 1 16.424525640329993 22.75651234826863 0.11696336730394875 0 0 0
1524 1 18.066978204362993 19.911701058341617 0.11696336730392766 0 0 0
1525 1 19.70943076839599 18.963321929253176 1.347634266333847 0 0 0
1528 1 21.351883332428983 19.911701058341617 0.11696336730392662 0 0 0
1529 1 22.994335896461997 18.96332192925319 1.3476342663338323 0 0 0
1522 1 18.066978204362993 21.808133219180142 1.3476342663338186 0 0 0
1647 1 19.709430768395986 22.756512348268636 0.11696336730394477 0 0 0
1526 1 21.351883332428983 21.808133219180142 1.3476342663338188 0 0 0
1651 1 22.994335896461997 22.756512348268625 0.11696336730395802 0 0 0
1532 1 24.636788460495012 19.911701058341617 0.1169633673039265 0 0 0
1533 1 26.27924102452801 18.963321929253176 1.3476342663338465 0 0 0
1536 1 27.921693588561002 19.911701058341617 0.116963367303928 0 0 0
1530 1 24.636788460495012 21.808133219180142 1.347634266333819 0 0 0
1655 1 26.27924102452801 22.756512348268636 0.1169633673039449 0 0 0
1534 1 27.921693588561002 21.808133219180142 1.347634266333819 0 0 0
1537 1 29.564146152594 18.96332192925318 1.347634266333843 0 0 0
1540 1 31.206598716626992 19.911701058341624 0.11696336730392393 0 0 0
1541 1 32.84905128066 18.963321929253183 1.3476342663338365 0 0 0
1544 1 34.49150384469299 19.911701058341617 0.116963367303929 0 0 0
1659 1 29.564146152594 22.756512348268632 0.11696336730394627 0 0 0
1538 1 31.20659871662699 21.80813321918014 1.3476342663338248 0 0 0
1663 1 32.84905128066 22.756512348268625 0.11696336730395389 0 0 0
1542 1 34.49150384469299 21.808133219180142 1.347634266333818 0 0 0
1545 1 36.13395640872601 18.963321929253176 1.347634266333842 0 0 0
1548 1 37.77640897275899 19.911701058341617 0.11696336730392935 0 0 0
1549 1 39.418861536792 18.963321929253176 1.3476342663338414 0 0 0
1667 1 36.13395640872601 22.756512348268632 0.1169633673039464 0 0 0
1546 1 37.77640897275899 21.808133219180142 1.3476342663338188 0 0 0
1671 1 39.418861536792 22.756512348268632 0.11696336730394671 0 0 0
1552 1 41.061314100824994 19.911701058341617 0.11696336730392919 0 0 0
1553 1 42.703766664858 18.963321929253176 1.347634266333842 0 0 0
1556 1 44.346219228890995 19.91170105834162 0.11696336730392919 0 0 0
1557 1 45.98867179292401 18.96332192925318 1.3476342663338414 0 0 0
1550 1 41.061314100824994 21.808133219180142 1.347634266333819 0 0 0
1675 1 42.703766664858 22.756512348268632 0.11696336730394673 0 0 0
1554 1 44.346219228890995 21.808133219180146 1.347634266333818 0 0 0
1679 1 45.98867179292401 22.75651234826863 0.11696336730394932 0 0 0
1560 1 47.631124356957 19.911701058341617 0.11696336730393038 0 0 0
1441 1 49.27357692099 18.96332192925317 1.3476342663338532 -1 0 0
1444 1 50.916029485022996 19.911701058341617 0.11696336730393216 -1 0 0
1558 1 47.631124356957 21.808133219180142 1.3476342663338163 0 0 0
1563 1 49.27357692099 22.75651234826864 0.1169633673039383 -1 0 0
1442 1 50.91602948502299 21.808133219180146 1.3476342663338143 -1 0 0
1445 1 52.558482049056 18.963321929253183 1.347634266333842 -1 0 0
1448 1 54.200934613089004 19.911701058341617 0.11696336730392971 -1 0 0
1449 1 55.843387177122004 18.963321929253183 1.3476342663338425 -1 0 0
1452 1 57.485839741155004 19.911701058341617 0.11696336730393007 -1 0 0
1567 1 52.558482049055996 22.756512348268632 0.11696336730394932 -1 0 0
1446 1 54.200934613089004 21.808133219180146 1.3476342663338183 -1 0 0