LAMMPS data file via write_data, version 29 Aug 2024, timestep = 1, units = metal

5376 atoms
24 atom types

0 99.326984731268 xlo xhi
0 98.30821949552 ylo yhi
-50 50 zlo zhi

Masses

1 95.95
2 95.95
3 95.95
4 95.95
5 95.95
6 95.95
7 95.95
8 95.95
9 127.6
10 127.6
11 127.6
12 127.6
13 127.6
14 127.6
15 127.6
16 127.6
17 127.6
18 127.6
19 127.6
20 127.6
21 127.6
22 127.6
23 127.6
24 127.6

Atoms # atomic

1431 10 1.7736961559152247 1.0240439530781085 0.0007756608604166285 0 0 0
1437 14 5.321088467746227 1.0240439530781091 0.0007756608604161512 0 0 0
1432 2 1.7736961559155529 3.0721318592347813 1.8053197459184946 0 0 0
1438 4 5.321088467746553 3.07213185923478 1.8053197459184946 0 0 0
1434 12 1.5745781361563634e-13 4.096175812313109 0.0007756608604149225 0 0 0
1440 16 3.547392311831159 4.096175812313108 0.0007756608604160904 0 0 0
1443 10 8.868480779577224 1.0240439530781091 0.000775660860416155 0 0 0
1444 2 8.86848077957755 3.0721318592347804 1.8053197459184946 0 0 0
1446 12 7.094784623662157 4.096175812313108 0.0007756608604157937 0 0 0
1452 16 10.642176935493154 4.096175812313108 0.0007756608604155293 0 0 0
1449 14 12.415873091408226 1.0240439530781087 0.0007756608604164536 0 0 0
1455 10 15.96326540323923 1.0240439530781085 0.0007756608604167179 0 0 0
1450 4 12.415873091408551 3.0721318592347813 1.8053197459184946 0 0 0
1456 2 15.963265403239555 3.072131859234781 1.8053197459184946 0 0 0
1458 12 14.189569247324156 4.096175812313108 0.0007756608604159545 0 0 0
1461 14 19.510657715070224 1.0240439530781096 0.0007756608604158134 0 0 0
1467 10 23.058050026901224 1.0240439530781087 0.0007756608604164538 0 0 0
1462 4 19.51065771507055 3.072131859234779 1.8053197459184946 0 0 0
1468 2 23.05805002690155 3.0721318592347813 1.8053197459184946 0 0 0
1464 16 17.736961559155162 4.096175812313108 0.0007756608604164831 0 0 0
1470 12 21.284353870986152 4.096175812313108 0.0007756608604150553 0 0 0
1473 14 26.605442338732228 1.0240439530781085 0.0007756608604167178 0 0 0
1474 4 26.60544233873255 3.072131859234781 1.8053197459184946 0 0 0
1476 16 24.831746182817156 4.096175812313108 0.0007756608604159547 0 0 0
1482 12 28.37913849464816 4.096175812313108 0.0007756608604162186 0 0 0
1479 10 30.152834650563225 1.0240439530781085 0.0007756608604167122 0 0 0
1485 14 33.700226962394225 1.0240439530781098 0.0007756608604155491 0 0 0
1480 2 30.152834650563555 3.072131859234781 1.8053197459184946 0 0 0
1486 4 33.70022696239455 3.072131859234779 1.8053197459184946 0 0 0
1488 16 31.926530806479164 4.096175812313107 0.0007756608604162227 0 0 0
1491 10 37.24761927422523 1.0240439530781087 0.0007756608604164536 0 0 0
1497 14 40.795011586056226 1.0240439530781085 0.0007756608604167179 0 0 0
1492 2 37.24761927422555 3.0721318592347813 1.8053197459184946 0 0 0
1498 4 40.79501158605655 3.072131859234781 1.8053197459184946 0 0 0
1494 12 35.473923118310154 4.096175812313108 0.0007756608604150549 0 0 0
1500 16 39.02131543014116 4.096175812313108 0.0007756608604159545 0 0 0
1503 10 44.34240389788722 1.0240439530781096 0.0007756608604158135 0 0 0
1504 2 44.34240389788755 3.072131859234779 1.8053197459184946 0 0 0
1506 12 42.56870774197216 4.096175812313108 0.0007756608604164834 0 0 0
1512 16 46.11610005380315 4.096175812313108 0.0007756608604150552 0 0 0
1509 14 47.88979620971823 1.0240439530781085 0.0007756608604165856 0 0 0
1347 10 51.437188521549224 1.0240439530781091 0.0007756608604161548 -1 0 0
1510 4 47.88979620971855 3.0721318592347813 1.8053197459184946 0 0 0
1348 2 51.43718852154955 3.07213185923478 1.8053197459184946 -1 0 0
1350 12 49.663492365634156 4.096175812313108 0.0007756608604162186 -1 0 0
1353 14 54.98458083338023 1.0240439530781085 0.0007756608604165839 -1 0 0
1354 4 54.98458083338055 3.0721318592347813 1.8053197459184946 -1 0 0
1356 16 53.21088467746515 4.096175812313108 0.0007756608604161322 -1 0 0
1362 12 56.75827698929616 4.096175812313108 0.0007756608604156576 -1 0 0
1359 10 58.531973145211225 1.0240439530781091 0.000775660860416155 -1 0 0
1365 14 62.07936545704223 1.0240439530781087 0.0007756608604164535 -1 0 0
1360 2 58.53197314521155 3.0721318592347804 1.8053197459184946 -1 0 0
1366 4 62.07936545704255 3.0721318592347813 1.8053197459184946 -1 0 0
1368 16 60.30566930112715 4.096175812313108 0.0007756608604155294 -1 0 0
1374 12 63.85306161295816 4.096175812313107 0.0007756608604162187 -1 0 0
1371 10 65.62675776887323 1.0240439530781096 0.0007756608604158648 -1 0 0
1377 14 69.17415008070422 1.0240439530781085 0.0007756608604167146 -1 0 0
1372 2 65.62675776887355 3.0721318592347786 1.8053197459184946 -1 0 0
1378 4 69.17415008070455 3.0721318592347813 1.8053197459184946 -1 0 0
1380 16 67.40045392478915 4.096175812313108 0.0007756608604164826 -1 0 0
1383 10 72.72154239253523 1.0240439530781087 0.0007756608604164536 -1 0 0
1384 2 72.72154239253555 3.0721318592347813 1.8053197459184946 -1 0 0
1386 12 70.94784623662015 4.096175812313109 0.0007756608604147911 -1 0 0
1392 16 74.49523854845116 4.096175812313108 0.0007756608604159546 -1 0 0
1389 14 76.26893470436623 1.0240439530781085 0.0007756608604167178 -1 0 0
1395 10 79.81632701619722 1.0240439530781085 0.000775660860416712 -1 0 0
1390 4 76.26893470436656 3.072131859234781 1.8053197459184946 -1 0 0
1396 2 79.81632701619755 3.0721318592347813 1.8053197459184946 -1 0 0
1398 12 78.04263086028216 4.096175812313108 0.0007756608604162186 -1 0 0
1404 16 81.59002317211316 4.096175812313108 0.0007756608604151084 -1 0 0
1401 14 83.36371932802822 1.0240439530781098 0.0007756608604155484 -1 0 0
1407 10 86.91111163985923 1.0240439530781087 0.0007756608604164536 -1 0 0
1402 4 83.36371932802855 3.072131859234779 1.8053197459184946 -1 0 0
1408 2 86.91111163985956 3.072131859234781 1.8053197459184946 -1 0 0
1410 12 85.13741548394415 4.096175812313108 0.000775660860416215 -1 0 0
1413 14 90.45850395169023 1.0240439530781098 0.0007756608604156008 -1 0 0
1414 4 90.45850395169055 3.0721318592347786 1.8053197459184946 -1 0 0
1416 16 88.68480779577516 4.096175812313107 0.000775660860416219 -1 0 0
1422 12 92.23220010760615 4.096175812313108 0.0007756608604162202 -1 0 0
1419 10 94.00589626352122 1.0240439530781085 0.0007756608604167454 -1 0 0
1425 14 97.55328857535223 1.0240439530781085 0.0007756608604168461 -1 0 0
1420 2 94.00589626352155 3.072131859234781 1.8053197459184946 -1 0 0
1426 4 97.55328857535255 3.0721318592347813 1.8053197459184946 -1 0 0
1428 16 95.77959241943715 4.096175812313108 0.000775660860416218 -1 0 0
1599 10 1.7736961559152247 7.168307671548106 0.0007756608604168386 0 0 0
1603 3 3.547392311830687 6.14426371846978 1.8053197459184946 0 0 0
1605 14 5.321088467746227 7.168307671548107 0.0007756608604164478 0 0 0
1600 2 1.7736961559155526 9.21639557770478 1.8053197459184946 0 0 0
1606 4 5.321088467746553 9.216395577704779 1.8053197459184946 0 0 0
1602 12 1.5758085422626026e-13 10.240439530783108 0.0007756608604159273 0 0 0
1608 16 3.547392311831159 10.240439530783107 0.0007756608604170917 0 0 0
1609 1 7.0947846236616865 6.144263718469779 1.8053197459184946 0 0 0
1611 10 8.868480779577224 7.168307671548107 0.000775660860416448 0 0 0
1615 3 10.642176935492685 6.14426371846978 1.8053197459184946 0 0 0
1612 2 8.86848077957755 9.216395577704779 1.8053197459184946 0 0 0
1614 12 7.094784623662157 10.240439530783107 0.000775660860416859 0 0 0
1620 16 10.642176935493154 10.240439530783107 0.0007756608604165947 0 0 0
1617 14 12.415873091408226 7.168307671548106 0.0007756608604166807 0 0 0
1621 1 14.18956924732369 6.14426371846978 1.8053197459184946 0 0 0
1623 10 15.96326540323923 7.168307671548106 0.0007756608604169466 0 0 0
1618 4 12.415873091408551 9.21639557770478 1.8053197459184946 0 0 0
1624 2 15.963265403239555 9.21639557770478 1.8053197459184946 0 0 0
1626 12 14.189569247324156 10.240439530783107 0.0007756608604169594 0 0 0
1627 3 17.73696155915469 6.144263718469779 1.8053197459184946 0 0 0
1629 14 19.510657715070224 7.168307671548107 0.0007756608604160553 0 0 0
1633 1 21.284353870985683 6.14426371846978 1.8053197459184946 0 0 0
1635 10 23.058050026901224 7.168307671548106 0.0007756608604166805 0 0 0
1630 4 19.51065771507055 9.216395577704779 1.8053197459184946 0 0 0
1636 2 23.058050026901547 9.21639557770478 1.8053197459184946 0 0 0
1632 16 17.736961559155162 10.240439530783107 0.0007756608604174918 0 0 0
1638 12 21.284353870986152 10.240439530783107 0.0007756608604160653 0 0 0
1639 3 24.831746182816687 6.14426371846978 1.8053197459184946 0 0 0
1641 14 26.605442338732228 7.168307671548106 0.0007756608604169465 0 0 0
1645 1 28.379138494647687 6.144263718469778 1.8053197459184946 0 0 0
1642 4 26.60544233873255 9.21639557770478 1.8053197459184946 0 0 0
1644 16 24.831746182817156 10.240439530783107 0.0007756608604169596 0 0 0
1650 12 28.37913849464816 10.240439530783107 0.0007756608604172255 0 0 0
1647 10 30.152834650563225 7.168307671548106 0.000775660860416871 0 0 0
1653 14 33.700226962394225 7.168307671548107 0.0007756608604157892 0 0 0
1651 3 31.926530806478684 6.14426371846978 1.8053197459184946 0 0 0
1648 2 30.152834650563555 9.21639557770478 1.8053197459184946 0 0 0
1654 4 33.70022696239455 9.216395577704779 1.8053197459184946 0 0 0
1656 16 31.926530806479164 10.240439530783107 0.0007756608604172294 0 0 0
1657 1 35.473923118309685 6.14426371846978 1.8053197459184946 0 0 0
1659 10 37.24761927422523 7.168307671548106 0.0007756608604166804 0 0 0
1663 3 39.02131543014069 6.14426371846978 1.8053197459184946 0 0 0
1665 14 40.79501158605623 7.168307671548106 0.0007756608604169466 0 0 0
1660 2 37.24761927422555 9.21639557770478 1.8053197459184946 0 0 0
1666 4 40.79501158605655 9.21639557770478 1.8053197459184946 0 0 0
1662 12 35.473923118310154 10.240439530783107 0.000775660860416065 0 0 0
1668 16 39.02131543014116 10.240439530783107 0.0007756608604169594 0 0 0
1669 1 42.568707741971686 6.144263718469779 1.8053197459184946 0 0 0
1671 10 44.34240389788722 7.168307671548107 0.0007756608604160556 0 0 0
1675 3 46.11610005380268 6.14426371846978 1.8053197459184946 0 0 0
1672 2 44.34240389788755 9.216395577704779 1.8053197459184946 0 0 0
1674 12 42.56870774197216 10.240439530783107 0.0007756608604174919 0 0 0
1680 16 46.11610005380315 10.240439530783107 0.0007756608604160652 0 0 0
1677 14 47.88979620971823 7.168307671548106 0.0007756608604168163 0 0 0
1513 1 49.66349236563369 6.144263718469779 1.8053197459184946 -1 0 0
1515 10 51.437188521549224 7.168307671548107 0.0007756608604164479 -1 0 0
1678 4 47.88979620971855 9.21639557770478 1.8053197459184946 0 0 0
1516 2 51.43718852154955 9.216395577704779 1.8053197459184946 -1 0 0
1518 12 49.663492365634156 10.240439530783107 0.0007756608604172235 -1 0 0
1519 3 53.21088467746468 6.14426371846978 1.8053197459184946 -1 0 0
1521 14 54.98458083338023 7.168307671548106 0.0007756608604168199 -1 0 0
1525 1 56.75827698929569 6.144263718469779 1.8053197459184946 -1 0 0
1522 4 54.98458083338055 9.21639557770478 1.8053197459184946 -1 0 0
1524 16 53.21088467746515 10.240439530783107 0.0007756608604171177 -1 0 0
1530 12 56.75827698929616 10.240439530783107 0.0007756608604167232 -1 0 0
1527 10 58.531973145211225 7.168307671548107 0.000775660860416448 -1 0 0
1531 3 60.305669301126684 6.14426371846978 1.8053197459184946 -1 0 0
1533 14 62.07936545704223 7.168307671548106 0.0007756608604166805 -1 0 0
1537 1 63.85306161295769 6.144263718469781 1.8053197459184946 -1 0 0
1528 2 58.53197314521155 9.216395577704779 1.8053197459184946 -1 0 0
1534 4 62.07936545704255 9.21639557770478 1.8053197459184946 -1 0 0
1536 16 60.30566930112715 10.240439530783107 0.0007756608604165948 -1 0 0
1542 12 63.85306161295816 10.240439530783107 0.0007756608604172255 -1 0 0
1539 10 65.62675776887323 7.168307671548107 0.0007756608604160291 -1 0 0
1543 3 67.40045392478868 6.144263718469779 1.8053197459184946 -1 0 0
1545 14 69.17415008070422 7.168307671548106 0.0007756608604169539 -1 0 0
1540 2 65.62675776887355 9.216395577704779 1.8053197459184946 -1 0 0
1546 4 69.17415008070455 9.21639557770478 1.8053197459184946 -1 0 0
1548 16 67.40045392478915 10.240439530783107 0.0007756608604174089 -1 0 0
1549 1 70.94784623661968 6.14426371846978 1.8053197459184946 -1 0 0
1551 10 72.72154239253523 7.168307671548106 0.0007756608604166807 -1 0 0
1555 3 74.49523854845069 6.14426371846978 1.8053197459184946 -1 0 0
1552 2 72.72154239253555 9.21639557770478 1.8053197459184946 -1 0 0
1554 12 70.94784623662015 10.240439530783107 0.0007756608604157994 -1 0 0
1560 16 74.49523854845116 10.240439530783107 0.0007756608604169595 -1 0 0
1557 14 76.26893470436623 7.168307671548106 0.0007756608604169465 -1 0 0
1561 1 78.04263086028169 6.144263718469778 1.8053197459184946 -1 0 0
1563 10 79.81632701619722 7.168307671548106 0.0007756608604168707 -1 0 0
1567 3 81.59002317211268 6.14426371846978 1.8053197459184946 -1 0 0
1558 4 76.26893470436656 9.21639557770478 1.8053197459184946 -1 0 0
1564 2 79.81632701619755 9.21639557770478 1.8053197459184946 -1 0 0
1566 12 78.04263086028216 10.240439530783107 0.0007756608604172255 -1 0 0
1572 16 81.59002317211316 10.240439530783107 0.0007756608604160454 -1 0 0
1569 14 83.36371932802822 7.168307671548107 0.0007756608604157824 -1 0 0
1573 1 85.13741548394368 6.144263718469781 1.8053197459184946 -1 0 0
1575 10 86.91111163985923 7.168307671548106 0.0007756608604166806 -1 0 0
1570 4 83.36371932802855 9.216395577704779 1.8053197459184946 -1 0 0
1576 2 86.91111163985956 9.21639557770478 1.8053197459184946 -1 0 0
1578 12 85.13741548394415 10.240439530783107 0.0007756608604172255 -1 0 0
1579 3 88.68480779577469 6.144263718469781 1.8053197459184946 -1 0 0
1581 14 90.45850395169023 7.168307671548107 0.0007756608604157631 -1 0 0
1585 1 92.23220010760569 6.14426371846978 1.8053197459184944 -1 0 0
1582 4 90.45850395169055 9.216395577704779 1.8053197459184946 -1 0 0
1584 16 88.68480779577516 10.240439530783107 0.0007756608604172257 -1 0 0
1590 12 92.23220010760615 10.240439530783107 0.0007756608604171466 -1 0 0
1597 1 99.32698473126769 6.144263718469779 1.8053197459184946 -1 0 0
1587 10 94.00589626352122 7.168307671548106 0.0007756608604169655 -1 0 0
1591 3 95.77959241943668 6.144263718469778 1.8053197459184946 -1 0 0
1593 14 97.55328857535223 7.168307671548106 0.0007756608604170892 -1 0 0
1588 2 94.00589626352155 9.21639557770478 1.8053197459184946 -1 0 0
1594 4 97.55328857535255 9.21639557770478 1.8053197459184946 -1 0 0
1596 16 95.77959241943715 10.240439530783107 0.0007756608604171425 -1 0 0
1767 10 1.7736961559152247 13.312571390018103 0.0007756608604176379 0 0 0
1771 3 3.547392311830687 12.288527436939779 1.8053197459184946 0 0 0
1773 14 5.321088467746227 13.312571390018105 0.0007756608604171654 0 0 0
1768 2 1.7736961559155526 15.360659296174777 1.8053197459184949 0 0 0
1774 4 5.321088467746553 15.360659296174775 1.8053197459184946 0 0 0
1770 12 1.5745897945232593e-13 16.384703249253107 0.0007756608604155307 0 0 0
1776 16 3.547392311831159 16.384703249253107 0.0007756608604167182 0 0 0
1777 1 7.0947846236616865 12.288527436939777 1.8053197459184946 0 0 0
1779 10 8.868480779577224 13.312571390018105 0.0007756608604171693 0 0 0
1783 3 10.642176935492685 12.288527436939779 1.8053197459184946 0 0 0
1780 2 8.86848077957755 15.360659296174775 1.8053197459184946 0 0 0
1782 12 7.094784623662157 16.384703249253107 0.0007756608604163709 0 0 0
1788 16 10.642176935493154 16.384703249253107 0.0007756608604161028 0 0 0
1785 14 12.415873091408226 13.312571390018105 0.0007756608604174638 0 0 0
1789 1 14.18956924732369 12.288527436939779 1.8053197459184946 0 0 0
1791 10 15.96326540323923 13.312571390018103 0.000775660860417728 0 0 0
1786 4 12.415873091408551 15.360659296174777 1.8053197459184946 0 0 0
1792 2 15.963265403239555 15.360659296174775 1.8053197459184946 0 0 0
1794 12 14.189569247324156 16.384703249253107 0.0007756608604165787 0 0 0
1795 3 17.73696155915469 12.288527436939777 1.8053197459184946 0 0 0
1797 14 19.510657715070224 13.312571390018105 0.0007756608604168269 0 0 0
1801 1 21.284353870985683 12.288527436939777 1.8053197459184946 0 0 0
1803 10 23.058050026901224 13.312571390018105 0.0007756608604174638 0 0 0
1798 4 19.51065771507055 15.360659296174774 1.8053197459184946 0 0 0
1804 2 23.05805002690155 15.360659296174777 1.8053197459184946 0 0 0
1800 16 17.736961559155162 16.384703249253107 0.0007756608604171053 0 0 0
1806 12 21.284353870986152 16.384703249253107 0.0007756608604156632 0 0 0
1807 3 24.831746182816687 12.288527436939779 1.8053197459184946 0 0 0
1809 14 26.605442338732228 13.312571390018103 0.0007756608604177279 0 0 0
1813 1 28.379138494647687 12.288527436939777 1.8053197459184946 0 0 0
1810 4 26.60544233873255 15.360659296174775 1.8053197459184946 0 0 0
1812 16 24.831746182817156 16.384703249253107 0.0007756608604165788 0 0 0
1818 12 28.37913849464816 16.384703249253107 0.0007756608604168408 0 0 0
1815 10 30.152834650563225 13.312571390018103 0.0007756608604177245 0 0 0
1821 14 33.700226962394225 13.312571390018105 0.0007756608604165626 0 0 0
1819 3 31.926530806478684 12.288527436939779 1.8053197459184946 0 0 0
1816 2 30.152834650563555 15.360659296174775 1.8053197459184949 0 0 0
1822 4 33.70022696239455 15.360659296174774 1.8053197459184946 0 0 0
1824 16 31.926530806479164 16.384703249253107 0.000775660860416843 0 0 0
1825 1 35.473923118309685 12.288527436939777 1.8053197459184946 0 0 0
1827 10 37.24761927422523 13.312571390018105 0.0007756608604174636 0 0 0
1831 3 39.02131543014069 12.288527436939779 1.8053197459184946 0 0 0
1833 14 40.795011586056226 13.312571390018103 0.000775660860417728 0 0 0
1828 2 37.24761927422555 15.360659296174777 1.8053197459184946 0 0 0
1834 4 40.79501158605655 15.360659296174775 1.8053197459184946 0 0 0
1830 12 35.473923118310154 16.384703249253107 0.0007756608604156629 0 0 0
1836 16 39.02131543014116 16.384703249253107 0.0007756608604165785 0 0 0
1837 1 42.568707741971686 12.288527436939777 1.8053197459184946 0 0 0
1839 10 44.34240389788722 13.312571390018105 0.0007756608604168272 0 0 0
1843 3 46.11610005380268 12.288527436939777 1.8053197459184946 0 0 0
1840 2 44.34240389788755 15.360659296174774 1.8053197459184946 0 0 0
1842 12 42.56870774197216 16.384703249253107 0.0007756608604171056 0 0 0
1848 16 46.11610005380315 16.384703249253107 0.000775660860415663 0 0 0
1845 14 47.88979620971823 13.312571390018103 0.0007756608604175956 0 0 0
1681 1 49.66349236563369 12.288527436939777 1.8053197459184946 -1 0 0
1683 10 51.437188521549224 13.312571390018105 0.0007756608604171691 -1 0 0
1846 4 47.88979620971855 15.360659296174777 1.8053197459184946 0 0 0
1684 2 51.43718852154955 15.360659296174775 1.8053197459184946 -1 0 0
1686 12 49.663492365634156 16.384703249253107 0.0007756608604168465 -1 0 0
1687 3 53.21088467746468 12.288527436939779 1.8053197459184946 -1 0 0
1689 14 54.98458083338023 13.312571390018103 0.0007756608604175994 -1 0 0
1693 1 56.75827698929569 12.288527436939777 1.8053197459184946 -1 0 0
1690 4 54.98458083338055 15.360659296174777 1.8053197459184946 -1 0 0
1692 16 53.21088467746515 16.384703249253107 0.0007756608604167422 -1 0 0
1698 12 56.75827698929616 16.384703249253107 0.0007756608604162349 -1 0 0
1695 10 58.531973145211225 13.312571390018105 0.0007756608604171693 -1 0 0
1699 3 60.305669301126684 12.288527436939779 1.8053197459184946 -1 0 0
1701 14 62.07936545704223 13.312571390018105 0.0007756608604174636 -1 0 0
1705 1 63.85306161295769 12.288527436939779 1.8053197459184946 -1 0 0
1696 2 58.53197314521155 15.360659296174775 1.8053197459184946 -1 0 0
1702 4 62.07936545704255 15.360659296174777 1.8053197459184946 -1 0 0
1704 16 60.30566930112715 16.384703249253107 0.0007756608604161029 -1 0 0
1710 12 63.85306161295816 16.384703249253107 0.0007756608604168428 -1 0 0
1707 10 65.62675776887323 13.312571390018105 0.000775660860416878 -1 0 0
1711 3 67.40045392478868 12.288527436939777 1.8053197459184946 -1 0 0
1713 14 69.17415008070422 13.312571390018103 0.0007756608604177277 -1 0 0
1708 2 65.62675776887355 15.360659296174774 1.8053197459184949 -1 0 0
1714 4 69.17415008070455 15.360659296174777 1.8053197459184946 -1 0 0
1716 16 67.40045392478915 16.384703249253107 0.0007756608604171124 -1 0 0
1717 1 70.94784623661968 12.288527436939777 1.8053197459184946 -1 0 0
1719 10 72.72154239253523 13.312571390018105 0.0007756608604174638 -1 0 0
1723 3 74.49523854845069 12.288527436939779 1.8053197459184946 -1 0 0
1720 2 72.72154239253555 15.360659296174777 1.8053197459184946 -1 0 0
1722 12 70.94784623662015 16.384703249253107 0.0007756608604153989 -1 0 0
1728 16 74.49523854845116 16.384703249253107 0.0007756608604165787 -1 0 0
1725 14 76.26893470436623 13.312571390018103 0.0007756608604177278 -1 0 0
1729 1 78.04263086028169 12.288527436939777 1.8053197459184946 -1 0 0
1731 10 79.81632701619722 13.312571390018103 0.0007756608604177244 -1 0 0
1735 3 81.59002317211268 12.288527436939777 1.8053197459184946 -1 0 0
1726 4 76.26893470436656 15.360659296174775 1.8053197459184946 -1 0 0
1732 2 79.81632701619755 15.360659296174777 1.8053197459184949 -1 0 0
1734 12 78.04263086028216 16.384703249253107 0.0007756608604168409 -1 0 0
1740 16 81.59002317211316 16.384703249253107 0.0007756608604157753 -1 0 0
1737 14 83.36371932802822 13.312571390018105 0.0007756608604165611 -1 0 0
1741 1 85.13741548394368 12.288527436939779 1.8053197459184946 -1 0 0
1743 10 86.91111163985923 13.312571390018105 0.0007756608604174638 -1 0 0
1738 4 83.36371932802855 15.360659296174774 1.8053197459184946 -1 0 0
1744 2 86.91111163985956 15.360659296174775 1.8053197459184946 -1 0 0
1746 12 85.13741548394415 16.384703249253107 0.0007756608604168409 -1 0 0
1747 3 88.68480779577469 12.288527436939779 1.8053197459184946 -1 0 0
1749 14 90.45850395169023 13.312571390018105 0.0007756608604166141 -1 0 0
1753 1 92.23220010760569 12.288527436939779 1.8053197459184944 -1 0 0
1750 4 90.45850395169055 15.360659296174774 1.8053197459184949 -1 0 0
1752 16 88.68480779577516 16.384703249253107 0.000775660860416843 -1 0 0
1758 12 92.23220010760615 16.384703249253107 0.00077566086041685 -1 0 0
1765 1 99.32698473126769 12.288527436939777 1.8053197459184946 -1 0 0
1755 10 94.00589626352122 13.312571390018103 0.0007756608604177607 -1 0 0
1759 3 95.77959241943668 12.288527436939777 1.8053197459184946 -1 0 0
1761 14 97.55328857535223 13.312571390018103 0.0007756608604178592 -1 0 0
1756 2 94.00589626352155 15.360659296174775 1.8053197459184946 -1 0 0
1762 4 97.55328857535255 15.360659296174777 1.8053197459184946 -1 0 0
1764 16 95.77959241943715 16.384703249253107 0.0007756608604168478 -1 0 0
1935 10 1.7736961559152247 19.456835108488107 0.0007756608604167417 0 0 0
1939 3 3.547392311830687 18.432791155409777 1.8053197459184946 0 0 0
1941 14 5.321088467746227 19.456835108488107 0.000775660860416238 0 0 0
1936 2 1.7736961559155526 21.504923014644778 1.8053197459184946 0 0 0
1942 4 5.321088467746553 21.504923014644778 1.8053197459184946 0 0 0
1938 12 1.5745897945232593e-13 22.528966967723107 0.0007756608604155307 0 0 0
1944 16 3.547392311831159 22.528966967723107 0.0007756608604167182 0 0 0
1945 1 7.0947846236616865 18.432791155409777 1.8053197459184946 0 0 0
1947 10 8.868480779577224 19.456835108488107 0.0007756608604162382 0 0 0
1951 3 10.642176935492685 18.432791155409777 1.8053197459184946 0 0 0
1948 2 8.86848077957755 21.504923014644778 1.8053197459184946 0 0 0
1950 12 7.094784623662157 22.528966967723107 0.0007756608604163707 0 0 0
1956 16 10.642176935493154 22.528966967723107 0.0007756608604161027 0 0 0
1953 14 12.415873091408226 19.456835108488107 0.0007756608604165755 0 0 0
1957 1 14.18956924732369 18.432791155409777 1.8053197459184949 0 0 0
1959 10 15.96326540323923 19.456835108488107 0.0007756608604168396 0 0 0
1954 4 12.415873091408551 21.504923014644778 1.8053197459184949 0 0 0
1960 2 15.963265403239555 21.504923014644778 1.8053197459184949 0 0 0
1962 12 14.189569247324156 22.528966967723107 0.0007756608604165785 0 0 0
1963 3 17.73696155915469 18.432791155409774 1.8053197459184949 0 0 0
1965 14 19.510657715070224 19.456835108488107 0.0007756608604159282 0 0 0
1969 1 21.284353870985683 18.432791155409777 1.8053197459184949 0 0 0
1971 10 23.058050026901224 19.456835108488107 0.0007756608604165754 0 0 0
1966 4 19.51065771507055 21.504923014644774 1.8053197459184949 0 0 0
1972 2 23.05805002690155 21.504923014644778 1.8053197459184949 0 0 0
1968 16 17.736961559155162 22.528966967723107 0.0007756608604171053 0 0 0
1974 12 21.284353870986152 22.528966967723107 0.0007756608604156632 0 0 0
1975 3 24.831746182816687 18.432791155409777 1.8053197459184949 0 0 0
1977 14 26.605442338732228 19.456835108488107 0.0007756608604168395 0 0 0
1981 1 28.379138494647687 18.432791155409774 1.8053197459184949 0 0 0
1978 4 26.60544233873255 21.504923014644778 1.8053197459184949 0 0 0
1980 16 24.831746182817156 22.528966967723107 0.0007756608604165788 0 0 0
1986 12 28.37913849464816 22.528966967723107 0.0007756608604168408 0 0 0
1983 10 30.152834650563225 19.456835108488107 0.0007756608604168496 0 0 0
1989 14 33.700226962394225 19.456835108488107 0.0007756608604156641 0 0 0
1987 3 31.926530806478684 18.432791155409777 1.8053197459184946 0 0 0
1984 2 30.152834650563555 21.504923014644778 1.8053197459184949 0 0 0
1990 4 33.70022696239455 21.504923014644774 1.8053197459184949 0 0 0
1992 16 31.926530806479164 22.528966967723107 0.0007756608604168429 0 0 0
1993 1 35.473923118309685 18.432791155409777 1.8053197459184949 0 0 0
1995 10 37.24761927422523 19.456835108488107 0.0007756608604165753 0 0 0
1999 3 39.02131543014069 18.432791155409777 1.8053197459184949 0 0 0
2001 14 40.795011586056226 19.456835108488107 0.0007756608604168396 0 0 0
1996 2 37.24761927422555 21.504923014644778 1.8053197459184949 0 0 0
2002 4 40.79501158605655 21.504923014644778 1.8053197459184949 0 0 0
1998 12 35.473923118310154 22.528966967723107 0.0007756608604156627 0 0 0
2004 16 39.02131543014116 22.528966967723107 0.0007756608604165785 0 0 0
2005 1 42.568707741971686 18.432791155409774 1.8053197459184949 0 0 0
2007 10 44.34240389788722 19.456835108488107 0.0007756608604159286 0 0 0
2011 3 46.11610005380268 18.432791155409777 1.8053197459184949 0 0 0
2008 2 44.34240389788755 21.504923014644774 1.8053197459184949 0 0 0
2010 12 42.56870774197216 22.528966967723107 0.0007756608604171055 0 0 0
2016 16 46.11610005380315 22.528966967723107 0.0007756608604156629 0 0 0
2013 14 47.88979620971823 19.456835108488107 0.0007756608604167111 0 0 0
1849 1 49.66349236563369 18.432791155409777 1.8053197459184946 -1 0 0
1851 10 51.437188521549224 19.456835108488107 0.0007756608604162382 -1 0 0
2014 4 47.88979620971855 21.504923014644778 1.8053197459184949 0 0 0
1852 2 51.43718852154955 21.504923014644778 1.8053197459184946 -1 0 0
1854 12 49.663492365634156 22.528966967723107 0.0007756608604168465 -1 0 0
1855 3 53.21088467746468 18.432791155409777 1.8053197459184946 -1 0 0
1857 14 54.98458083338023 19.456835108488107 0.0007756608604167182 -1 0 0
1861 1 56.75827698929569 18.432791155409777 1.8053197459184946 -1 0 0
1858 4 54.98458083338055 21.504923014644778 1.8053197459184946 -1 0 0
1860 16 53.21088467746515 22.528966967723107 0.0007756608604167419 -1 0 0
1866 12 56.75827698929616 22.528966967723107 0.0007756608604162349 -1 0 0
1863 10 58.531973145211225 19.456835108488107 0.0007756608604162382 -1 0 0
1867 3 60.305669301126684 18.432791155409777 1.8053197459184946 -1 0 0
1869 14 62.07936545704223 19.456835108488107 0.0007756608604165753 -1 0 0
1873 1 63.85306161295769 18.432791155409777 1.8053197459184949 -1 0 0
1864 2 58.53197314521155 21.504923014644778 1.8053197459184946 -1 0 0
1870 4 62.07936545704255 21.504923014644778 1.8053197459184949 -1 0 0
1872 16 60.30566930112715 22.528966967723107 0.0007756608604161028 -1 0 0
1878 12 63.85306161295816 22.528966967723107 0.0007756608604168428 -1 0 0
1875 10 65.62675776887323 19.456835108488107 0.0007756608604160366 -1 0 0
1879 3 67.40045392478868 18.432791155409774 1.8053197459184946 -1 0 0
1881 14 69.17415008070422 19.456835108488107 0.0007756608604168412 -1 0 0
1876 2 65.62675776887355 21.504923014644774 1.8053197459184949 -1 0 0
1882 4 69.17415008070455 21.504923014644778 1.8053197459184946 -1 0 0
1884 16 67.40045392478915 22.528966967723107 0.0007756608604171123 -1 0 0
1885 1 70.94784623661968 18.432791155409777 1.8053197459184949 -1 0 0
1887 10 72.72154239253523 19.456835108488107 0.0007756608604165755 -1 0 0
1891 3 74.49523854845069 18.432791155409777 1.8053197459184949 -1 0 0
1888 2 72.72154239253555 21.504923014644778 1.8053197459184949 -1 0 0
1890 12 70.94784623662015 22.528966967723107 0.0007756608604153988 -1 0 0
1896 16 74.49523854845116 22.528966967723107 0.0007756608604165787 -1 0 0
1893 14 76.26893470436623 19.456835108488107 0.0007756608604168395 -1 0 0
1897 1 78.04263086028169 18.432791155409774 1.8053197459184949 -1 0 0
1899 10 79.81632701619722 19.456835108488107 0.0007756608604168495 -1 0 0
1903 3 81.59002317211268 18.432791155409777 1.8053197459184946 -1 0 0
1894 4 76.26893470436656 21.504923014644778 1.8053197459184949 -1 0 0
1900 2 79.81632701619755 21.504923014644778 1.8053197459184949 -1 0 0
1902 12 78.04263086028216 22.528966967723107 0.0007756608604168409 -1 0 0
1908 16 81.59002317211316 22.528966967723107 0.0007756608604157752 -1 0 0
1905 14 83.36371932802822 19.456835108488107 0.0007756608604156591 -1 0 0
1909 1 85.13741548394368 18.432791155409777 1.8053197459184949 -1 0 0
1911 10 86.91111163985923 19.456835108488107 0.0007756608604165755 -1 0 0
1906 4 83.36371932802855 21.504923014644774 1.8053197459184946 -1 0 0
1912 2 86.91111163985956 21.504923014644778 1.8053197459184949 -1 0 0
1914 12 85.13741548394415 22.528966967723107 0.0007756608604168408 -1 0 0
1915 3 88.68480779577469 18.432791155409777 1.8053197459184949 -1 0 0
1917 14 90.45850395169023 19.456835108488107 0.0007756608604157743 -1 0 0
1921 1 92.23220010760569 18.432791155409777 1.8053197459184946 -1 0 0
1918 4 90.45850395169055 21.504923014644774 1.8053197459184949 -1 0 0
1920 16 88.68480779577516 22.528966967723107 0.0007756608604168429 -1 0 0
1926 12 92.23220010760615 22.528966967723107 0.00077566086041685 -1 0 0