LAMMPS data file via write_data, version 29 Aug 2024, timestep = 1, units = metal

8064 atoms
36 atom types

0 99.326984731268 xlo xhi
0 98.30821949552 ylo yhi
-50 50 zlo zhi

Masses

1 95.95
2 95.95
3 95.95
4 95.95
5 95.95
6 95.95
7 95.95
8 95.95
9 95.95
10 95.95
11 95.95
12 95.95
13 127.6
14 127.6
15 127.6
16 127.6
17 127.6
18 127.6
19 127.6
20 127.6
21 127.6
22 127.6
23 127.6
24 127.6
25 127.6
26 127.6
27 127.6
28 127.6
29 127.6
30 127.6
31 127.6
32 127.6
33 127.6
34 127.6
35 127.6
36 127.6

Atoms # atomic

1431 14 1.773696155915232 1.024043953078112 0.000800756417085232 0 0 0
1437 18 5.321088467746234 1.0240439530781127 0.0008007564170847393 0 0 0
1432 2 1.7736961559155382 3.072131859234774 1.8053268555284179 0 0 0
1438 4 5.321088467746539 3.072131859234773 1.8053268555284179 0 0 0
1434 16 1.6255216823136772e-13 4.0961758123131125 0.000800756417083471 0 0 0
1440 20 3.547392311831164 4.096175812313112 0.0008007564170846767 0 0 0
1443 14 8.868480779577231 1.0240439530781127 0.0008007564170847433 0 0 0
1444 2 8.868480779577537 3.0721318592347733 1.8053268555284179 0 0 0
1446 16 7.094784623662163 4.096175812313112 0.0008007564170843702 0 0 0
1452 20 10.64217693549316 4.096175812313112 0.0008007564170840973 0 0 0
1449 18 12.415873091408233 1.0240439530781122 0.0008007564170850515 0 0 0
1455 14 15.963265403239237 1.024043953078112 0.0008007564170853244 0 0 0
1450 4 12.415873091408537 3.072131859234774 1.8053268555284179 0 0 0
1456 2 15.963265403239541 3.0721318592347737 1.8053268555284179 0 0 0
1458 16 14.189569247324162 4.096175812313112 0.0008007564170845363 0 0 0
1461 18 19.51065771507023 1.0240439530781131 0.0008007564170843906 0 0 0
1467 14 23.05805002690123 1.0240439530781122 0.0008007564170850517 0 0 0
1462 4 19.510657715070536 3.072131859234772 1.8053268555284179 0 0 0
1468 2 23.058050026901533 3.072131859234774 1.8053268555284179 0 0 0
1464 20 17.736961559155166 4.096175812313112 0.000800756417085082 0 0 0
1470 16 21.28435387098616 4.096175812313112 0.000800756417083608 0 0 0
1473 18 26.605442338732235 1.024043953078112 0.0008007564170853242 0 0 0
1474 4 26.605442338732537 3.0721318592347737 1.8053268555284179 0 0 0
1476 20 24.83174618281716 4.096175812313112 0.0008007564170845365 0 0 0
1482 16 28.379138494648164 4.096175812313112 0.000800756417084809 0 0 0
1479 14 30.152834650563232 1.024043953078112 0.0008007564170853186 0 0 0
1485 18 33.70022696239423 1.0240439530781134 0.0008007564170841178 0 0 0
1480 2 30.15283465056354 3.0721318592347737 1.8053268555284179 0 0 0
1486 4 33.70022696239454 3.072131859234772 1.8053268555284179 0 0 0
1488 20 31.926530806479168 4.096175812313111 0.0008007564170848132 0 0 0
1491 14 37.24761927422524 1.0240439530781122 0.0008007564170850515 0 0 0
1497 18 40.79501158605624 1.024043953078112 0.0008007564170853244 0 0 0
1492 2 37.247619274225535 3.072131859234774 1.8053268555284179 0 0 0
1498 4 40.79501158605654 3.0721318592347737 1.8053268555284179 0 0 0
1494 16 35.47392311831016 4.096175812313112 0.0008007564170836076 0 0 0
1500 20 39.021315430141165 4.096175812313112 0.0008007564170845362 0 0 0
1503 14 44.34240389788723 1.0240439530781131 0.0008007564170843908 0 0 0
1504 2 44.342403897887536 3.072131859234772 1.8053268555284179 0 0 0
1506 16 42.56870774197216 4.096175812313112 0.0008007564170850823 0 0 0
1512 20 46.11610005380316 4.096175812313112 0.0008007564170836079 0 0 0
1509 18 47.889796209718234 1.024043953078112 0.0008007564170851878 0 0 0
1347 14 51.43718852154923 1.0240439530781127 0.0008007564170847432 -1 0 0
1510 4 47.88979620971853 3.072131859234774 1.8053268555284179 0 0 0
1348 2 51.43718852154954 3.072131859234773 1.8053268555284179 -1 0 0
1350 16 49.66349236563416 4.096175812313112 0.000800756417084809 -1 0 0
1353 18 54.984580833380235 1.024043953078112 0.0008007564170851861 -1 0 0
1354 4 54.984580833380534 3.072131859234774 1.8053268555284179 -1 0 0
1356 20 53.21088467746516 4.096175812313111 0.0008007564170847198 -1 0 0
1362 16 56.758276989296164 4.096175812313112 0.0008007564170842298 -1 0 0
1359 14 58.53197314521123 1.0240439530781127 0.0008007564170847433 -1 0 0
1365 18 62.079365457042236 1.0240439530781122 0.0008007564170850514 -1 0 0
1360 2 58.53197314521154 3.0721318592347733 1.8053268555284179 -1 0 0
1366 4 62.079365457042535 3.072131859234774 1.8053268555284179 -1 0 0
1368 20 60.30566930112716 4.096175812313112 0.0008007564170840974 -1 0 0
1374 16 63.85306161295816 4.096175812313111 0.0008007564170848091 -1 0 0
1371 14 65.62675776887323 1.0240439530781131 0.0008007564170844437 -1 0 0
1377 18 69.17415008070422 1.024043953078112 0.0008007564170853209 -1 0 0
1372 2 65.62675776887353 3.0721318592347715 1.8053268555284179 -1 0 0
1378 4 69.17415008070454 3.072131859234774 1.8053268555284179 -1 0 0
1380 20 67.40045392478916 4.096175812313112 0.0008007564170850814 -1 0 0
1383 14 72.72154239253523 1.0240439530781122 0.0008007564170850516 -1 0 0
1384 2 72.72154239253554 3.072131859234774 1.8053268555284179 -1 0 0
1386 16 70.94784623662015 4.0961758123131125 0.0008007564170833352 -1 0 0
1392 20 74.49523854845116 4.096175812313112 0.0008007564170845364 -1 0 0
1389 18 76.26893470436623 1.024043953078112 0.0008007564170853243 -1 0 0
1395 14 79.81632701619723 1.024043953078112 0.0008007564170853182 -1 0 0
1390 4 76.26893470436654 3.0721318592347737 1.8053268555284179 -1 0 0
1396 2 79.81632701619753 3.072131859234774 1.8053268555284179 -1 0 0
1398 16 78.04263086028216 4.096175812313112 0.000800756417084809 -1 0 0
1404 20 81.59002317211316 4.096175812313112 0.0008007564170836628 -1 0 0
1401 18 83.36371932802822 1.0240439530781134 0.0008007564170841172 -1 0 0
1407 14 86.91111163985923 1.0240439530781122 0.0008007564170850515 -1 0 0
1402 4 83.36371932802854 3.072131859234772 1.8053268555284179 -1 0 0
1408 2 86.91111163985954 3.0721318592347737 1.8053268555284179 -1 0 0
1410 16 85.13741548394415 4.096175812313111 0.0008007564170848053 -1 0 0
1413 18 90.45850395169023 1.0240439530781134 0.0008007564170841711 -1 0 0
1414 4 90.45850395169053 3.0721318592347715 1.8053268555284179 -1 0 0
1416 20 88.68480779577516 4.096175812313111 0.0008007564170848093 -1 0 0
1422 16 92.23220010760616 4.096175812313111 0.0008007564170848106 -1 0 0
1419 14 94.00589626352124 1.024043953078112 0.0008007564170853528 -1 0 0
1425 18 97.55328857535223 1.024043953078112 0.0008007564170854568 -1 0 0
1420 2 94.00589626352154 3.0721318592347737 1.8053268555284179 -1 0 0
1426 4 97.55328857535254 3.072131859234774 1.8053268555284179 -1 0 0
1428 20 95.77959241943717 4.096175812313112 0.0008007564170848083 -1 0 0
1599 14 1.773696155915232 7.16830767154811 0.0008007564170854491 0 0 0
1603 3 3.5473923118306767 6.144263718469774 1.8053268555284179 0 0 0
1605 18 5.321088467746234 7.168307671548111 0.0008007564170850456 0 0 0
1600 2 1.7736961559155382 9.216395577704773 1.8053268555284179 0 0 0
1606 4 5.321088467746539 9.216395577704771 1.8053268555284179 0 0 0
1602 16 1.6267918967017832e-13 10.24043953078311 0.0008007564170845081 0 0 0
1608 20 3.547392311831164 10.24043953078311 0.0008007564170857103 0 0 0
1609 1 7.094784623661677 6.144263718469773 1.8053268555284179 0 0 0
1611 14 8.868480779577231 7.168307671548111 0.0008007564170850458 0 0 0
1615 3 10.642176935492676 6.144263718469773 1.8053268555284179 0 0 0
1612 2 8.868480779577537 9.216395577704773 1.8053268555284179 0 0 0
1614 16 7.094784623662163 10.24043953078311 0.0008007564170854701 0 0 0
1620 20 10.64217693549316 10.24043953078311 0.0008007564170851971 0 0 0
1617 18 12.415873091408233 7.16830767154811 0.0008007564170852859 0 0 0
1621 1 14.18956924732368 6.144263718469773 1.8053268555284179 0 0 0
1623 14 15.963265403239237 7.16830767154811 0.0008007564170855605 0 0 0
1618 4 12.415873091408537 9.216395577704773 1.8053268555284179 0 0 0
1624 2 15.96326540323954 9.216395577704773 1.8053268555284179 0 0 0
1626 16 14.189569247324162 10.24043953078311 0.0008007564170855737 0 0 0
1627 3 17.73696155915468 6.144263718469772 1.8053268555284179 0 0 0
1629 18 19.51065771507023 7.168307671548111 0.0008007564170846404 0 0 0
1633 1 21.284353870985672 6.144263718469773 1.8053268555284179 0 0 0
1635 14 23.05805002690123 7.16830767154811 0.0008007564170852857 0 0 0
1630 4 19.510657715070536 9.216395577704771 1.8053268555284179 0 0 0
1636 2 23.058050026901533 9.216395577704773 1.8053268555284179 0 0 0
1632 20 17.736961559155166 10.24043953078311 0.0008007564170861232 0 0 0
1638 16 21.28435387098616 10.24043953078311 0.0008007564170846507 0 0 0
1639 3 24.831746182816676 6.144263718469773 1.8053268555284179 0 0 0
1641 18 26.605442338732235 7.16830767154811 0.0008007564170855604 0 0 0
1645 1 28.379138494647677 6.144263718469771 1.8053268555284179 0 0 0
1642 4 26.605442338732537 9.216395577704773 1.8053268555284179 0 0 0
1644 20 24.83174618281716 10.24043953078311 0.000800756417085574 0 0 0
1650 16 28.379138494648164 10.24043953078311 0.0008007564170858484 0 0 0
1647 14 30.152834650563232 7.16830767154811 0.0008007564170854824 0 0 0
1653 18 33.70022696239423 7.168307671548111 0.0008007564170843656 0 0 0
1651 3 31.926530806478674 6.144263718469774 1.8053268555284179 0 0 0
1648 2 30.15283465056354 9.216395577704773 1.8053268555284179 0 0 0
1654 4 33.70022696239454 9.216395577704771 1.8053268555284179 0 0 0
1656 20 31.926530806479168 10.24043953078311 0.0008007564170858524 0 0 0
1657 1 35.47392311830968 6.144263718469773 1.8053268555284179 0 0 0
1659 14 37.24761927422524 7.16830767154811 0.0008007564170852857 0 0 0
1663 3 39.02131543014068 6.144263718469773 1.8053268555284179 0 0 0
1665 18 40.79501158605624 7.16830767154811 0.0008007564170855605 0 0 0
1660 2 37.247619274225535 9.216395577704773 1.8053268555284179 0 0 0
1666 4 40.79501158605654 9.216395577704773 1.8053268555284179 0 0 0
1662 16 35.47392311831016 10.24043953078311 0.0008007564170846503 0 0 0
1668 20 39.021315430141165 10.24043953078311 0.0008007564170855737 0 0 0
1669 1 42.56870774197168 6.144263718469772 1.8053268555284179 0 0 0
1671 14 44.34240389788723 7.168307671548111 0.0008007564170846406 0 0 0
1675 3 46.116100053802676 6.144263718469773 1.8053268555284179 0 0 0
1672 2 44.342403897887536 9.216395577704771 1.8053268555284179 0 0 0
1674 16 42.56870774197216 10.24043953078311 0.0008007564170861235 0 0 0
1680 20 46.11610005380316 10.24043953078311 0.0008007564170846506 0 0 0
1677 18 47.889796209718234 7.16830767154811 0.0008007564170854259 0 0 0
1513 1 49.66349236563367 6.144263718469773 1.8053268555284179 -1 0 0
1515 14 51.43718852154923 7.168307671548111 0.0008007564170850457 -1 0 0
1678 4 47.88979620971853 9.216395577704773 1.8053268555284179 0 0 0
1516 2 51.43718852154954 9.216395577704771 1.8053268555284179 -1 0 0
1518 16 49.66349236563416 10.24043953078311 0.0008007564170858465 -1 0 0
1519 3 53.210884677464676 6.144263718469774 1.8053268555284179 -1 0 0
1521 18 54.984580833380235 7.16830767154811 0.0008007564170854297 -1 0 0
1525 1 56.75827698929567 6.144263718469772 1.8053268555284179 -1 0 0
1522 4 54.984580833380534 9.216395577704773 1.8053268555284179 -1 0 0
1524 20 53.21088467746516 10.24043953078311 0.0008007564170857372 -1 0 0
1530 16 56.758276989296164 10.24043953078311 0.0008007564170853298 -1 0 0
1527 14 58.53197314521123 7.168307671548111 0.0008007564170850458 -1 0 0
1531 3 60.30566930112668 6.144263718469773 1.8053268555284179 -1 0 0
1533 18 62.079365457042236 7.16830767154811 0.0008007564170852857 -1 0 0
1537 1 63.85306161295768 6.144263718469774 1.8053268555284179 -1 0 0
1528 2 58.53197314521154 9.216395577704773 1.8053268555284179 -1 0 0
1534 4 62.079365457042535 9.216395577704773 1.8053268555284179 -1 0 0
1536 20 60.30566930112716 10.24043953078311 0.0008007564170851973 -1 0 0
1542 16 63.853061612958165 10.24043953078311 0.0008007564170858484 -1 0 0
1539 14 65.62675776887323 7.168307671548111 0.0008007564170846133 -1 0 0
1543 3 67.40045392478868 6.144263718469772 1.8053268555284179 -1 0 0
1545 18 69.17415008070422 7.16830767154811 0.000800756417085568 -1 0 0
1540 2 65.62675776887353 9.216395577704771 1.8053268555284179 -1 0 0
1546 4 69.17415008070454 9.216395577704773 1.8053268555284179 -1 0 0
1548 20 67.40045392478916 10.24043953078311 0.0008007564170860378 -1 0 0
1549 1 70.94784623661967 6.144263718469773 1.8053268555284179 -1 0 0
1551 14 72.72154239253523 7.16830767154811 0.0008007564170852859 -1 0 0
1555 3 74.49523854845067 6.144263718469773 1.8053268555284179 -1 0 0
1552 2 72.72154239253554 9.216395577704773 1.8053268555284179 -1 0 0
1554 16 70.94784623662015 10.24043953078311 0.0008007564170843762 -1 0 0
1560 20 74.49523854845116 10.24043953078311 0.0008007564170855739 -1 0 0
1557 18 76.26893470436623 7.16830767154811 0.0008007564170855604 -1 0 0
1561 1 78.04263086028168 6.144263718469771 1.8053268555284179 -1 0 0
1563 14 79.81632701619723 7.16830767154811 0.0008007564170854822 -1 0 0
1567 3 81.59002317211268 6.144263718469773 1.8053268555284179 -1 0 0
1558 4 76.26893470436654 9.216395577704773 1.8053268555284179 -1 0 0
1564 2 79.81632701619753 9.216395577704773 1.8053268555284179 -1 0 0
1566 16 78.04263086028216 10.24043953078311 0.0008007564170858484 -1 0 0
1572 20 81.59002317211316 10.24043953078311 0.0008007564170846302 -1 0 0
1569 18 83.36371932802822 7.168307671548111 0.0008007564170843586 -1 0 0
1573 1 85.13741548394367 6.144263718469774 1.8053268555284179 -1 0 0
1575 14 86.91111163985923 7.16830767154811 0.0008007564170852858 -1 0 0
1570 4 83.36371932802854 9.216395577704771 1.8053268555284179 -1 0 0
1576 2 86.91111163985954 9.216395577704773 1.8053268555284179 -1 0 0
1578 16 85.13741548394415 10.24043953078311 0.0008007564170858484 -1 0 0
1579 3 88.68480779577467 6.144263718469774 1.8053268555284179 -1 0 0
1581 18 90.45850395169023 7.168307671548111 0.0008007564170843388 -1 0 0
1585 1 92.23220010760568 6.144263718469774 1.8053268555284177 -1 0 0
1582 4 90.45850395169053 9.216395577704771 1.8053268555284179 -1 0 0
1584 20 88.68480779577516 10.24043953078311 0.0008007564170858485 -1 0 0
1590 16 92.23220010760616 10.24043953078311 0.0008007564170857669 -1 0 0
1597 1 99.32698473126767 6.144263718469772 1.8053268555284179 -1 0 0
1587 14 94.00589626352124 7.16830767154811 0.00080075641708558 -1 0 0
1591 3 95.77959241943668 6.144263718469771 1.8053268555284179 -1 0 0
1593 18 97.55328857535223 7.16830767154811 0.0008007564170857077 -1 0 0
1588 2 94.00589626352154 9.216395577704773 1.8053268555284179 -1 0 0
1594 4 97.55328857535254 9.216395577704773 1.8053268555284179 -1 0 0
1596 20 95.77959241943717 10.24043953078311 0.0008007564170857628 -1 0 0
1767 14 1.773696155915232 13.312571390018109 0.0008007564170862742 0 0 0
1771 3 3.5473923118306767 12.288527436939772 1.8053268555284179 0 0 0
1773 18 5.321088467746234 13.312571390018109 0.0008007564170857864 0 0 0
1768 2 1.7736961559155382 15.36065929617477 1.805326855528418 0 0 0
1774 4 5.321088467746539 15.360659296174768 1.8053268555284179 0 0 0
1770 16 1.625533717872748e-13 16.38470324925311 0.0008007564170840987 0 0 0
1776 20 3.547392311831164 16.38470324925311 0.0008007564170853247 0 0 0
1777 1 7.094784623661677 12.28852743693977 1.8053268555284179 0 0 0
1779 14 8.868480779577231 13.312571390018109 0.0008007564170857904 0 0 0
1783 3 10.642176935492676 12.288527436939772 1.8053268555284179 0 0 0
1780 2 8.868480779577537 15.360659296174768 1.8053268555284179 0 0 0
1782 16 7.094784623662163 16.38470324925311 0.0008007564170849662 0 0 0
1788 20 10.64217693549316 16.38470324925311 0.0008007564170846894 0 0 0
1785 18 12.415873091408233 13.312571390018109 0.0008007564170860944 0 0 0
1789 1 14.18956924732368 12.288527436939772 1.8053268555284179 0 0 0
1791 14 15.963265403239237 13.312571390018107 0.0008007564170863672 0 0 0
1786 4 12.415873091408537 15.360659296174768 1.805326855528418 0 0 0
1792 2 15.963265403239541 15.360659296174768 1.805326855528418 0 0 0
1794 16 14.189569247324162 16.38470324925311 0.0008007564170851805 0 0 0
1795 3 17.73696155915468 12.28852743693977 1.8053268555284179 0 0 0
1797 18 19.51065771507023 13.312571390018109 0.000800756417085437 0 0 0
1801 1 21.284353870985676 12.288527436939772 1.8053268555284179 0 0 0
1803 14 23.05805002690123 13.312571390018109 0.0008007564170860944 0 0 0
1798 4 19.510657715070536 15.360659296174767 1.805326855528418 0 0 0
1804 2 23.058050026901533 15.36065929617477 1.805326855528418 0 0 0
1800 20 17.736961559155166 16.38470324925311 0.0008007564170857243 0 0 0
1806 16 21.28435387098616 16.38470324925311 0.0008007564170842355 0 0 0
1807 3 24.831746182816676 12.288527436939772 1.8053268555284179 0 0 0
1809 18 26.605442338732235 13.312571390018107 0.000800756417086367 0 0 0
1813 1 28.379138494647677 12.28852743693977 1.8053268555284179 0 0 0
1810 4 26.605442338732537 15.360659296174768 1.805326855528418 0 0 0
1812 20 24.83174618281716 16.38470324925311 0.0008007564170851808 0 0 0
1818 16 28.379138494648164 16.38470324925311 0.0008007564170854513 0 0 0
1815 14 30.152834650563232 13.312571390018107 0.0008007564170863636 0 0 0
1821 18 33.70022696239423 13.312571390018109 0.0008007564170851641 0 0 0
1819 3 31.926530806478674 12.288527436939772 1.8053268555284179 0 0 0
1816 2 30.15283465056354 15.360659296174768 1.805326855528418 0 0 0
1822 4 33.70022696239454 15.360659296174767 1.805326855528418 0 0 0
1824 20 31.926530806479168 16.38470324925311 0.0008007564170854535 0 0 0
1825 1 35.47392311830968 12.288527436939772 1.8053268555284179 0 0 0
1827 14 37.24761927422524 13.312571390018109 0.0008007564170860942 0 0 0
1831 3 39.02131543014068 12.288527436939772 1.8053268555284179 0 0 0
1833 18 40.79501158605624 13.312571390018107 0.0008007564170863672 0 0 0
1828 2 37.247619274225535 15.36065929617477 1.805326855528418 0 0 0
1834 4 40.79501158605654 15.360659296174768 1.805326855528418 0 0 0
1830 16 35.47392311831016 16.38470324925311 0.0008007564170842352 0 0 0
1836 20 39.021315430141165 16.38470324925311 0.0008007564170851805 0 0 0
1837 1 42.56870774197168 12.28852743693977 1.8053268555284179 0 0 0
1839 14 44.34240389788723 13.312571390018109 0.0008007564170854372 0 0 0
1843 3 46.116100053802676 12.288527436939772 1.8053268555284179 0 0 0
1840 2 44.342403897887536 15.360659296174767 1.805326855528418 0 0 0
1842 16 42.56870774197216 16.38470324925311 0.0008007564170857246 0 0 0
1848 20 46.11610005380316 16.38470324925311 0.0008007564170842354 0 0 0
1845 18 47.889796209718234 13.312571390018109 0.0008007564170862306 0 0 0
1681 1 49.66349236563367 12.28852743693977 1.8053268555284179 -1 0 0
1683 14 51.43718852154923 13.312571390018109 0.0008007564170857902 -1 0 0
1846 4 47.88979620971853 15.36065929617477 1.805326855528418 0 0 0
1684 2 51.43718852154954 15.360659296174768 1.805326855528418 -1 0 0
1686 16 49.66349236563416 16.38470324925311 0.0008007564170854571 -1 0 0
1687 3 53.210884677464676 12.288527436939772 1.8053268555284179 -1 0 0
1689 18 54.984580833380235 13.312571390018109 0.0008007564170862345 -1 0 0
1693 1 56.75827698929567 12.28852743693977 1.8053268555284179 -1 0 0
1690 4 54.984580833380534 15.360659296174768 1.8053268555284179 -1 0 0
1692 20 53.21088467746516 16.38470324925311 0.0008007564170853493 -1 0 0
1698 16 56.758276989296164 16.38470324925311 0.0008007564170848257 -1 0 0
1695 14 58.53197314521123 13.312571390018109 0.0008007564170857904 -1 0 0
1699 3 60.30566930112668 12.288527436939772 1.8053268555284179 -1 0 0
1701 18 62.079365457042236 13.312571390018109 0.0008007564170860942 -1 0 0
1705 1 63.85306161295768 12.288527436939772 1.8053268555284179 -1 0 0
1696 2 58.53197314521154 15.360659296174768 1.8053268555284179 -1 0 0
1702 4 62.079365457042535 15.360659296174768 1.805326855528418 -1 0 0
1704 20 60.30566930112716 16.38470324925311 0.0008007564170846894 -1 0 0
1710 16 63.85306161295816 16.38470324925311 0.0008007564170854532 -1 0 0
1707 14 65.62675776887323 13.312571390018109 0.0008007564170854898 -1 0 0
1711 3 67.40045392478868 12.28852743693977 1.8053268555284179 -1 0 0
1713 18 69.17415008070422 13.312571390018107 0.0008007564170863669 -1 0 0
1708 2 65.62675776887353 15.360659296174767 1.805326855528418 -1 0 0
1714 4 69.17415008070454 15.36065929617477 1.8053268555284179 -1 0 0
1716 20 67.40045392478916 16.38470324925311 0.0008007564170857316 -1 0 0
1717 1 70.94784623661967 12.28852743693977 1.8053268555284179 -1 0 0
1719 14 72.72154239253523 13.312571390018109 0.0008007564170860944 -1 0 0
1723 3 74.49523854845067 12.288527436939772 1.8053268555284179 -1 0 0
1720 2 72.72154239253554 15.36065929617477 1.805326855528418 -1 0 0
1722 16 70.94784623662015 16.38470324925311 0.0008007564170839628 -1 0 0
1728 20 74.49523854845116 16.38470324925311 0.0008007564170851806 -1 0 0
1725 18 76.26893470436623 13.312571390018107 0.0008007564170863669 -1 0 0
1729 1 78.04263086028168 12.28852743693977 1.8053268555284179 -1 0 0
1731 14 79.81632701619723 13.312571390018107 0.0008007564170863635 -1 0 0
1735 3 81.59002317211268 12.288527436939772 1.8053268555284179 -1 0 0
1726 4 76.26893470436654 15.360659296174768 1.805326855528418 -1 0 0
1732 2 79.81632701619753 15.36065929617477 1.805326855528418 -1 0 0
1734 16 78.04263086028216 16.38470324925311 0.0008007564170854514 -1 0 0
1740 20 81.59002317211316 16.38470324925311 0.0008007564170843512 -1 0 0
1737 18 83.36371932802822 13.312571390018109 0.0008007564170851624 -1 0 0
1741 1 85.13741548394367 12.288527436939772 1.8053268555284179 -1 0 0
1743 14 86.91111163985923 13.312571390018109 0.0008007564170860944 -1 0 0
1738 4 83.36371932802854 15.360659296174767 1.8053268555284179 -1 0 0
1744 2 86.91111163985954 15.360659296174768 1.805326855528418 -1 0 0
1746 16 85.13741548394415 16.38470324925311 0.0008007564170854514 -1 0 0
1747 3 88.68480779577467 12.288527436939772 1.8053268555284179 -1 0 0
1749 18 90.45850395169023 13.312571390018109 0.0008007564170852173 -1 0 0
1753 1 92.23220010760568 12.288527436939772 1.8053268555284177 -1 0 0
1750 4 90.45850395169053 15.360659296174767 1.805326855528418 -1 0 0
1752 20 88.68480779577516 16.38470324925311 0.0008007564170854535 -1 0 0
1758 16 92.23220010760616 16.38470324925311 0.0008007564170854608 -1 0 0
1765 1 99.32698473126767 12.28852743693977 1.8053268555284179 -1 0 0
1755 14 94.00589626352124 13.312571390018107 0.0008007564170864009 -1 0 0
1759 3 95.77959241943668 12.28852743693977 1.8053268555284179 -1 0 0
1761 18 97.55328857535223 13.312571390018107 0.0008007564170865026 -1 0 0
1756 2 94.00589626352154 15.360659296174768 1.8053268555284179 -1 0 0
1762 4 97.55328857535254 15.36065929617477 1.8053268555284179 -1 0 0
1764 20 95.77959241943717 16.38470324925311 0.0008007564170854584 -1 0 0
1935 14 1.773696155915232 19.45683510848811 0.000800756417085349 0 0 0
1939 3 3.5473923118306767 18.43279115540977 1.8053268555284179 0 0 0
1941 18 5.321088467746234 19.45683510848811 0.0008007564170848289 0 0 0
1936 2 1.7736961559155382 21.50492301464477 1.805326855528418 0 0 0
1942 4 5.321088467746539 21.50492301464477 1.8053268555284179 0 0 0
1938 16 1.625533717872748e-13 22.52896696772311 0.0008007564170840987 0 0 0
1944 20 3.547392311831164 22.52896696772311 0.0008007564170853247 0 0 0
1945 1 7.094784623661676 18.43279115540977 1.8053268555284179 0 0 0
1947 14 8.868480779577231 19.45683510848811 0.0008007564170848291 0 0 0
1951 3 10.642176935492676 18.43279115540977 1.805326855528418 0 0 0
1948 2 8.868480779577537 21.50492301464477 1.8053268555284179 0 0 0
1950 16 7.094784623662163 22.52896696772311 0.000800756417084966 0 0 0
1956 20 10.64217693549316 22.52896696772311 0.0008007564170846893 0 0 0
1953 18 12.415873091408233 19.45683510848811 0.0008007564170851774 0 0 0
1957 1 14.18956924732368 18.43279115540977 1.805326855528418 0 0 0
1959 14 15.963265403239237 19.45683510848811 0.0008007564170854501 0 0 0
1954 4 12.415873091408537 21.50492301464477 1.805326855528418 0 0 0
1960 2 15.963265403239541 21.50492301464477 1.805326855528418 0 0 0
1962 16 14.189569247324162 22.52896696772311 0.0008007564170851805 0 0 0
1963 3 17.73696155915468 18.432791155409767 1.805326855528418 0 0 0
1965 18 19.51065771507023 19.45683510848811 0.0008007564170845092 0 0 0
1969 1 21.284353870985676 18.43279115540977 1.805326855528418 0 0 0
1971 14 23.05805002690123 19.45683510848811 0.0008007564170851773 0 0 0
1966 4 19.510657715070536 21.504923014644767 1.805326855528418 0 0 0
1972 2 23.058050026901533 21.50492301464477 1.805326855528418 0 0 0
1968 20 17.736961559155166 22.52896696772311 0.0008007564170857243 0 0 0
1974 16 21.28435387098616 22.52896696772311 0.0008007564170842355 0 0 0
1975 3 24.831746182816676 18.43279115540977 1.805326855528418 0 0 0
1977 18 26.605442338732235 19.45683510848811 0.0008007564170854499 0 0 0
1981 1 28.379138494647677 18.432791155409767 1.805326855528418 0 0 0
1978 4 26.605442338732537 21.50492301464477 1.805326855528418 0 0 0
1980 20 24.83174618281716 22.52896696772311 0.0008007564170851808 0 0 0
1986 16 28.379138494648164 22.52896696772311 0.0008007564170854513 0 0 0
1983 14 30.152834650563232 19.45683510848811 0.0008007564170854604 0 0 0
1989 18 33.70022696239423 19.45683510848811 0.0008007564170842365 0 0 0
1987 3 31.926530806478674 18.43279115540977 1.8053268555284179 0 0 0
1984 2 30.15283465056354 21.50492301464477 1.805326855528418 0 0 0
1990 4 33.70022696239454 21.504923014644767 1.805326855528418 0 0 0
1992 20 31.926530806479168 22.52896696772311 0.0008007564170854534 0 0 0
1993 1 35.47392311830968 18.43279115540977 1.805326855528418 0 0 0
1995 14 37.24761927422524 19.45683510848811 0.0008007564170851772 0 0 0
1999 3 39.02131543014068 18.43279115540977 1.805326855528418 0 0 0
2001 18 40.79501158605624 19.45683510848811 0.0008007564170854501 0 0 0
1996 2 37.247619274225535 21.50492301464477 1.805326855528418 0 0 0
2002 4 40.79501158605654 21.50492301464477 1.805326855528418 0 0 0
1998 16 35.47392311831016 22.52896696772311 0.000800756417084235 0 0 0
2004 20 39.021315430141165 22.52896696772311 0.0008007564170851805 0 0 0
2005 1 42.56870774197168 18.432791155409767 1.805326855528418 0 0 0
2007 14 44.34240389788723 19.45683510848811 0.0008007564170845094 0 0 0
2011 3 46.116100053802676 18.43279115540977 1.805326855528418 0 0 0
2008 2 44.342403897887536 21.504923014644767 1.805326855528418 0 0 0
2010 16 42.56870774197216 22.52896696772311 0.0008007564170857245 0 0 0
2016 20 46.11610005380316 22.52896696772311 0.0008007564170842353 0 0 0
2013 18 47.889796209718234 19.45683510848811 0.0008007564170853175 0 0 0
1849 1 49.66349236563367 18.43279115540977 1.805326855528418 -1 0 0
1851 14 51.43718852154923 19.45683510848811 0.0008007564170848291 -1 0 0
2014 4 47.88979620971853 21.50492301464477 1.805326855528418 0 0 0
1852 2 51.43718852154954 21.504923014644767 1.805326855528418 -1 0 0
1854 16 49.66349236563416 22.52896696772311 0.0008007564170854571 -1 0 0
1855 3 53.210884677464676 18.43279115540977 1.805326855528418 -1 0 0
1857 18 54.984580833380235 19.45683510848811 0.0008007564170853246 -1 0 0
1861 1 56.75827698929567 18.43279115540977 1.805326855528418 -1 0 0
1858 4 54.984580833380534 21.50492301464477 1.8053268555284179 -1 0 0
1860 20 53.21088467746516 22.52896696772311 0.0008007564170853491 -1 0 0
1866 16 56.758276989296164 22.52896696772311 0.0008007564170848257 -1 0 0
1863 14 58.53197314521123 19.45683510848811 0.0008007564170848291 -1 0 0
1867 3 60.30566930112668 18.43279115540977 1.805326855528418 -1 0 0
1869 18 62.079365457042236 19.45683510848811 0.0008007564170851772 -1 0 0
1873 1 63.85306161295768 18.43279115540977 1.805326855528418 -1 0 0
1864 2 58.53197314521154 21.50492301464477 1.8053268555284179 -1 0 0
1870 4 62.079365457042535 21.50492301464477 1.805326855528418 -1 0 0
1872 20 60.30566930112716 22.52896696772311 0.0008007564170846894 -1 0 0
1878 16 63.85306161295816 22.52896696772311 0.0008007564170854532 -1 0 0
1875 14 65.62675776887323 19.45683510848811 0.000800756417084621 -1 0 0
1879 3 67.40045392478868 18.432791155409767 1.8053268555284179 -1 0 0
1881 18 69.17415008070422 19.45683510848811 0.0008007564170854517 -1 0 0
1876 2 65.62675776887353 21.504923014644767 1.805326855528418 -1 0 0
1882 4 69.17415008070454 21.50492301464477 1.8053268555284179 -1 0 0
1884 20 67.40045392478916 22.52896696772311 0.0008007564170857315 -1 0 0
1885 1 70.94784623661967 18.43279115540977 1.805326855528418 -1 0 0
1887 14 72.72154239253523 19.45683510848811 0.0008007564170851774 -1 0 0
1891 3 74.49523854845067 18.43279115540977 1.805326855528418 -1 0 0
1888 2 72.72154239253554 21.50492301464477 1.805326855528418 -1 0 0
1890 16 70.94784623662015 22.52896696772311 0.0008007564170839627 -1 0 0
1896 20 74.49523854845116 22.52896696772311 0.0008007564170851806 -1 0 0
1893 18 76.26893470436623 19.45683510848811 0.0008007564170854499 -1 0 0
1897 1 78.04263086028168 18.432791155409767 1.805326855528418 -1 0 0
1899 14 79.81632701619723 19.45683510848811 0.0008007564170854602 -1 0 0
1903 3 81.59002317211268 18.43279115540977 1.8053268555284179 -1 0 0
1894 4 76.26893470436654 21.50492301464477 1.805326855528418 -1 0 0
1900 2 79.81632701619753 21.50492301464477 1.805326855528418 -1 0 0
1902 16 78.04263086028216 22.52896696772311 0.0008007564170854514 -1 0 0
1908 20 81.59002317211316 22.52896696772311 0.0008007564170843511 -1 0 0
1905 18 83.36371932802822 19.45683510848811 0.0008007564170842313 -1 0 0
1909 1 85.13741548394367 18.43279115540977 1.805326855528418 -1 0 0
1911 14 86.91111163985923 19.45683510848811 0.0008007564170851774 -1 0 0
1906 4 83.36371932802854 21.504923014644767 1.8053268555284179 -1 0 0
1912 2 86.91111163985954 21.50492301464477 1.805326855528418 -1 0 0
1914 16 85.13741548394415 22.52896696772311 0.0008007564170854513 -1 0 0
1915 3 88.68480779577467 18.43279115540977 1.805326855528418 -1 0 0
1917 18 90.45850395169023 19.45683510848811 0.0008007564170843503 -1 0 0
1921 1 92.23220010760568 18.43279115540977 1.8053268555284179 -1 0 0
1918 4 90.45850395169053 21.504923014644767 1.805326855528418 -1 0 0
1920 20 88.68480779577516 22.52896696772311 0.0008007564170854534 -1 0 0
1926 16 92.23220010760616 22.52896696772311 0.0008007564170854607 -1 0 0
1933 1 99.32698473126767 18.432791155409767 1.805326855528418 -1 0 0
1923 14 94.00589626352124 19.45683510848811 0.0008007564170855714 -1 0 0