LAMMPS data file via write_data, version 29 Aug 2024, timestep = 2, units = metal

4680 atoms
6 atom types

0 98.665784942764 xlo xhi
0 98.59278028242 ylo yhi
-50 50 zlo zhi

Masses

1 91.224
2 91.224
3 78.971
4 78.971
5 78.971
6 78.971

Atoms # atomic

1174 4 1.8974189412069988 2.1909494948916994 0.01916834413195084 0 0 0
1327 1 3.561182475229359e-15 3.2858067991484137 1.5787832629937928 0 0 0
1333 1 3.7948378824139968 3.2858067991484137 1.5787832629937932 0 0 0
1180 4 5.692256823620995 2.1909494948917003 0.01916834413195178 0 0 0
1329 4 1.4382719144067786e-16 5.4773755043057 0.019168344131951797 0 0 0
1335 4 3.794837882413996 5.4773755043057 0.019168344131951162 0 0 0
1339 1 7.589675764827994 3.2858067991484137 1.578783262993793 0 0 0
1186 4 9.487094706034995 2.1909494948917003 0.019168344131952012 0 0 0
1345 1 11.384513647241995 3.2858067991484137 1.578783262993793 0 0 0
1341 4 7.589675764827994 5.477375504305701 0.019168344131952123 0 0 0
1347 4 11.384513647241995 5.477375504305701 0.019168344131952075 0 0 0
1192 4 13.281932588448996 2.1909494948917008 0.019168344131952206 0 0 0
1351 1 15.179351529655998 3.2858067991484137 1.5787832629937932 0 0 0
1198 4 17.076770470863 2.1909494948917003 0.019168344131951752 0 0 0
1353 4 15.179351529655998 5.4773755043057015 0.019168344131952907 0 0 0
1357 1 18.974189412069997 3.285806799148414 1.5787832629937932 0 0 0
1204 4 20.871608353276994 2.1909494948917003 0.019168344131951627 0 0 0
1363 1 22.769027294483994 3.285806799148414 1.578783262993793 0 0 0
1359 4 18.974189412069997 5.4773755043057 0.01916834413195047 0 0 0
1365 4 22.769027294483994 5.477375504305701 0.019168344131952106 0 0 0
1210 4 24.666446235690994 2.1909494948917003 0.019168344131951932 0 0 0
1369 1 26.563865176897995 3.285806799148414 1.578783262993793 0 0 0
1216 4 28.461284118104995 2.1909494948917003 0.01916834413195192 0 0 0
1371 4 26.563865176897995 5.477375504305701 0.019168344131952057 0 0 0
1375 1 30.358703059311996 3.285806799148414 1.578783262993793 0 0 0
1222 4 32.256122000519 2.1909494948917003 0.019168344131951964 0 0 0
1381 1 34.15354094172599 3.285806799148414 1.578783262993793 0 0 0
1377 4 30.358703059311996 5.477375504305701 0.019168344131952057 0 0 0
1383 4 34.15354094172599 5.477375504305701 0.019168344131952095 0 0 0
1228 4 36.050959882933 2.1909494948917008 0.01916834413195195 0 0 0
1387 1 37.94837882413999 3.285806799148414 1.578783262993793 0 0 0
1234 4 39.845797765347 2.1909494948917008 0.019168344131951957 0 0 0
1389 4 37.94837882413999 5.477375504305701 0.01916834413195207 0 0 0
1393 1 41.743216706553994 3.285806799148414 1.578783262993793 0 0 0
1240 4 43.640635647761 2.1909494948917008 0.019168344131951957 0 0 0
1399 1 45.538054588967995 3.285806799148414 1.578783262993793 0 0 0
1395 4 41.743216706553994 5.477375504305701 0.01916834413195207 0 0 0
1401 4 45.538054588967995 5.477375504305701 0.019168344131952012 0 0 0
1246 4 47.435473530175 2.1909494948917008 0.019168344131951794 0 0 0
1096 4 51.230311412589 2.1909494948917008 0.019168344131952588 -1 0 0
1249 1 49.332892471382 3.2858067991484137 1.5787832629937932 -1 0 0
1251 4 49.332892471382 5.4773755043057015 0.019168344131952918 -1 0 0
1255 1 53.127730353796004 3.2858067991484137 1.578783262993793 -1 0 0
1102 4 55.025149295003004 2.1909494948917003 0.019168344131952012 -1 0 0
1261 1 56.922568236210004 3.2858067991484137 1.578783262993793 -1 0 0
1257 4 53.127730353796004 5.477375504305701 0.019168344131952085 -1 0 0
1263 4 56.922568236210004 5.477375504305701 0.019168344131952095 -1 0 0
1108 4 58.819987177417005 2.1909494948917003 0.019168344131952033 -1 0 0
1267 1 60.717406118624005 3.2858067991484137 1.578783262993793 -1 0 0
1114 4 62.614825059831006 2.1909494948917003 0.01916834413195188 -1 0 0
1269 4 60.717406118624005 5.477375504305701 0.01916834413195163 -1 0 0
1273 1 64.51224400103801 3.285806799148414 1.578783262993793 -1 0 0
1120 4 66.409662942245 2.1909494948917008 0.019168344131951964 -1 0 0
1279 1 68.30708188345201 3.285806799148414 1.578783262993793 -1 0 0
1275 4 64.512244001038 5.477375504305701 0.019168344131951537 -1 0 0
1281 4 68.307081883452 5.477375504305701 0.01916834413195207 -1 0 0
1126 4 70.20450082465901 2.1909494948917008 0.01916834413195195 -1 0 0
1285 1 72.10191976586601 3.285806799148414 1.578783262993793 -1 0 0
1132 4 73.99933870707301 2.1909494948917 0.019168344131951006 -1 0 0
1287 4 72.101919765866 5.477375504305701 0.019168344131952095 -1 0 0
1291 1 75.89675764828 3.2858067991484137 1.578783262993793 -1 0 0
1138 4 77.794176589487 2.1909494948917008 0.019168344131952023 -1 0 0
1297 1 79.691595530694 3.285806799148414 1.578783262993793 -1 0 0
1293 4 75.89675764828 5.4773755043057 0.01916834413195185 -1 0 0
1299 4 79.691595530694 5.4773755043057015 0.019168344131952453 -1 0 0
1144 4 81.58901447190101 2.1909494948917008 0.019168344131952016 -1 0 0
1303 1 83.486433413108 3.2858067991484137 1.578783262993793 -1 0 0
1150 4 85.383852354315 2.1909494948917008 0.019168344131952026 -1 0 0
1305 4 83.486433413108 5.4773755043057 0.019168344131951825 -1 0 0
1309 1 87.281271295522 3.285806799148414 1.578783262993793 -1 0 0
1156 4 89.17869023672901 2.1909494948917008 0.01916834413195202 -1 0 0
1315 1 91.076109177936 3.2858067991484137 1.578783262993793 -1 0 0
1311 4 87.281271295522 5.4773755043057015 0.019168344131952456 -1 0 0
1317 4 91.076109177936 5.4773755043057 0.019168344131951825 -1 0 0
1162 4 92.973528119143 2.1909494948917008 0.019168344131952023 -1 0 0
1321 1 94.87094706035 3.285806799148414 1.578783262993793 -1 0 0
1168 4 96.76836600155701 2.1909494948917008 0.019168344131952175 -1 0 0
1323 4 94.87094706035 5.4773755043057015 0.01916834413195244 -1 0 0
1328 1 1.8974189412069975 6.572232808562415 1.578783262993793 0 0 0
1334 1 5.692256823620994 6.572232808562414 1.578783262993793 0 0 0
1330 4 1.8974189412069988 8.7638015137197 0.0191683441319505 0 0 0
1336 4 5.692256823620994 8.7638015137197 0.01916834413195126 0 0 0
1483 1 3.3966122562693054e-15 9.858658817976414 1.578783262993792 0 0 0
1489 1 3.7948378824139968 9.858658817976414 1.5787832629937923 0 0 0
1340 1 9.487094706034995 6.572232808562414 1.578783262993793 0 0 0
1342 4 9.487094706034995 8.7638015137197 0.019168344131951436 0 0 0
1495 1 7.589675764827994 9.858658817976414 1.5787832629937923 0 0 0
1501 1 11.384513647241995 9.858658817976414 1.5787832629937921 0 0 0
1346 1 13.281932588448996 6.572232808562414 1.5787832629937932 0 0 0
1352 1 17.076770470862996 6.572232808562415 1.578783262993793 0 0 0
1348 4 13.281932588448996 8.7638015137197 0.019168344131951637 0 0 0
1354 4 17.076770470863 8.7638015137197 0.01916834413195134 0 0 0
1507 1 15.179351529655998 9.858658817976414 1.5787832629937921 0 0 0
1358 1 20.871608353276997 6.572232808562415 1.5787832629937928 0 0 0
1360 4 20.871608353276994 8.7638015137197 0.019168344131951287 0 0 0
1513 1 18.974189412069997 9.858658817976414 1.5787832629937923 0 0 0
1519 1 22.769027294483994 9.858658817976414 1.5787832629937923 0 0 0
1364 1 24.666446235690994 6.572232808562415 1.578783262993793 0 0 0
1370 1 28.461284118104995 6.572232808562415 1.578783262993793 0 0 0
1366 4 24.666446235690994 8.7638015137197 0.019168344131951613 0 0 0
1372 4 28.461284118104995 8.7638015137197 0.019168344131951592 0 0 0
1525 1 26.563865176897995 9.858658817976414 1.5787832629937923 0 0 0
1376 1 32.256122000519 6.572232808562415 1.578783262993793 0 0 0
1378 4 32.256122000519 8.7638015137197 0.019168344131951603 0 0 0
1531 1 30.358703059311996 9.858658817976414 1.5787832629937917 0 0 0
1537 1 34.15354094172599 9.858658817976414 1.5787832629937923 0 0 0
1382 1 36.050959882933 6.572232808562415 1.578783262993793 0 0 0
1388 1 39.845797765347 6.572232808562415 1.578783262993793 0 0 0
1384 4 36.050959882933 8.7638015137197 0.019168344131951606 0 0 0
1390 4 39.845797765347 8.7638015137197 0.019168344131951606 0 0 0
1543 1 37.94837882413999 9.858658817976414 1.5787832629937923 0 0 0
1394 1 43.640635647761 6.572232808562415 1.578783262993793 0 0 0
1396 4 43.640635647761 8.7638015137197 0.019168344131951606 0 0 0
1549 1 41.743216706553994 9.858658817976414 1.5787832629937923 0 0 0
1555 1 45.538054588967995 9.858658817976416 1.578783262993793 0 0 0
1400 1 47.435473530175 6.572232808562415 1.578783262993793 0 0 0
1250 1 51.230311412589 6.572232808562414 1.5787832629937932 -1 0 0
1402 4 47.435473530175 8.7638015137197 0.019168344131951995 0 0 0
1252 4 51.230311412589 8.7638015137197 0.019168344131951325 -1 0 0
1405 1 49.332892471382 9.858658817976414 1.5787832629937921 -1 0 0
1256 1 55.025149295003004 6.572232808562414 1.578783262993793 -1 0 0
1258 4 55.025149295003004 8.7638015137197 0.01916834413195144 -1 0 0
1411 1 53.127730353796004 9.858658817976414 1.5787832629937921 -1 0 0
1417 1 56.922568236210004 9.858658817976414 1.5787832629937921 -1 0 0
1262 1 58.819987177417005 6.572232808562414 1.578783262993793 -1 0 0
1268 1 62.614825059831 6.572232808562414 1.578783262993793 -1 0 0
1264 4 58.819987177417005 8.7638015137197 0.019168344131951457 -1 0 0
1270 4 62.614825059831006 8.7638015137197 0.01916834413195132 -1 0 0
1423 1 60.717406118624005 9.858658817976414 1.5787832629937921 -1 0 0
1274 1 66.40966294224499 6.572232808562415 1.578783262993793 -1 0 0
1276 4 66.409662942245 8.7638015137197 0.019168344131951617 -1 0 0
1429 1 64.51224400103801 9.858658817976414 1.5787832629937921 -1 0 0
1435 1 68.30708188345201 9.858658817976414 1.5787832629937923 -1 0 0
1280 1 70.204500824659 6.572232808562415 1.578783262993793 -1 0 0
1286 1 73.999338707073 6.572232808562414 1.5787832629937928 -1 0 0
1282 4 70.20450082465901 8.7638015137197 0.019168344131951606 -1 0 0
1288 4 73.99933870707301 8.7638015137197 0.01916834413195061 -1 0 0
1441 1 72.10191976586601 9.858658817976414 1.5787832629937923 -1 0 0
1292 1 77.79417658948701 6.572232808562414 1.5787832629937928 -1 0 0
1294 4 77.794176589487 8.7638015137197 0.019168344131951596 -1 0 0
1447 1 75.89675764828 9.858658817976414 1.5787832629937923 -1 0 0
1453 1 79.691595530694 9.858658817976414 1.5787832629937921 -1 0 0
1298 1 81.589014471901 6.572232808562414 1.5787832629937928 -1 0 0
1304 1 85.38385235431501 6.572232808562414 1.5787832629937928 -1 0 0
1300 4 81.58901447190101 8.7638015137197 0.0191683441319516 -1 0 0
1306 4 85.383852354315 8.7638015137197 0.0191683441319516 -1 0 0
1459 1 83.486433413108 9.858658817976414 1.5787832629937923 -1 0 0
1310 1 89.178690236729 6.572232808562414 1.5787832629937928 -1 0 0
1312 4 89.17869023672901 8.7638015137197 0.0191683441319516 -1 0 0
1465 1 87.281271295522 9.858658817976414 1.5787832629937921 -1 0 0
1471 1 91.076109177936 9.858658817976414 1.5787832629937923 -1 0 0
1316 1 92.97352811914301 6.572232808562414 1.5787832629937928 -1 0 0
1322 1 96.768366001557 6.572232808562414 1.5787832629937928 -1 0 0
1318 4 92.973528119143 8.7638015137197 0.0191683441319516 -1 0 0
1324 4 96.76836600155701 8.7638015137197 0.019168344131951762 -1 0 0
1477 1 94.87094706035 9.858658817976414 1.5787832629937921 -1 0 0
1485 4 1.2314718689800146e-16 12.0502275231337 0.019168344131951714 0 0 0
1484 1 1.8974189412069975 13.145084827390411 1.5787832629937937 0 0 0
1491 4 3.794837882413996 12.0502275231337 0.019168344131950944 0 0 0
1490 1 5.692256823620994 13.145084827390411 1.578783262993794 0 0 0
1486 4 1.8974189412069988 15.336653532547698 0.01916834413195104 0 0 0
1492 4 5.692256823620995 15.336653532547698 0.019168344131952005 0 0 0
1639 1 3.3953991304026205e-15 16.43151083680441 1.5787832629937926 0 0 0
1645 1 3.7948378824139963 16.43151083680441 1.578783262993793 0 0 0
1497 4 7.589675764827994 12.050227523133701 0.0191683441319522 0 0 0
1496 1 9.487094706034995 13.145084827390411 1.578783262993794 0 0 0
1503 4 11.384513647241995 12.050227523133701 0.01916834413195215 0 0 0
1498 4 9.487094706034995 15.336653532547698 0.019168344131952265 0 0 0
1651 1 7.589675764827994 16.43151083680441 1.578783262993793 0 0 0
1657 1 11.384513647241995 16.43151083680441 1.578783262993793 0 0 0
1502 1 13.281932588448996 13.145084827390411 1.5787832629937937 0 0 0
1509 4 15.179351529655998 12.050227523133701 0.019168344131953022 0 0 0
1508 1 17.076770470862996 13.145084827390411 1.578783262993794 0 0 0
1504 4 13.281932588448996 15.336653532547698 0.019168344131952394 0 0 0
1510 4 17.076770470863 15.336653532547698 0.019168344131952057 0 0 0
1663 1 15.179351529655998 16.43151083680441 1.5787832629937932 0 0 0
1515 4 18.974189412069997 12.0502275231337 0.01916834413195031 0 0 0
1514 1 20.871608353276997 13.145084827390411 1.578783262993794 0 0 0
1521 4 22.769027294483994 12.050227523133701 0.019168344131952016 0 0 0
1516 4 20.871608353276994 15.336653532547698 0.01916834413195189 0 0 0
1669 1 18.974189412069997 16.43151083680441 1.5787832629937928 0 0 0
1675 1 22.769027294483994 16.43151083680441 1.5787832629937928 0 0 0
1520 1 24.666446235690994 13.145084827390411 1.578783262993794 0 0 0
1527 4 26.563865176897995 12.050227523133701 0.019168344131951967 0 0 0
1526 1 28.461284118104995 13.145084827390411 1.578783262993794 0 0 0
1522 4 24.666446235690994 15.336653532547698 0.019168344131952234 0 0 0
1528 4 28.461284118104995 15.336653532547698 0.019168344131952262 0 0 0
1681 1 26.563865176897995 16.43151083680441 1.5787832629937928 0 0 0
1533 4 30.358703059311996 12.050227523133701 0.019168344131952023 0 0 0
1532 1 32.256122000519 13.145084827390413 1.5787832629937946 0 0 0
1539 4 34.15354094172599 12.050227523133701 0.01916834413195198 0 0 0
1534 4 32.25612200051899 15.336653532547698 0.019168344131952265 0 0 0
1687 1 30.358703059311992 16.43151083680441 1.5787832629937928 0 0 0
1693 1 34.15354094172599 16.43151083680441 1.578783262993793 0 0 0
1538 1 36.050959882933 13.145084827390411 1.578783262993794 0 0 0
1545 4 37.94837882413999 12.050227523133701 0.01916834413195196 0 0 0
1544 1 39.845797765347 13.145084827390411 1.578783262993794 0 0 0
1540 4 36.05095988293299 15.336653532547698 0.019168344131952272 0 0 0
1546 4 39.845797765346994 15.336653532547698 0.019168344131952276 0 0 0
1699 1 37.94837882413999 16.43151083680441 1.578783262993793 0 0 0
1551 4 41.743216706553994 12.050227523133701 0.01916834413195196 0 0 0
1550 1 43.640635647761 13.145084827390411 1.578783262993794 0 0 0
1557 4 45.538054588967995 12.050227523133701 0.01916834413195185 0 0 0
1552 4 43.640635647760995 15.336653532547698 0.019168344131952227 0 0 0
1705 1 41.743216706553994 16.43151083680441 1.578783262993793 0 0 0
1711 1 45.538054588967995 16.43151083680441 1.578783262993793 0 0 0
1556 1 47.435473530175 13.145084827390411 1.578783262993793 0 0 0
1407 4 49.332892471382 12.050227523133701 0.019168344131952984 -1 0 0
1406 1 51.230311412589 13.145084827390411 1.5787832629937937 -1 0 0
1558 4 47.435473530175 15.336653532547698 0.019168344131952737 0 0 0
1408 4 51.230311412589 15.336653532547698 0.01916834413195215 -1 0 0
1561 1 49.332892471382 16.43151083680441 1.5787832629937932 -1 0 0
1413 4 53.127730353796004 12.050227523133701 0.01916834413195216 -1 0 0
1412 1 55.025149295003004 13.145084827390411 1.578783262993794 -1 0 0
1419 4 56.922568236210004 12.050227523133701 0.01916834413195217 -1 0 0
1414 4 55.025149295003004 15.336653532547698 0.01916834413195227 -1 0 0
1567 1 53.127730353796004 16.43151083680441 1.578783262993793 -1 0 0
1573 1 56.922568236210004 16.43151083680441 1.578783262993793 -1 0 0
1418 1 58.819987177417005 13.145084827390411 1.578783262993794 -1 0 0
1425 4 60.717406118624005 12.050227523133701 0.019168344131951703 -1 0 0
1424 1 62.614825059831 13.145084827390411 1.578783262993794 -1 0 0
1420 4 58.819987177417005 15.336653532547698 0.01916834413195227 -1 0 0
1426 4 62.614825059831006 15.336653532547698 0.01916834413195206 -1 0 0
1579 1 60.717406118624005 16.43151083680441 1.578783262993793 -1 0 0
1431 4 64.512244001038 12.050227523133701 0.019168344131951478 -1 0 0
1430 1 66.40966294224499 13.145084827390411 1.578783262993794 -1 0 0
1437 4 68.307081883452 12.050227523133701 0.019168344131951957 -1 0 0
1432 4 66.409662942245 15.336653532547697 0.019168344131950912 -1 0 0
1585 1 64.51224400103801 16.43151083680441 1.578783262993793 -1 0 0
1591 1 68.307081883452 16.43151083680441 1.578783262993793 -1 0 0
1436 1 70.204500824659 13.145084827390411 1.578783262993794 -1 0 0
1443 4 72.101919765866 12.050227523133701 0.019168344131951977 -1 0 0
1442 1 73.999338707073 13.145084827390413 1.578783262993794 -1 0 0
1438 4 70.20450082465901 15.336653532547698 0.019168344131952217 -1 0 0
1444 4 73.99933870707301 15.336653532547698 0.01916834413195252 -1 0 0
1597 1 72.101919765866 16.43151083680441 1.578783262993793 -1 0 0
1449 4 75.89675764828 12.050227523133701 0.019168344131951554 -1 0 0
1448 1 77.79417658948701 13.145084827390411 1.578783262993794 -1 0 0
1455 4 79.691595530694 12.050227523133701 0.019168344131952487 -1 0 0
1450 4 77.794176589487 15.336653532547698 0.0191683441319522 -1 0 0
1603 1 75.89675764828 16.43151083680441 1.5787832629937928 -1 0 0
1609 1 79.691595530694 16.43151083680441 1.578783262993793 -1 0 0
1454 1 81.589014471901 13.145084827390411 1.578783262993794 -1 0 0
1461 4 83.486433413108 12.050227523133701 0.01916834413195153 -1 0 0
1460 1 85.38385235431501 13.145084827390411 1.578783262993794 -1 0 0
1456 4 81.58901447190101 15.336653532547698 0.019168344131952206 -1 0 0
1462 4 85.383852354315 15.336653532547698 0.019168344131952203 -1 0 0
1615 1 83.486433413108 16.43151083680441 1.5787832629937928 -1 0 0
1467 4 87.281271295522 12.050227523133701 0.019168344131952487 -1 0 0
1466 1 89.178690236729 13.145084827390411 1.578783262993794 -1 0 0
1473 4 91.076109177936 12.050227523133701 0.01916834413195153 -1 0 0
1468 4 89.17869023672901 15.336653532547698 0.019168344131952206 -1 0 0
1621 1 87.281271295522 16.43151083680441 1.578783262993793 -1 0 0
1627 1 91.076109177936 16.43151083680441 1.5787832629937928 -1 0 0
1472 1 92.97352811914301 13.145084827390411 1.578783262993794 -1 0 0
1479 4 94.87094706035 12.050227523133701 0.01916834413195248 -1 0 0
1478 1 96.768366001557 13.145084827390411 1.5787832629937937 -1 0 0
1474 4 92.973528119143 15.336653532547698 0.019168344131952203 -1 0 0
1480 4 96.76836600155701 15.336653532547698 0.019168344131952432 -1 0 0
1633 1 94.87094706035 16.43151083680441 1.578783262993793 -1 0 0
1641 4 3.321413106109212e-17 18.623079541961697 0.019168344131951905 0 0 0
1647 4 3.7948378824139954 18.623079541961697 0.01916834413195125 0 0 0
1640 1 1.8974189412069977 19.71793684621841 1.578783262993793 0 0 0
1646 1 5.692256823620994 19.71793684621841 1.578783262993793 0 0 0
1642 4 1.8974189412069988 21.909505551375698 0.019168344131950975 0 0 0
1795 1 3.3953991304026205e-15 23.00436285563241 1.5787832629937926 0 0 0
1801 1 3.7948378824139963 23.00436285563241 1.578783262993793 0 0 0
1648 4 5.692256823620995 21.909505551375698 0.01916834413195193 0 0 0
1653 4 7.589675764827994 18.623079541961697 0.019168344131952196 0 0 0
1659 4 11.384513647241995 18.623079541961697 0.019168344131952158 0 0 0
1652 1 9.487094706034995 19.71793684621841 1.578783262993793 0 0 0
1807 1 7.589675764827994 23.00436285563241 1.578783262993793 0 0 0
1654 4 9.487094706034995 21.909505551375698 0.019168344131952186 0 0 0
1813 1 11.384513647241995 23.00436285563241 1.578783262993793 0 0 0
1665 4 15.179351529655998 18.623079541961697 0.019168344131952977 0 0 0
1658 1 13.281932588448996 19.71793684621841 1.5787832629937928 0 0 0
1664 1 17.076770470862996 19.71793684621841 1.578783262993793 0 0 0
1660 4 13.281932588448996 21.909505551375698 0.019168344131952363 0 0 0
1819 1 15.179351529655998 23.00436285563241 1.578783262993793 0 0 0
1666 4 17.076770470863 21.909505551375698 0.019168344131951915 0 0 0
1671 4 18.974189412069997 18.623079541961697 0.01916834413195057 0 0 0
1677 4 22.769027294483994 18.623079541961697 0.019168344131952272 0 0 0
1670 1 20.871608353276997 19.71793684621841 1.578783262993793 0 0 0
1825 1 18.974189412069997 23.00436285563241 1.578783262993793 0 0 0
1672 4 20.871608353276994 21.909505551375698 0.019168344131951752 0 0 0
1831 1 22.769027294483994 23.00436285563241 1.5787832629937928 0 0 0
1683 4 26.563865176897995 18.623079541961697 0.019168344131952238 0 0 0
1676 1 24.666446235690994 19.71793684621841 1.5787832629937928 0 0 0
1682 1 28.461284118104995 19.71793684621841 1.5787832629937928 0 0 0
1678 4 24.666446235690994 21.909505551375698 0.019168344131952248 0 0 0
1837 1 26.563865176897995 23.00436285563241 1.5787832629937928 0 0 0
1684 4 28.461284118104995 21.909505551375698 0.019168344131952272 0 0 0
1689 4 30.358703059311996 18.623079541961697 0.01916834413195224 0 0 0
1695 4 34.153540941726 18.623079541961697 0.01916834413195214 0 0 0
1688 1 32.256122000519 19.71793684621841 1.5787832629937928 0 0 0
1843 1 30.358703059311992 23.00436285563241 1.5787832629937928 0 0 0
1690 4 32.25612200051899 21.909505551375698 0.01916834413195218 0 0 0
1849 1 34.15354094172599 23.00436285563241 1.578783262993793 0 0 0
1701 4 37.94837882414 18.623079541961697 0.019168344131952165 0 0 0
1694 1 36.050959882933 19.71793684621841 1.578783262993793 0 0 0
1700 1 39.845797765347 19.71793684621841 1.578783262993793 0 0 0
1696 4 36.05095988293299 21.909505551375698 0.019168344131952182 0 0 0
1855 1 37.94837882413999 23.00436285563241 1.578783262993793 0 0 0
1702 4 39.845797765346994 21.909505551375698 0.019168344131952182 0 0 0
1707 4 41.743216706554 18.623079541961697 0.019168344131952175 0 0 0
1713 4 45.538054588968 18.623079541961697 0.01916834413195211 0 0 0
1706 1 43.640635647761 19.71793684621841 1.578783262993793 0 0 0
1861 1 41.743216706553994 23.00436285563241 1.578783262993793 0 0 0
1708 4 43.640635647760995 21.909505551375698 0.019168344131952134 0 0 0
1867 1 45.538054588967995 23.00436285563241 1.578783262993793 0 0 0
1563 4 49.332892471382 18.623079541961697 0.01916834413195306 -1 0 0
1712 1 47.435473530175 19.71793684621841 1.5787832629937928 0 0 0
1562 1 51.230311412589 19.71793684621841 1.5787832629937928 -1 0 0
1714 4 47.435473530175 21.909505551375698 0.01916834413195264 0 0 0
1564 4 51.230311412589 21.909505551375698 0.01916834413195206 -1 0 0
1717 1 49.332892471382 23.00436285563241 1.578783262993793 -1 0 0
1569 4 53.127730353796004 18.623079541961697 0.01916834413195217 -1 0 0
1575 4 56.922568236210004 18.623079541961697 0.01916834413195218 -1 0 0
1568 1 55.025149295003004 19.71793684621841 1.578783262993793 -1 0 0
1723 1 53.127730353796004 23.00436285563241 1.578783262993793 -1 0 0
1570 4 55.025149295003004 21.909505551375698 0.019168344131952186 -1 0 0
1729 1 56.922568236210004 23.00436285563241 1.578783262993793 -1 0 0
1581 4 60.717406118624005 18.623079541961697 0.01916834413195225 -1 0 0
1574 1 58.819987177417005 19.71793684621841 1.578783262993793 -1 0 0
1580 1 62.614825059831006 19.71793684621841 1.578783262993793 -1 0 0
1576 4 58.819987177417005 21.909505551375698 0.019168344131952193 -1 0 0
1735 1 60.717406118624005 23.00436285563241 1.578783262993793 -1 0 0
1582 4 62.614825059831006 21.909505551375698 0.01916834413195205 -1 0 0
1587 4 64.512244001038 18.623079541961697 0.019168344131952196 -1 0 0
1593 4 68.307081883452 18.623079541961697 0.01916834413195219 -1 0 0
1586 1 66.409662942245 19.71793684621841 1.5787832629937928 -1 0 0
1741 1 64.51224400103801 23.00436285563241 1.578783262993793 -1 0 0
1588 4 66.409662942245 21.909505551375698 0.019168344131950957 -1 0 0
1747 1 68.307081883452 23.00436285563241 1.5787832629937928 -1 0 0
1599 4 72.101919765866 18.623079541961697 0.01916834413195096 -1 0 0
1592 1 70.20450082465901 19.71793684621841 1.5787832629937928 -1 0 0
1598 1 73.999338707073 19.71793684621841 1.578783262993793 -1 0 0
1594 4 70.20450082465901 21.909505551375698 0.019168344131952193 -1 0 0
1753 1 72.101919765866 23.00436285563241 1.5787832629937928 -1 0 0
1600 4 73.99933870707301 21.909505551375698 0.019168344131952376 -1 0 0
1605 4 75.89675764828 18.623079541961697 0.019168344131951804 -1 0 0
1611 4 79.691595530694 18.6230795419617 0.019168344131952317 -1 0 0
1604 1 77.79417658948701 19.71793684621841 1.578783262993793 -1 0 0
1759 1 75.89675764828 23.00436285563241 1.578783262993793 -1 0 0
1606 4 77.794176589487 21.909505551375698 0.019168344131952206 -1 0 0
1765 1 79.691595530694 23.00436285563241 1.578783262993793 -1 0 0
1617 4 83.486433413108 18.623079541961697 0.019168344131951766 -1 0 0
1610 1 81.589014471901 19.71793684621841 1.578783262993793 -1 0 0
1616 1 85.38385235431501 19.71793684621841 1.578783262993793 -1 0 0
1612 4 81.58901447190101 21.909505551375698 0.019168344131952206 -1 0 0
1771 1 83.486433413108 23.00436285563241 1.5787832629937928 -1 0 0
1618 4 85.383852354315 21.909505551375698 0.01916834413195221 -1 0 0
1623 4 87.281271295522 18.6230795419617 0.019168344131952317 -1 0 0
1629 4 91.076109177936 18.623079541961697 0.019168344131951766 -1 0 0
1622 1 89.178690236729 19.71793684621841 1.578783262993793 -1 0 0
1777 1 87.281271295522 23.00436285563241 1.578783262993793 -1 0 0
1624 4 89.17869023672901 21.909505551375698 0.01916834413195221 -1 0 0
1783 1 91.076109177936 23.00436285563241 1.5787832629937928 -1 0 0
1635 4 94.87094706035 18.6230795419617 0.01916834413195231 -1 0 0
1628 1 92.97352811914301 19.71793684621841 1.578783262993793 -1 0 0
1634 1 96.768366001557 19.71793684621841 1.5787832629937928 -1 0 0
1630 4 92.973528119143 21.909505551375698 0.01916834413195221 -1 0 0
1789 1 94.87094706035 23.00436285563241 1.578783262993793 -1 0 0
1636 4 96.76836600155701 21.909505551375698 0.019168344131952366 -1 0 0
1797 4 3.3109156418743475e-17 25.1959315607897 0.01916834413195191 0 0 0
1803 4 3.7948378824139954 25.1959315607897 0.019168344131951252 0 0 0
1796 1 1.8974189412069977 26.290788865046412 1.578783262993793 0 0 0
1802 1 5.692256823620994 26.290788865046412 1.578783262993793 0 0 0
1798 4 1.8974189412069988 28.4823575702037 0.019168344131950975 0 0 0
1804 4 5.692256823620995 28.4823575702037 0.01916834413195193 0 0 0
1809 4 7.589675764827994 25.1959315607897 0.019168344131952196 0 0 0
1815 4 11.384513647241995 25.1959315607897 0.01916834413195216 0 0 0
1808 1 9.487094706034995 26.290788865046412 1.578783262993793 0 0 0
1810 4 9.487094706034995 28.4823575702037 0.019168344131952186 0 0 0
1821 4 15.179351529655998 25.1959315607897 0.019168344131952977 0 0 0
1814 1 13.281932588448996 26.290788865046412 1.5787832629937928 0 0 0
1820 1 17.076770470862996 26.290788865046412 1.578783262993793 0 0 0
1816 4 13.281932588448996 28.4823575702037 0.019168344131952363 0 0 0
1822 4 17.076770470863 28.4823575702037 0.01916834413195192 0 0 0
1827 4 18.974189412069997 25.1959315607897 0.019168344131950572 0 0 0
1833 4 22.769027294483994 25.1959315607897 0.019168344131952272 0 0 0
1826 1 20.871608353276997 26.290788865046412 1.578783262993793 0 0 0
1828 4 20.871608353276994 28.4823575702037 0.019168344131951752 0 0 0
1839 4 26.563865176897995 25.1959315607897 0.019168344131952238 0 0 0
1832 1 24.666446235690994 26.290788865046412 1.5787832629937928 0 0 0
1838 1 28.461284118104995 26.290788865046412 1.5787832629937928 0 0 0
1834 4 24.666446235690994 28.4823575702037 0.019168344131952248 0 0 0
1840 4 28.461284118104995 28.4823575702037 0.019168344131952272 0 0 0
1845 4 30.358703059311996 25.1959315607897 0.019168344131952245 0 0 0
1851 4 34.153540941726 25.1959315607897 0.019168344131952144 0 0 0
1844 1 32.256122000519 26.290788865046412 1.5787832629937928 0 0 0
1846 4 32.25612200051899 28.4823575702037 0.01916834413195218 0 0 0
1857 4 37.94837882414 25.1959315607897 0.01916834413195217 0 0 0
1850 1 36.050959882933 26.290788865046412 1.578783262993793 0 0 0
1856 1 39.845797765347 26.290788865046412 1.578783262993793 0 0 0
1852 4 36.05095988293299 28.4823575702037 0.019168344131952182 0 0 0
1858 4 39.845797765346994 28.4823575702037 0.019168344131952182 0 0 0
1863 4 41.743216706554 25.1959315607897 0.019168344131952175 0 0 0
1869 4 45.538054588968 25.1959315607897 0.019168344131952113 0 0 0
1862 1 43.640635647761 26.290788865046412 1.578783262993793 0 0 0
1864 4 43.640635647760995 28.4823575702037 0.019168344131952134 0 0 0
1719 4 49.332892471382 25.1959315607897 0.01916834413195306 -1 0 0
1868 1 47.435473530175 26.290788865046412 1.5787832629937928 0 0 0
1718 1 51.230311412589 26.290788865046412 1.5787832629937928 -1 0 0
1870 4 47.435473530175 28.4823575702037 0.01916834413195264 0 0 0
1720 4 51.230311412589 28.4823575702037 0.01916834413195206 -1 0 0
1725 4 53.127730353796004 25.1959315607897 0.019168344131952172 -1 0 0
1731 4 56.922568236210004 25.1959315607897 0.019168344131952182 -1 0 0
1724 1 55.025149295003004 26.290788865046412 1.578783262993793 -1 0 0
1726 4 55.025149295003004 28.4823575702037 0.019168344131952186 -1 0 0
1737 4 60.717406118624005 25.1959315607897 0.019168344131952255 -1 0 0
1730 1 58.819987177417005 26.290788865046412 1.578783262993793 -1 0 0
1736 1 62.614825059831006 26.290788865046412 1.578783262993793 -1 0 0
1732 4 58.819987177417005 28.4823575702037 0.01916834413195219 -1 0 0
1738 4 62.614825059831006 28.4823575702037 0.01916834413195205 -1 0 0
1743 4 64.512244001038 25.1959315607897 0.019168344131952196 -1 0 0
1749 4 68.307081883452 25.1959315607897 0.019168344131952193 -1 0 0
1742 1 66.409662942245 26.290788865046412 1.5787832629937928 -1 0 0
1744 4 66.409662942245 28.4823575702037 0.019168344131950954 -1 0 0
1755 4 72.101919765866 25.1959315607897 0.019168344131950964 -1 0 0
1748 1 70.20450082465901 26.290788865046412 1.5787832629937928 -1 0 0
1754 1 73.999338707073 26.290788865046412 1.578783262993793 -1 0 0
1750 4 70.20450082465901 28.4823575702037 0.019168344131952193 -1 0 0
1756 4 73.99933870707301 28.4823575702037 0.019168344131952373 -1 0 0
1761 4 75.89675764828 25.1959315607897 0.019168344131951807 -1 0 0
1767 4 79.691595530694 25.195931560789703 0.01916834413195232 -1 0 0
1760 1 77.79417658948701 26.290788865046412 1.578783262993793 -1 0 0
1762 4 77.794176589487 28.4823575702037 0.019168344131952206 -1 0 0
1773 4 83.486433413108 25.1959315607897 0.019168344131951773 -1 0 0
1766 1 81.589014471901 26.290788865046412 1.578783262993793 -1 0 0
1772 1 85.38385235431501 26.290788865046412 1.578783262993793 -1 0 0