LAMMPS data file via write_data, version 29 Aug 2024, timestep = 2, units = metal

7020 atoms
9 atom types

0 98.665784942764 xlo xhi
0 98.59278028242 ylo yhi
-50 50 zlo zhi

Masses

1 91.224
2 91.224
3 91.224
4 78.971
5 78.971
6 78.971
7 78.971
8 78.971
9 78.971

Atoms # atomic

1174 5 1.8974189412069988 2.1909494802411023 0.019124415089019863 0 0 0
1327 1 3.3261921005087693e-15 3.285792474906044 1.578729802470347 0 0 0
1333 1 3.7948378824139968 3.2857924749060445 1.5787298024703476 0 0 0
1180 5 5.692256823620995 2.190949480241103 0.019124415089020783 0 0 0
1329 5 0 5.477375489655103 0.01912441508902105 0 0 0
1335 5 3.794837882413996 5.477375489655103 0.01912441508902046 0 0 0
1339 1 7.589675764827994 3.2857924749060445 1.5787298024703476 0 0 0
1186 5 9.487094706034995 2.190949480241103 0.019124415089021095 0 0 0
1345 1 11.384513647241995 3.2857924749060445 1.5787298024703476 0 0 0
1341 5 7.589675764827994 5.4773754896551035 0.019124415089021397 0 0 0
1347 5 11.384513647241995 5.4773754896551035 0.019124415089021345 0 0 0
1192 5 13.281932588448996 2.190949480241103 0.019124415089021296 0 0 0
1351 1 15.179351529655998 3.2857924749060445 1.5787298024703476 0 0 0
1198 5 17.076770470863 2.190949480241103 0.019124415089020862 0 0 0
1353 5 15.179351529655998 5.477375489655104 0.019124415089022177 0 0 0
1357 1 18.974189412069997 3.2857924749060445 1.5787298024703473 0 0 0
1204 5 20.871608353276994 2.1909494802411027 0.01912441508902076 0 0 0
1363 1 22.769027294483994 3.2857924749060445 1.5787298024703473 0 0 0
1359 5 18.974189412069997 5.477375489655102 0.019124415089019905 0 0 0
1365 5 22.769027294483994 5.4773754896551035 0.01912441508902143 0 0 0
1210 5 24.666446235690994 2.190949480241103 0.01912441508902124 0 0 0
1369 1 26.563865176897995 3.2857924749060445 1.578729802470347 0 0 0
1216 5 28.461284118104995 2.190949480241103 0.019124415089021227 0 0 0
1371 5 26.563865176897995 5.4773754896551035 0.01912441508902138 0 0 0
1375 1 30.358703059311996 3.2857924749060445 1.5787298024703473 0 0 0
1222 5 32.256122000519 2.190949480241103 0.01912441508902126 0 0 0
1381 1 34.15354094172599 3.2857924749060445 1.578729802470347 0 0 0
1377 5 30.358703059311996 5.4773754896551035 0.01912441508902138 0 0 0
1383 5 34.15354094172599 5.4773754896551035 0.019124415089021404 0 0 0
1228 5 36.050959882933 2.190949480241103 0.019124415089021247 0 0 0
1387 1 37.94837882413999 3.2857924749060445 1.578729802470347 0 0 0
1234 5 39.845797765347 2.190949480241103 0.019124415089021254 0 0 0
1389 5 37.94837882413999 5.4773754896551035 0.01912441508902138 0 0 0
1393 1 41.743216706553994 3.2857924749060445 1.578729802470347 0 0 0
1240 5 43.640635647761 2.190949480241103 0.019124415089021254 0 0 0
1399 1 45.538054588967995 3.285792474906045 1.5787298024703473 0 0 0
1395 5 41.743216706553994 5.4773754896551035 0.01912441508902138 0 0 0
1401 5 45.538054588967995 5.4773754896551035 0.019124415089021317 0 0 0
1246 5 47.435473530175 2.190949480241103 0.01912441508902099 0 0 0
1096 5 51.230311412589 2.1909494802411036 0.01912441508902164 -1 0 0
1249 1 49.332892471382 3.2857924749060445 1.5787298024703476 -1 0 0
1251 5 49.332892471382 5.477375489655104 0.019124415089022125 -1 0 0
1255 1 53.127730353796004 3.2857924749060445 1.5787298024703476 -1 0 0
1102 5 55.025149295003004 2.190949480241103 0.019124415089021095 -1 0 0
1261 1 56.922568236210004 3.2857924749060445 1.5787298024703476 -1 0 0
1257 5 53.127730353796004 5.4773754896551035 0.01912441508902136 -1 0 0
1263 5 56.922568236210004 5.4773754896551035 0.019124415089021372 -1 0 0
1108 5 58.819987177417005 2.190949480241103 0.019124415089021116 -1 0 0
1267 1 60.717406118624005 3.2857924749060445 1.5787298024703476 -1 0 0
1114 5 62.614825059831006 2.1909494802411027 0.01912441508902097 -1 0 0
1269 5 60.717406118624005 5.4773754896551035 0.01912441508902083 -1 0 0
1273 1 64.51224400103801 3.2857924749060445 1.5787298024703476 -1 0 0
1120 5 66.409662942245 2.190949480241103 0.01912441508902126 -1 0 0
1279 1 68.30708188345201 3.2857924749060445 1.578729802470347 -1 0 0
1275 5 64.512244001038 5.4773754896551035 0.019124415089020793 -1 0 0
1281 5 68.307081883452 5.4773754896551035 0.01912441508902138 -1 0 0
1126 5 70.20450082465901 2.190949480241103 0.019124415089021247 -1 0 0
1285 1 72.10191976586601 3.285792474906045 1.578729802470347 -1 0 0
1132 5 73.99933870707301 2.1909494802411027 0.01912441508902009 -1 0 0
1287 5 72.101919765866 5.4773754896551035 0.019124415089021407 -1 0 0
1291 1 75.89675764828 3.285792474906045 1.5787298024703473 -1 0 0
1138 5 77.794176589487 2.190949480241103 0.019124415089021237 -1 0 0
1297 1 79.691595530694 3.2857924749060445 1.5787298024703473 -1 0 0
1293 5 75.89675764828 5.477375489655103 0.019124415089021168 -1 0 0
1299 5 79.691595530694 5.477375489655104 0.019124415089021667 -1 0 0
1144 5 81.58901447190101 2.190949480241103 0.019124415089021234 -1 0 0
1303 1 83.486433413108 3.2857924749060445 1.578729802470347 -1 0 0
1150 5 85.383852354315 2.190949480241103 0.01912441508902124 -1 0 0
1305 5 83.486433413108 5.477375489655103 0.019124415089021143 -1 0 0
1309 1 87.281271295522 3.2857924749060445 1.5787298024703473 -1 0 0
1156 5 89.17869023672901 2.190949480241103 0.019124415089021234 -1 0 0
1315 1 91.076109177936 3.2857924749060445 1.578729802470347 -1 0 0
1311 5 87.281271295522 5.477375489655104 0.019124415089021667 -1 0 0
1317 5 91.076109177936 5.477375489655103 0.019124415089021143 -1 0 0
1162 5 92.973528119143 2.190949480241103 0.019124415089021237 -1 0 0
1321 1 94.87094706035 3.285792474906045 1.5787298024703473 -1 0 0
1168 5 96.76836600155701 2.1909494802411036 0.019124415089021386 -1 0 0
1323 5 94.87094706035 5.477375489655104 0.019124415089021653 -1 0 0
1328 1 1.8974189412069977 6.572218484320045 1.5787298024703473 0 0 0
1334 1 5.692256823620994 6.572218484320045 1.578729802470347 0 0 0
1330 5 1.8974189412069988 8.763801499069103 0.019124415089019617 0 0 0
1336 5 5.692256823620995 8.763801499069103 0.01912441508902058 0 0 0
1483 1 3.502692009137568e-15 9.858644493734044 1.5787298024703462 0 0 0
1489 1 3.7948378824139968 9.858644493734046 1.5787298024703467 0 0 0
1340 1 9.487094706034995 6.572218484320045 1.5787298024703473 0 0 0
1342 5 9.487094706034995 8.763801499069103 0.019124415089020737 0 0 0
1495 1 7.589675764827994 9.858644493734044 1.5787298024703467 0 0 0
1501 1 11.384513647241995 9.858644493734044 1.5787298024703467 0 0 0
1346 1 13.281932588448996 6.572218484320045 1.5787298024703473 0 0 0
1352 1 17.076770470862996 6.572218484320045 1.5787298024703473 0 0 0
1348 5 13.281932588448996 8.763801499069103 0.019124415089020935 0 0 0
1354 5 17.076770470863 8.763801499069103 0.019124415089020536 0 0 0
1507 1 15.179351529655998 9.858644493734044 1.5787298024703464 0 0 0
1358 1 20.871608353276994 6.572218484320045 1.5787298024703473 0 0 0
1360 5 20.871608353276994 8.763801499069103 0.01912441508902041 0 0 0
1513 1 18.974189412069997 9.858644493734044 1.5787298024703464 0 0 0
1519 1 22.769027294483994 9.858644493734044 1.5787298024703464 0 0 0
1364 1 24.666446235690994 6.572218484320045 1.578729802470347 0 0 0
1370 1 28.461284118104995 6.572218484320045 1.578729802470347 0 0 0
1366 5 24.666446235690994 8.763801499069103 0.019124415089020762 0 0 0
1372 5 28.461284118104995 8.763801499069103 0.019124415089020737 0 0 0
1525 1 26.563865176897995 9.858644493734044 1.5787298024703464 0 0 0
1376 1 32.256122000519 6.572218484320045 1.578729802470347 0 0 0
1378 5 32.256122000519 8.763801499069103 0.019124415089020765 0 0 0
1531 1 30.358703059311996 9.858644493734044 1.5787298024703458 0 0 0
1537 1 34.15354094172599 9.858644493734044 1.5787298024703464 0 0 0
1382 1 36.050959882933 6.572218484320045 1.578729802470347 0 0 0
1388 1 39.845797765347 6.572218484320045 1.578729802470347 0 0 0
1384 5 36.050959882933 8.763801499069103 0.01912441508902077 0 0 0
1390 5 39.845797765347 8.763801499069103 0.01912441508902077 0 0 0
1543 1 37.94837882413999 9.858644493734044 1.5787298024703464 0 0 0
1394 1 43.640635647761 6.572218484320045 1.578729802470347 0 0 0
1396 5 43.640635647761 8.763801499069103 0.01912441508902077 0 0 0
1549 1 41.743216706553994 9.858644493734044 1.5787298024703464 0 0 0
1555 1 45.538054588967995 9.858644493734044 1.5787298024703464 0 0 0
1400 1 47.435473530175 6.572218484320045 1.578729802470347 0 0 0
1250 1 51.230311412589 6.572218484320045 1.5787298024703473 -1 0 0
1402 5 47.435473530175 8.763801499069103 0.0191244150890213 0 0 0
1252 5 51.230311412589 8.763801499069103 0.019124415089020623 -1 0 0
1405 1 49.332892471382 9.858644493734046 1.5787298024703469 -1 0 0
1256 1 55.025149295003004 6.572218484320045 1.5787298024703473 -1 0 0
1258 5 55.025149295003004 8.763801499069103 0.019124415089020737 -1 0 0
1411 1 53.127730353796004 9.858644493734044 1.5787298024703467 -1 0 0
1417 1 56.922568236210004 9.858644493734044 1.5787298024703467 -1 0 0
1262 1 58.819987177417005 6.572218484320045 1.5787298024703473 -1 0 0
1268 1 62.614825059831 6.572218484320045 1.578729802470347 -1 0 0
1264 5 58.819987177417005 8.763801499069103 0.019124415089020748 -1 0 0
1270 5 62.614825059831006 8.763801499069103 0.019124415089020574 -1 0 0
1423 1 60.717406118624005 9.858644493734044 1.5787298024703467 -1 0 0
1274 1 66.40966294224499 6.572218484320045 1.578729802470347 -1 0 0
1276 5 66.409662942245 8.763801499069103 0.019124415089020772 -1 0 0
1429 1 64.51224400103801 9.858644493734044 1.5787298024703467 -1 0 0
1435 1 68.30708188345201 9.858644493734044 1.5787298024703464 -1 0 0
1280 1 70.204500824659 6.572218484320045 1.578729802470347 -1 0 0
1286 1 73.999338707073 6.572218484320045 1.5787298024703473 -1 0 0
1282 5 70.20450082465901 8.763801499069103 0.019124415089020765 -1 0 0
1288 5 73.99933870707301 8.763801499069103 0.019124415089019735 -1 0 0
1441 1 72.10191976586601 9.858644493734044 1.5787298024703464 -1 0 0
1292 1 77.79417658948701 6.572218484320045 1.578729802470347 -1 0 0
1294 5 77.794176589487 8.763801499069103 0.019124415089020772 -1 0 0
1447 1 75.89675764828 9.858644493734044 1.5787298024703464 -1 0 0
1453 1 79.691595530694 9.858644493734044 1.5787298024703464 -1 0 0
1298 1 81.589014471901 6.572218484320045 1.578729802470347 -1 0 0
1304 1 85.38385235431501 6.572218484320045 1.578729802470347 -1 0 0
1300 5 81.58901447190101 8.763801499069103 0.019124415089020772 -1 0 0
1306 5 85.383852354315 8.763801499069103 0.019124415089020772 -1 0 0
1459 1 83.486433413108 9.858644493734044 1.5787298024703464 -1 0 0
1310 1 89.178690236729 6.572218484320045 1.578729802470347 -1 0 0
1312 5 89.17869023672901 8.763801499069103 0.019124415089020772 -1 0 0
1465 1 87.281271295522 9.858644493734044 1.5787298024703464 -1 0 0
1471 1 91.076109177936 9.858644493734044 1.5787298024703464 -1 0 0
1316 1 92.97352811914301 6.572218484320045 1.578729802470347 -1 0 0
1322 1 96.768366001557 6.572218484320045 1.578729802470347 -1 0 0
1318 5 92.973528119143 8.763801499069103 0.019124415089020772 -1 0 0
1324 5 96.76836600155701 8.763801499069103 0.019124415089020998 -1 0 0
1477 1 94.87094706035 9.858644493734044 1.5787298024703464 -1 0 0
1485 5 5.5155922874386914e-17 12.050227508483104 0.019124415089020748 0 0 0
1484 1 1.897418941206998 13.145070503148043 1.5787298024703482 0 0 0
1491 5 3.794837882413996 12.050227508483102 0.019124415089020103 0 0 0
1490 1 5.692256823620994 13.145070503148043 1.5787298024703482 0 0 0
1486 5 1.897418941206999 15.3366535178971 0.019124415089020567 0 0 0
1492 5 5.692256823620995 15.336653517897101 0.019124415089021563 0 0 0
1639 1 3.3449381582940554e-15 16.431496512562042 1.5787298024703473 0 0 0
1645 1 3.7948378824139963 16.431496512562042 1.5787298024703473 0 0 0
1497 5 7.589675764827994 12.050227508483104 0.01912441508902108 0 0 0
1496 1 9.487094706034995 13.145070503148043 1.578729802470348 0 0 0
1503 5 11.384513647241995 12.050227508483104 0.01912441508902103 0 0 0
1498 5 9.487094706034995 15.336653517897101 0.01912441508902176 0 0 0
1651 1 7.589675764827994 16.431496512562042 1.5787298024703478 0 0 0
1657 1 11.384513647241995 16.431496512562042 1.5787298024703478 0 0 0
1502 1 13.281932588448996 13.145070503148043 1.578729802470348 0 0 0
1509 5 15.179351529655998 12.050227508483104 0.019124415089021917 0 0 0
1508 1 17.076770470862996 13.145070503148043 1.5787298024703482 0 0 0
1504 5 13.281932588448996 15.336653517897101 0.01912441508902195 0 0 0
1510 5 17.076770470863 15.336653517897101 0.019124415089021532 0 0 0
1663 1 15.179351529655998 16.431496512562042 1.5787298024703473 0 0 0
1515 5 18.974189412069997 12.050227508483102 0.019124415089019402 0 0 0
1514 1 20.871608353276997 13.145070503148043 1.578729802470348 0 0 0
1521 5 22.769027294483994 12.050227508483104 0.019124415089021067 0 0 0
1516 5 20.871608353276994 15.336653517897101 0.019124415089021334 0 0 0
1669 1 18.974189412069997 16.431496512562042 1.5787298024703476 0 0 0
1675 1 22.769027294483994 16.431496512562042 1.5787298024703478 0 0 0
1520 1 24.666446235690994 13.145070503148043 1.5787298024703478 0 0 0
1527 5 26.563865176897995 12.050227508483104 0.019124415089021022 0 0 0
1526 1 28.461284118104995 13.145070503148043 1.5787298024703478 0 0 0
1522 5 24.666446235690994 15.336653517897101 0.01912441508902182 0 0 0
1528 5 28.461284118104995 15.336653517897101 0.01912441508902185 0 0 0
1681 1 26.563865176897995 16.431496512562042 1.5787298024703478 0 0 0
1533 5 30.358703059311996 12.050227508483104 0.019124415089021074 0 0 0
1532 1 32.256122000519 13.145070503148043 1.5787298024703484 0 0 0
1539 5 34.15354094172599 12.050227508483104 0.019124415089021043 0 0 0
1534 5 32.25612200051899 15.336653517897101 0.019124415089021823 0 0 0
1687 1 30.358703059311992 16.431496512562042 1.5787298024703478 0 0 0
1693 1 34.15354094172599 16.431496512562042 1.5787298024703478 0 0 0
1538 1 36.050959882933 13.145070503148043 1.578729802470348 0 0 0
1545 5 37.94837882413999 12.050227508483104 0.019124415089021022 0 0 0
1544 1 39.845797765347 13.145070503148043 1.578729802470348 0 0 0
1540 5 36.05095988293299 15.336653517897101 0.019124415089021827 0 0 0
1546 5 39.845797765346994 15.336653517897101 0.019124415089021834 0 0 0
1699 1 37.94837882413999 16.431496512562042 1.5787298024703478 0 0 0
1551 5 41.743216706553994 12.050227508483104 0.019124415089021022 0 0 0
1550 1 43.640635647761 13.145070503148043 1.578729802470348 0 0 0
1557 5 45.538054588967995 12.050227508483104 0.019124415089020897 0 0 0
1552 5 43.640635647760995 15.336653517897101 0.019124415089021785 0 0 0
1705 1 41.743216706553994 16.431496512562042 1.5787298024703478 0 0 0
1711 1 45.538054588967995 16.431496512562042 1.578729802470347 0 0 0
1556 1 47.435473530175 13.145070503148043 1.5787298024703473 0 0 0
1407 5 49.332892471382 12.050227508483104 0.019124415089021882 -1 0 0
1406 1 51.230311412589 13.145070503148043 1.578729802470348 -1 0 0
1558 5 47.435473530175 15.336653517897101 0.01912441508902232 0 0 0
1408 5 51.230311412589 15.336653517897101 0.019124415089021643 -1 0 0
1561 1 49.332892471382 16.431496512562045 1.5787298024703482 -1 0 0
1413 5 53.127730353796004 12.050227508483104 0.01912441508902104 -1 0 0
1412 1 55.025149295003004 13.145070503148043 1.578729802470348 -1 0 0
1419 5 56.922568236210004 12.050227508483104 0.019124415089021057 -1 0 0
1414 5 55.025149295003004 15.336653517897101 0.01912441508902176 -1 0 0
1567 1 53.127730353796004 16.431496512562042 1.5787298024703478 -1 0 0
1573 1 56.922568236210004 16.431496512562042 1.5787298024703478 -1 0 0
1418 1 58.819987177417005 13.145070503148043 1.578729802470348 -1 0 0
1425 5 60.717406118624005 12.050227508483102 0.019124415089020585 -1 0 0
1424 1 62.614825059831 13.145070503148043 1.578729802470348 -1 0 0
1420 5 58.819987177417005 15.336653517897101 0.01912441508902177 -1 0 0
1426 5 62.614825059831006 15.336653517897101 0.019124415089021657 -1 0 0
1579 1 60.717406118624005 16.431496512562042 1.5787298024703476 -1 0 0
1431 5 64.512244001038 12.050227508483102 0.01912441508902055 -1 0 0
1430 1 66.40966294224499 13.145070503148043 1.578729802470348 -1 0 0
1437 5 68.307081883452 12.050227508483104 0.01912441508902102 -1 0 0
1432 5 66.409662942245 15.336653517897101 0.01912441508902057 -1 0 0
1585 1 64.51224400103801 16.431496512562042 1.5787298024703476 -1 0 0
1591 1 68.307081883452 16.431496512562042 1.5787298024703478 -1 0 0
1436 1 70.204500824659 13.145070503148043 1.5787298024703478 -1 0 0
1443 5 72.101919765866 12.050227508483104 0.01912441508902104 -1 0 0
1442 1 73.999338707073 13.145070503148043 1.5787298024703478 -1 0 0
1438 5 70.20450082465901 15.336653517897101 0.019124415089021837 -1 0 0
1444 5 73.99933870707301 15.336653517897101 0.019124415089022084 -1 0 0
1597 1 72.101919765866 16.431496512562042 1.5787298024703478 -1 0 0
1449 5 75.89675764828 12.050227508483102 0.019124415089020703 -1 0 0
1448 1 77.79417658948701 13.145070503148043 1.578729802470348 -1 0 0
1455 5 79.691595530694 12.050227508483104 0.019124415089021293 -1 0 0
1450 5 77.794176589487 15.336653517897101 0.01912441508902182 -1 0 0
1603 1 75.89675764828 16.431496512562042 1.5787298024703473 -1 0 0
1609 1 79.691595530694 16.431496512562042 1.5787298024703476 -1 0 0
1454 1 81.589014471901 13.145070503148043 1.578729802470348 -1 0 0
1461 5 83.486433413108 12.050227508483102 0.019124415089020682 -1 0 0
1460 1 85.38385235431501 13.145070503148043 1.578729802470348 -1 0 0
1456 5 81.58901447190101 15.336653517897101 0.01912441508902183 -1 0 0
1462 5 85.383852354315 15.336653517897101 0.019124415089021823 -1 0 0
1615 1 83.486433413108 16.431496512562042 1.5787298024703473 -1 0 0
1467 5 87.281271295522 12.050227508483104 0.019124415089021293 -1 0 0
1466 1 89.178690236729 13.145070503148043 1.578729802470348 -1 0 0
1473 5 91.076109177936 12.050227508483102 0.01912441508902068 -1 0 0
1468 5 89.17869023672901 15.336653517897101 0.01912441508902183 -1 0 0
1621 1 87.281271295522 16.431496512562042 1.5787298024703476 -1 0 0
1627 1 91.076109177936 16.431496512562042 1.5787298024703473 -1 0 0
1472 1 92.97352811914301 13.145070503148043 1.578729802470348 -1 0 0
1479 5 94.87094706035 12.050227508483104 0.019124415089021272 -1 0 0
1478 1 96.768366001557 13.145070503148043 1.578729802470348 -1 0 0
1474 5 92.973528119143 15.336653517897101 0.019124415089021823 -1 0 0
1480 5 96.76836600155701 15.336653517897101 0.019124415089022007 -1 0 0
1633 1 94.87094706035 16.431496512562042 1.5787298024703478 -1 0 0
1641 5 0 18.623079527311102 0.01912441508902106 0 0 0
1647 5 3.7948378824139954 18.623079527311102 0.019124415089020505 0 0 0
1640 1 1.8974189412069977 19.717922521976043 1.5787298024703473 0 0 0
1646 1 5.692256823620994 19.717922521976043 1.5787298024703473 0 0 0
1642 5 1.8974189412069988 21.909505536725103 0.019124415089020165 0 0 0
1795 1 3.3181094001054028e-15 23.004348531390043 1.578729802470347 0 0 0
1801 1 3.7948378824139968 23.004348531390043 1.5787298024703473 0 0 0
1648 5 5.692256823620995 21.909505536725103 0.019124415089021164 0 0 0
1653 5 7.589675764827994 18.623079527311102 0.019124415089021404 0 0 0
1659 5 11.384513647241995 18.623079527311102 0.01912441508902135 0 0 0
1652 1 9.487094706034995 19.717922521976043 1.5787298024703473 0 0 0
1807 1 7.589675764827994 23.004348531390043 1.5787298024703473 0 0 0
1654 5 9.487094706034995 21.909505536725103 0.01912441508902137 0 0 0
1813 1 11.384513647241995 23.004348531390043 1.5787298024703473 0 0 0
1665 5 15.179351529655998 18.623079527311102 0.019124415089022153 0 0 0
1658 1 13.281932588448996 19.717922521976043 1.5787298024703473 0 0 0
1664 1 17.076770470862996 19.717922521976043 1.5787298024703473 0 0 0
1660 5 13.281932588448996 21.909505536725103 0.019124415089021515 0 0 0
1819 1 15.179351529655998 23.004348531390043 1.5787298024703473 0 0 0
1666 5 17.076770470863 21.909505536725103 0.01912441508902116 0 0 0
1671 5 18.974189412069997 18.623079527311102 0.019124415089019815 0 0 0
1677 5 22.769027294483994 18.623079527311102 0.01912441508902135 0 0 0
1670 1 20.871608353276997 19.717922521976043 1.5787298024703473 0 0 0
1825 1 18.974189412069997 23.004348531390043 1.5787298024703473 0 0 0
1672 5 20.871608353276994 21.909505536725103 0.019124415089020953 0 0 0
1831 1 22.769027294483994 23.004348531390043 1.5787298024703473 0 0 0
1683 5 26.563865176897995 18.623079527311102 0.01912441508902131 0 0 0
1676 1 24.666446235690994 19.717922521976043 1.5787298024703473 0 0 0
1682 1 28.461284118104995 19.717922521976043 1.5787298024703473 0 0 0
1678 5 24.666446235690994 21.909505536725103 0.019124415089021293 0 0 0
1837 1 26.563865176897995 23.004348531390043 1.5787298024703473 0 0 0
1684 5 28.461284118104995 21.909505536725103 0.019124415089021313 0 0 0
1689 5 30.358703059311996 18.623079527311102 0.019124415089021313 0 0 0
1695 5 34.153540941726 18.623079527311102 0.019124415089021355 0 0 0
1688 1 32.256122000519 19.717922521976043 1.5787298024703473 0 0 0
1843 1 30.358703059311992 23.004348531390043 1.5787298024703473 0 0 0
1690 5 32.25612200051899 21.909505536725103 0.019124415089021355 0 0 0
1849 1 34.15354094172599 23.004348531390043 1.5787298024703473 0 0 0
1701 5 37.94837882414 18.623079527311102 0.01912441508902138 0 0 0
1694 1 36.050959882933 19.717922521976043 1.5787298024703473 0 0 0
1700 1 39.845797765347 19.717922521976043 1.5787298024703473 0 0 0
1696 5 36.05095988293299 21.909505536725103 0.01912441508902136 0 0 0
1855 1 37.94837882413999 23.004348531390043 1.5787298024703473 0 0 0
1702 5 39.845797765346994 21.909505536725103 0.01912441508902136 0 0 0
1707 5 41.743216706554 18.623079527311102 0.019124415089021383 0 0 0
1713 5 45.538054588968 18.623079527311102 0.019124415089021303 0 0 0
1706 1 43.640635647761 19.717922521976043 1.5787298024703473 0 0 0
1861 1 41.743216706553994 23.004348531390043 1.5787298024703473 0 0 0
1708 5 43.640635647760995 21.909505536725103 0.01912441508902131 0 0 0
1867 1 45.538054588967995 23.004348531390043 1.5787298024703467 0 0 0
1563 5 49.332892471382 18.623079527311102 0.01912441508902217 -1 0 0
1712 1 47.435473530175 19.717922521976043 1.5787298024703473 0 0 0
1562 1 51.230311412589 19.717922521976043 1.5787298024703473 -1 0 0
1714 5 47.435473530175 21.909505536725103 0.019124415089021855 0 0 0
1564 5 51.230311412589 21.909505536725103 0.01912441508902126 -1 0 0
1717 1 49.332892471382 23.004348531390043 1.5787298024703482 -1 0 0
1569 5 53.127730353796004 18.623079527311102 0.01912441508902136 -1 0 0
1575 5 56.922568236210004 18.623079527311102 0.01912441508902139 -1 0 0
1568 1 55.025149295003004 19.717922521976043 1.5787298024703473 -1 0 0
1723 1 53.127730353796004 23.004348531390043 1.5787298024703473 -1 0 0
1570 5 55.025149295003004 21.909505536725103 0.01912441508902137 -1 0 0
1729 1 56.922568236210004 23.004348531390043 1.5787298024703473 -1 0 0
1581 5 60.717406118624005 18.623079527311102 0.019124415089021525 -1 0 0
1574 1 58.819987177417005 19.717922521976043 1.5787298024703473 -1 0 0
1580 1 62.614825059831006 19.717922521976043 1.5787298024703473 -1 0 0
1576 5 58.819987177417005 21.909505536725103 0.019124415089021376 -1 0 0
1735 1 60.717406118624005 23.004348531390043 1.5787298024703473 -1 0 0
1582 5 62.614825059831006 21.909505536725103 0.019124415089021227 -1 0 0
1587 5 64.512244001038 18.623079527311102 0.01912441508902146 -1 0 0
1593 5 68.307081883452 18.623079527311102 0.01912441508902132 -1 0 0
1586 1 66.409662942245 19.717922521976043 1.5787298024703473 -1 0 0
1741 1 64.51224400103801 23.004348531390043 1.5787298024703473 -1 0 0
1588 5 66.409662942245 21.909505536725103 0.01912441508901996 -1 0 0
1747 1 68.307081883452 23.004348531390043 1.5787298024703473 -1 0 0
1599 5 72.101919765866 18.623079527311102 0.01912441508901999 -1 0 0
1592 1 70.20450082465901 19.717922521976043 1.5787298024703473 -1 0 0
1598 1 73.999338707073 19.717922521976043 1.5787298024703473 -1 0 0
1594 5 70.20450082465901 21.909505536725103 0.019124415089021293 -1 0 0
1753 1 72.101919765866 23.004348531390043 1.5787298024703473 -1 0 0
1600 5 73.99933870707301 21.909505536725103 0.01912441508902163 -1 0 0
1605 5 75.89675764828 18.623079527311102 0.019124415089021116 -1 0 0
1611 5 79.691595530694 18.623079527311102 0.01912441508902152 -1 0 0
1604 1 77.79417658948701 19.717922521976043 1.5787298024703473 -1 0 0
1759 1 75.89675764828 23.004348531390043 1.5787298024703473 -1 0 0
1606 5 77.794176589487 21.909505536725103 0.019124415089021313 -1 0 0
1765 1 79.691595530694 23.004348531390043 1.5787298024703473 -1 0 0
1617 5 83.486433413108 18.623079527311102 0.019124415089021084 -1 0 0
1610 1 81.589014471901 19.717922521976043 1.5787298024703473 -1 0 0
1616 1 85.38385235431501 19.717922521976043 1.5787298024703473 -1 0 0
1612 5 81.58901447190101 21.909505536725103 0.01912441508902131 -1 0 0
1771 1 83.486433413108 23.004348531390043 1.5787298024703473 -1 0 0
1618 5 85.383852354315 21.909505536725103 0.019124415089021313 -1 0 0
1623 5 87.281271295522 18.623079527311102 0.01912441508902152 -1 0 0
1629 5 91.076109177936 18.623079527311102 0.019124415089021084 -1 0 0
1622 1 89.178690236729 19.717922521976043 1.5787298024703473 -1 0 0
1777 1 87.281271295522 23.004348531390043 1.5787298024703473 -1 0 0
1624 5 89.17869023672901 21.909505536725103 0.019124415089021313 -1 0 0
1783 1 91.076109177936 23.004348531390043 1.5787298024703473 -1 0 0
1635 5 94.87094706035 18.623079527311102 0.019124415089021515 -1 0 0
1628 1 92.97352811914301 19.717922521976043 1.5787298024703473 -1 0 0
1634 1 96.768366001557 19.717922521976043 1.5787298024703473 -1 0 0
1630 5 92.973528119143 21.909505536725103 0.019124415089021313 -1 0 0
1789 1 94.87094706035 23.004348531390043 1.5787298024703476 -1 0 0
1636 5 96.76836600155701 21.909505536725103 0.019124415089021535 -1 0 0
1797 5 0 25.195931546139104 0.01912441508902105 0 0 0
1803 5 3.7948378824139954 25.195931546139104 0.01912441508902049 0 0 0
1796 1 1.8974189412069977 26.290774540804044 1.5787298024703473 0 0 0
1802 1 5.692256823620994 26.290774540804044 1.5787298024703473 0 0 0
1798 5 1.8974189412069988 28.482357555553104 0.019124415089020165 0 0 0
1804 5 5.692256823620995 28.482357555553104 0.019124415089021164 0 0 0
1809 5 7.589675764827994 25.195931546139104 0.01912441508902138 0 0 0
1815 5 11.384513647241995 25.195931546139104 0.019124415089021327 0 0 0
1808 1 9.487094706034995 26.290774540804044 1.5787298024703473 0 0 0
1810 5 9.487094706034995 28.482357555553104 0.01912441508902137 0 0 0
1821 5 15.179351529655998 25.195931546139104 0.019124415089022125 0 0 0
1814 1 13.281932588448996 26.290774540804044 1.5787298024703473 0 0 0
1820 1 17.076770470862996 26.290774540804044 1.5787298024703473 0 0 0
1816 5 13.281932588448996 28.482357555553104 0.019124415089021515 0 0 0
1822 5 17.076770470863 28.482357555553104 0.019124415089021164 0 0 0
1827 5 18.974189412069997 25.195931546139104 0.01912441508901979 0 0 0
1833 5 22.769027294483994 25.195931546139104 0.019124415089021327 0 0 0
1826 1 20.871608353276997 26.290774540804044 1.5787298024703473 0 0 0
1828 5 20.871608353276994 28.482357555553104 0.019124415089020953 0 0 0
1839 5 26.563865176897995 25.195931546139104 0.019124415089021282 0 0 0
1832 1 24.666446235690994 26.290774540804044 1.5787298024703473 0 0 0
1838 1 28.461284118104995 26.290774540804044 1.5787298024703473 0 0 0
1834 5 24.666446235690994 28.482357555553104 0.01912441508902129 0 0 0
1840 5 28.461284118104995 28.482357555553104 0.019124415089021313 0 0 0
1845 5 30.358703059311996 25.195931546139104 0.01912441508902129 0 0 0
1851 5 34.153540941726 25.195931546139104 0.019124415089021327 0 0 0
1844 1 32.256122000519 26.290774540804044 1.5787298024703473 0 0 0
1846 5 32.25612200051899 28.482357555553104 0.01912441508902136 0 0 0
1857 5 37.94837882414 25.195931546139104 0.01912441508902135 0 0 0
1850 1 36.050959882933 26.290774540804044 1.5787298024703473 0 0 0
1856 1 39.845797765347 26.290774540804044 1.5787298024703473 0 0 0
1852 5 36.05095988293299 28.482357555553104 0.01912441508902136 0 0 0
1858 5 39.845797765346994 28.482357555553104 0.01912441508902136 0 0 0
1863 5 41.743216706554 25.195931546139104 0.019124415089021355 0 0 0
1869 5 45.538054588968 25.195931546139104 0.019124415089021275 0 0 0
1862 1 43.640635647761 26.290774540804044 1.5787298024703473 0 0 0
1864 5 43.640635647760995 28.482357555553104 0.01912441508902131 0 0 0
1719 5 49.332892471382 25.195931546139104 0.019124415089022143 -1 0 0
1868 1 47.435473530175 26.290774540804044 1.5787298024703473 0 0 0
1718 1 51.230311412589 26.290774540804044 1.5787298024703473 -1 0 0
1870 5 47.435473530175 28.482357555553104 0.019124415089021855 0 0 0
1720 5 51.230311412589 28.482357555553104 0.01912441508902126 -1 0 0
1725 5 53.127730353796004 25.195931546139104 0.01912441508902133 -1 0 0
1731 5 56.922568236210004 25.195931546139104 0.019124415089021365 -1 0 0
1724 1 55.025149295003004 26.290774540804044 1.5787298024703473 -1 0 0
1726 5 55.025149295003004 28.482357555553104 0.01912441508902137 -1 0 0
1737 5 60.717406118624005 25.195931546139104 0.01912441508902151 -1 0 0
1730 1 58.819987177417005 26.290774540804044 1.5787298024703473 -1 0 0
1736 1 62.614825059831006 26.290774540804044 1.5787298024703473 -1 0 0
1732 5 58.819987177417005 28.482357555553104 0.019124415089021376 -1 0 0
1738 5 62.614825059831006 28.482357555553104 0.019124415089021227 -1 0 0
1743 5 64.512244001038 25.195931546139104 0.019124415089021445 -1 0 0
1749 5 68.307081883452 25.195931546139104 0.019124415089021293 -1 0 0
1742 1 66.409662942245 26.290774540804044 1.5787298024703473 -1 0 0
1744 5 66.409662942245 28.482357555553104 0.019124415089019957 -1 0 0
1755 5 72.101919765866 25.195931546139104 0.019124415089019967 -1 0 0
1748 1 70.20450082465901 26.290774540804044 1.5787298024703473 -1 0 0
1754 1 73.999338707073 26.290774540804044 1.5787298024703473 -1 0 0
1750 5 70.20450082465901 28.482357555553104 0.019124415089021293 -1 0 0
1756 5 73.99933870707301 28.482357555553104 0.019124415089021622 -1 0 0
1761 5 75.89675764828 25.195931546139104 0.01912441508902109 -1 0 0
1767 5 79.691595530694 25.195931546139104 0.019124415089021494 -1 0 0
1760 1 77.79417658948701 26.290774540804044 1.5787298024703473 -1 0 0