LAMMPS data file via write_data, version 29 Aug 2024, timestep = 0, units = metal

2340 atoms
3 atom types

0 98.665784942764 xlo xhi
0 98.59278028242 ylo yhi
0 18.150470471839 zlo zhi

Masses

1 91.224
2 78.95999999999999
3 78.971

Atoms # atomic

1172 1 1.8974189412070004 0 1.580605305131999 0 0 0
1178 1 5.692256823620994 0 1.580605305131999 0 0 0
1184 1 9.487094706034995 0 1.580605305131999 0 0 0
1190 1 13.281932588448996 0 1.580605305131999 0 0 0
1196 1 17.076770470863003 0 1.580605305131999 0 0 0
1202 1 20.87160835327699 0 1.580605305131999 0 0 0
1208 1 24.66644623569099 0 1.580605305131999 0 0 0
1214 1 28.46128411810499 0 1.580605305131999 0 0 0
1220 1 32.25612200051899 0 1.580605305131999 0 0 0
1226 1 36.05095988293299 0 1.580605305131999 0 0 0
1232 1 39.845797765346994 0 1.580605305131999 0 0 0
1238 1 43.640635647760995 0 1.580605305131999 0 0 0
1244 1 47.435473530174995 0 1.580605305131999 0 0 0
1094 1 51.230311412589 0 1.580605305131999 -1 0 0
1100 1 55.025149295003004 0 1.580605305131999 -1 0 0
1106 1 58.819987177417005 0 1.580605305131999 -1 0 0
1112 1 62.614825059831006 0 1.580605305131999 -1 0 0
1118 1 66.409662942245 0 1.580605305131999 -1 0 0
1124 1 70.20450082465901 0 1.580605305131999 -1 0 0
1130 1 73.99933870707301 0 1.580605305131999 -1 0 0
1136 1 77.794176589487 0 1.580605305131999 -1 0 0
1142 1 81.58901447190101 0 1.580605305131999 -1 0 0
1148 1 85.383852354315 0 1.580605305131999 -1 0 0
1154 1 89.17869023672901 0 1.580605305131999 -1 0 0
1160 1 92.973528119143 0 1.580605305131999 -1 0 0
1166 1 96.76836600155701 0 1.580605305131999 -1 0 0
1174 3 1.8974189412070004 2.1909506729420016 0 0 0 0
1327 1 0 3.2864260094140008 1.580605305131999 0 0 0
1333 1 3.7948378824139937 3.2864260094140008 1.580605305131999 0 0 0
1180 3 5.692256823620994 2.1909506729420016 0 0 0 0
1339 1 7.589675764827994 3.2864260094140008 1.580605305131999 0 0 0
1186 3 9.487094706034995 2.1909506729420016 0 0 0 0
1345 1 11.384513647241995 3.2864260094140008 1.580605305131999 0 0 0
1192 3 13.281932588448996 2.1909506729420016 0 0 0 0
1351 1 15.179351529655996 3.2864260094140008 1.580605305131999 0 0 0
1198 3 17.076770470863003 2.1909506729420016 0 0 0 0
1357 1 18.974189412069997 3.2864260094140008 1.580605305131999 0 0 0
1204 3 20.87160835327699 2.1909506729420016 0 0 0 0
1363 1 22.769027294483998 3.2864260094140008 1.580605305131999 0 0 0
1210 3 24.66644623569099 2.1909506729420016 0 0 0 0
1369 1 26.563865176898 3.2864260094140008 1.580605305131999 0 0 0
1216 3 28.46128411810499 2.1909506729420016 0 0 0 0
1375 1 30.358703059312 3.2864260094140008 1.580605305131999 0 0 0
1222 3 32.25612200051899 2.1909506729420016 0 0 0 0
1381 1 34.153540941726 3.2864260094140008 1.580605305131999 0 0 0
1228 3 36.05095988293299 2.1909506729420016 0 0 0 0
1387 1 37.94837882414 3.2864260094140008 1.580605305131999 0 0 0
1234 3 39.845797765346994 2.1909506729420016 0 0 0 0
1393 1 41.743216706554 3.2864260094140008 1.580605305131999 0 0 0
1240 3 43.640635647760995 2.1909506729420016 0 0 0 0
1399 1 45.538054588968 3.2864260094140008 1.580605305131999 0 0 0
1246 3 47.435473530174995 2.1909506729420016 0 0 0 0
1096 3 51.230311412589 2.1909506729420016 0 -1 0 0
1249 1 49.332892471382 3.2864260094140008 1.580605305131999 -1 0 0
1255 1 53.127730353796004 3.2864260094140008 1.580605305131999 -1 0 0
1102 3 55.025149295003004 2.1909506729420016 0 -1 0 0
1261 1 56.922568236210004 3.2864260094140008 1.580605305131999 -1 0 0
1108 3 58.819987177417005 2.1909506729420016 0 -1 0 0
1267 1 60.717406118624005 3.2864260094140008 1.580605305131999 -1 0 0
1114 3 62.614825059831006 2.1909506729420016 0 -1 0 0
1273 1 64.512244001038 3.2864260094140008 1.580605305131999 -1 0 0
1120 3 66.409662942245 2.1909506729420016 0 -1 0 0
1279 1 68.307081883452 3.2864260094140008 1.580605305131999 -1 0 0
1126 3 70.20450082465901 2.1909506729420016 0 -1 0 0
1285 1 72.101919765866 3.2864260094140008 1.580605305131999 -1 0 0
1132 3 73.99933870707301 2.1909506729420016 0 -1 0 0
1291 1 75.89675764828 3.2864260094140008 1.580605305131999 -1 0 0
1138 3 77.794176589487 2.1909506729420016 0 -1 0 0
1297 1 79.691595530694 3.2864260094140008 1.580605305131999 -1 0 0
1144 3 81.58901447190101 2.1909506729420016 0 -1 0 0
1303 1 83.486433413108 3.2864260094140008 1.580605305131999 -1 0 0
1150 3 85.383852354315 2.1909506729420016 0 -1 0 0
1309 1 87.281271295522 3.2864260094140008 1.580605305131999 -1 0 0
1156 3 89.17869023672901 2.1909506729420016 0 -1 0 0
1315 1 91.076109177936 3.2864260094140008 1.580605305131999 -1 0 0
1162 3 92.973528119143 2.1909506729420016 0 -1 0 0
1321 1 94.87094706035 3.2864260094140008 1.580605305131999 -1 0 0
1168 3 96.76836600155701 2.1909506729420016 0 -1 0 0
1329 3 0 5.477376682356002 0 0 0 0
1335 3 3.7948378824139937 5.477376682356002 0 0 0 0
1341 3 7.589675764827994 5.477376682356002 0 0 0 0
1347 3 11.384513647241995 5.477376682356002 0 0 0 0
1353 3 15.179351529655996 5.477376682356002 0 0 0 0
1359 3 18.974189412069997 5.477376682356002 0 0 0 0
1365 3 22.769027294483998 5.477376682356002 0 0 0 0
1371 3 26.563865176898 5.477376682356002 0 0 0 0
1377 3 30.358703059312 5.477376682356002 0 0 0 0
1383 3 34.153540941726 5.477376682356002 0 0 0 0
1389 3 37.94837882414 5.477376682356002 0 0 0 0
1395 3 41.743216706554 5.477376682356002 0 0 0 0
1401 3 45.538054588968 5.477376682356002 0 0 0 0
1251 3 49.332892471382 5.477376682356002 0 -1 0 0
1257 3 53.127730353796004 5.477376682356002 0 -1 0 0
1263 3 56.922568236210004 5.477376682356002 0 -1 0 0
1269 3 60.717406118624005 5.477376682356002 0 -1 0 0
1275 3 64.512244001038 5.477376682356002 0 -1 0 0
1281 3 68.307081883452 5.477376682356002 0 -1 0 0
1287 3 72.101919765866 5.477376682356002 0 -1 0 0
1293 3 75.89675764828 5.477376682356002 0 -1 0 0
1299 3 79.691595530694 5.477376682356002 0 -1 0 0
1305 3 83.486433413108 5.477376682356002 0 -1 0 0
1311 3 87.281271295522 5.477376682356002 0 -1 0 0
1317 3 91.076109177936 5.477376682356002 0 -1 0 0
1323 3 94.87094706035 5.477376682356002 0 -1 0 0
1328 1 1.8974189412070004 6.5728520188280015 1.580605305131999 0 0 0
1334 1 5.692256823620994 6.5728520188280015 1.580605305131999 0 0 0
1340 1 9.487094706034995 6.5728520188280015 1.580605305131999 0 0 0
1346 1 13.281932588448996 6.5728520188280015 1.580605305131999 0 0 0
1352 1 17.076770470863003 6.5728520188280015 1.580605305131999 0 0 0
1358 1 20.87160835327699 6.5728520188280015 1.580605305131999 0 0 0
1364 1 24.66644623569099 6.5728520188280015 1.580605305131999 0 0 0
1370 1 28.46128411810499 6.5728520188280015 1.580605305131999 0 0 0
1376 1 32.25612200051899 6.5728520188280015 1.580605305131999 0 0 0
1382 1 36.05095988293299 6.5728520188280015 1.580605305131999 0 0 0
1388 1 39.845797765346994 6.5728520188280015 1.580605305131999 0 0 0
1394 1 43.640635647760995 6.5728520188280015 1.580605305131999 0 0 0
1400 1 47.435473530174995 6.5728520188280015 1.580605305131999 0 0 0
1250 1 51.230311412589 6.5728520188280015 1.580605305131999 -1 0 0
1256 1 55.025149295003004 6.5728520188280015 1.580605305131999 -1 0 0
1262 1 58.819987177417005 6.5728520188280015 1.580605305131999 -1 0 0
1268 1 62.614825059831006 6.5728520188280015 1.580605305131999 -1 0 0
1274 1 66.409662942245 6.5728520188280015 1.580605305131999 -1 0 0
1280 1 70.20450082465901 6.5728520188280015 1.580605305131999 -1 0 0
1286 1 73.99933870707301 6.5728520188280015 1.580605305131999 -1 0 0
1292 1 77.794176589487 6.5728520188280015 1.580605305131999 -1 0 0
1298 1 81.58901447190101 6.5728520188280015 1.580605305131999 -1 0 0
1304 1 85.383852354315 6.5728520188280015 1.580605305131999 -1 0 0
1310 1 89.17869023672901 6.5728520188280015 1.580605305131999 -1 0 0
1316 1 92.973528119143 6.5728520188280015 1.580605305131999 -1 0 0
1322 1 96.76836600155701 6.5728520188280015 1.580605305131999 -1 0 0
1330 3 1.8974189412070004 8.763802691770003 0 0 0 0
1336 3 5.692256823620994 8.763802691770003 0 0 0 0
1342 3 9.487094706034995 8.763802691770003 0 0 0 0
1348 3 13.281932588448996 8.763802691770003 0 0 0 0
1354 3 17.076770470863003 8.763802691770003 0 0 0 0
1360 3 20.87160835327699 8.763802691770003 0 0 0 0
1366 3 24.66644623569099 8.763802691770003 0 0 0 0
1372 3 28.46128411810499 8.763802691770003 0 0 0 0
1378 3 32.25612200051899 8.763802691770003 0 0 0 0
1384 3 36.05095988293299 8.763802691770003 0 0 0 0
1390 3 39.845797765346994 8.763802691770003 0 0 0 0
1396 3 43.640635647760995 8.763802691770003 0 0 0 0
1402 3 47.435473530174995 8.763802691770003 0 0 0 0
1252 3 51.230311412589 8.763802691770003 0 -1 0 0
1258 3 55.025149295003004 8.763802691770003 0 -1 0 0
1264 3 58.819987177417005 8.763802691770003 0 -1 0 0
1270 3 62.614825059831006 8.763802691770003 0 -1 0 0
1276 3 66.409662942245 8.763802691770003 0 -1 0 0
1282 3 70.20450082465901 8.763802691770003 0 -1 0 0
1288 3 73.99933870707301 8.763802691770003 0 -1 0 0
1294 3 77.794176589487 8.763802691770003 0 -1 0 0
1300 3 81.58901447190101 8.763802691770003 0 -1 0 0
1306 3 85.383852354315 8.763802691770003 0 -1 0 0
1312 3 89.17869023672901 8.763802691770003 0 -1 0 0
1318 3 92.973528119143 8.763802691770003 0 -1 0 0
1324 3 96.76836600155701 8.763802691770003 0 -1 0 0
1483 1 0 9.859278028242002 1.580605305131999 0 0 0
1489 1 3.7948378824139937 9.859278028242002 1.580605305131999 0 0 0
1495 1 7.589675764827994 9.859278028242002 1.580605305131999 0 0 0
1501 1 11.384513647241995 9.859278028242002 1.580605305131999 0 0 0
1507 1 15.179351529655996 9.859278028242002 1.580605305131999 0 0 0
1513 1 18.974189412069997 9.859278028242002 1.580605305131999 0 0 0
1519 1 22.769027294483998 9.859278028242002 1.580605305131999 0 0 0
1525 1 26.563865176898 9.859278028242002 1.580605305131999 0 0 0
1531 1 30.358703059312 9.859278028242002 1.580605305131999 0 0 0
1537 1 34.153540941726 9.859278028242002 1.580605305131999 0 0 0
1543 1 37.94837882414 9.859278028242002 1.580605305131999 0 0 0
1549 1 41.743216706554 9.859278028242002 1.580605305131999 0 0 0
1555 1 45.538054588968 9.859278028242002 1.580605305131999 0 0 0
1405 1 49.332892471382 9.859278028242002 1.580605305131999 -1 0 0
1411 1 53.127730353796004 9.859278028242002 1.580605305131999 -1 0 0
1417 1 56.922568236210004 9.859278028242002 1.580605305131999 -1 0 0
1423 1 60.717406118624005 9.859278028242002 1.580605305131999 -1 0 0
1429 1 64.512244001038 9.859278028242002 1.580605305131999 -1 0 0
1435 1 68.307081883452 9.859278028242002 1.580605305131999 -1 0 0
1441 1 72.101919765866 9.859278028242002 1.580605305131999 -1 0 0
1447 1 75.89675764828 9.859278028242002 1.580605305131999 -1 0 0
1453 1 79.691595530694 9.859278028242002 1.580605305131999 -1 0 0
1459 1 83.486433413108 9.859278028242002 1.580605305131999 -1 0 0
1465 1 87.281271295522 9.859278028242002 1.580605305131999 -1 0 0
1471 1 91.076109177936 9.859278028242002 1.580605305131999 -1 0 0
1477 1 94.87094706035 9.859278028242002 1.580605305131999 -1 0 0
1485 3 0 12.050228701184004 0 0 0 0
1484 1 1.8974189412070004 13.145704037656003 1.580605305131999 0 0 0
1491 3 3.7948378824139937 12.050228701184004 0 0 0 0
1490 1 5.692256823620994 13.145704037656003 1.580605305131999 0 0 0
1497 3 7.589675764827994 12.050228701184004 0 0 0 0
1496 1 9.487094706034995 13.145704037656003 1.580605305131999 0 0 0
1503 3 11.384513647241995 12.050228701184004 0 0 0 0
1502 1 13.281932588448996 13.145704037656003 1.580605305131999 0 0 0
1509 3 15.179351529655996 12.050228701184004 0 0 0 0
1508 1 17.076770470863003 13.145704037656003 1.580605305131999 0 0 0
1515 3 18.974189412069997 12.050228701184004 0 0 0 0
1514 1 20.87160835327699 13.145704037656003 1.580605305131999 0 0 0
1521 3 22.769027294483998 12.050228701184004 0 0 0 0
1520 1 24.66644623569099 13.145704037656003 1.580605305131999 0 0 0
1527 3 26.563865176898 12.050228701184004 0 0 0 0
1526 1 28.46128411810499 13.145704037656003 1.580605305131999 0 0 0
1533 3 30.358703059312 12.050228701184004 0 0 0 0
1532 1 32.25612200051899 13.145704037656003 1.580605305131999 0 0 0
1539 3 34.153540941726 12.050228701184004 0 0 0 0
1538 1 36.05095988293299 13.145704037656003 1.580605305131999 0 0 0
1545 3 37.94837882414 12.050228701184004 0 0 0 0
1544 1 39.845797765346994 13.145704037656003 1.580605305131999 0 0 0
1551 3 41.743216706554 12.050228701184004 0 0 0 0
1550 1 43.640635647760995 13.145704037656003 1.580605305131999 0 0 0
1557 3 45.538054588968 12.050228701184004 0 0 0 0
1556 1 47.435473530174995 13.145704037656003 1.580605305131999 0 0 0
1407 3 49.332892471382 12.050228701184004 0 -1 0 0
1406 1 51.230311412589 13.145704037656003 1.580605305131999 -1 0 0
1413 3 53.127730353796004 12.050228701184004 0 -1 0 0
1412 1 55.025149295003004 13.145704037656003 1.580605305131999 -1 0 0
1419 3 56.922568236210004 12.050228701184004 0 -1 0 0
1418 1 58.819987177417005 13.145704037656003 1.580605305131999 -1 0 0
1425 3 60.717406118624005 12.050228701184004 0 -1 0 0
1424 1 62.614825059831006 13.145704037656003 1.580605305131999 -1 0 0
1431 3 64.512244001038 12.050228701184004 0 -1 0 0
1430 1 66.409662942245 13.145704037656003 1.580605305131999 -1 0 0
1437 3 68.307081883452 12.050228701184004 0 -1 0 0
1436 1 70.20450082465901 13.145704037656003 1.580605305131999 -1 0 0
1443 3 72.101919765866 12.050228701184004 0 -1 0 0
1442 1 73.99933870707301 13.145704037656003 1.580605305131999 -1 0 0
1449 3 75.89675764828 12.050228701184004 0 -1 0 0
1448 1 77.794176589487 13.145704037656003 1.580605305131999 -1 0 0
1455 3 79.691595530694 12.050228701184004 0 -1 0 0
1454 1 81.58901447190101 13.145704037656003 1.580605305131999 -1 0 0
1461 3 83.486433413108 12.050228701184004 0 -1 0 0
1460 1 85.383852354315 13.145704037656003 1.580605305131999 -1 0 0
1467 3 87.281271295522 12.050228701184004 0 -1 0 0
1466 1 89.17869023672901 13.145704037656003 1.580605305131999 -1 0 0
1473 3 91.076109177936 12.050228701184004 0 -1 0 0
1472 1 92.973528119143 13.145704037656003 1.580605305131999 -1 0 0
1479 3 94.87094706035 12.050228701184004 0 -1 0 0
1478 1 96.76836600155701 13.145704037656003 1.580605305131999 -1 0 0
1486 3 1.8974189412070004 15.336654710597998 0 0 0 0
1492 3 5.692256823620994 15.336654710597998 0 0 0 0
1498 3 9.487094706034995 15.336654710597998 0 0 0 0
1504 3 13.281932588448996 15.336654710597998 0 0 0 0
1510 3 17.076770470863003 15.336654710597998 0 0 0 0
1516 3 20.87160835327699 15.336654710597998 0 0 0 0
1522 3 24.66644623569099 15.336654710597998 0 0 0 0
1528 3 28.46128411810499 15.336654710597998 0 0 0 0
1534 3 32.25612200051899 15.336654710597998 0 0 0 0
1540 3 36.05095988293299 15.336654710597998 0 0 0 0
1546 3 39.845797765346994 15.336654710597998 0 0 0 0
1552 3 43.640635647760995 15.336654710597998 0 0 0 0
1558 3 47.435473530174995 15.336654710597998 0 0 0 0
1408 3 51.230311412589 15.336654710597998 0 -1 0 0
1414 3 55.025149295003004 15.336654710597998 0 -1 0 0
1420 3 58.819987177417005 15.336654710597998 0 -1 0 0
1426 3 62.614825059831006 15.336654710597998 0 -1 0 0
1432 3 66.409662942245 15.336654710597998 0 -1 0 0
1438 3 70.20450082465901 15.336654710597998 0 -1 0 0
1444 3 73.99933870707301 15.336654710597998 0 -1 0 0
1450 3 77.794176589487 15.336654710597998 0 -1 0 0
1456 3 81.58901447190101 15.336654710597998 0 -1 0 0
1462 3 85.383852354315 15.336654710597998 0 -1 0 0
1468 3 89.17869023672901 15.336654710597998 0 -1 0 0
1474 3 92.973528119143 15.336654710597998 0 -1 0 0
1480 3 96.76836600155701 15.336654710597998 0 -1 0 0
1639 1 0 16.432130047070004 1.580605305131999 0 0 0
1645 1 3.7948378824139937 16.432130047070004 1.580605305131999 0 0 0
1651 1 7.589675764827994 16.432130047070004 1.580605305131999 0 0 0
1657 1 11.384513647241995 16.432130047070004 1.580605305131999 0 0 0
1663 1 15.179351529655996 16.432130047070004 1.580605305131999 0 0 0
1669 1 18.974189412069997 16.432130047070004 1.580605305131999 0 0 0
1675 1 22.769027294483998 16.432130047070004 1.580605305131999 0 0 0
1681 1 26.563865176898 16.432130047070004 1.580605305131999 0 0 0
1687 1 30.358703059312 16.432130047070004 1.580605305131999 0 0 0
1693 1 34.153540941726 16.432130047070004 1.580605305131999 0 0 0
1699 1 37.94837882414 16.432130047070004 1.580605305131999 0 0 0
1705 1 41.743216706554 16.432130047070004 1.580605305131999 0 0 0
1711 1 45.538054588968 16.432130047070004 1.580605305131999 0 0 0
1561 1 49.332892471382 16.432130047070004 1.580605305131999 -1 0 0
1567 1 53.127730353796004 16.432130047070004 1.580605305131999 -1 0 0
1573 1 56.922568236210004 16.432130047070004 1.580605305131999 -1 0 0
1579 1 60.717406118624005 16.432130047070004 1.580605305131999 -1 0 0
1585 1 64.512244001038 16.432130047070004 1.580605305131999 -1 0 0
1591 1 68.307081883452 16.432130047070004 1.580605305131999 -1 0 0
1597 1 72.101919765866 16.432130047070004 1.580605305131999 -1 0 0
1603 1 75.89675764828 16.432130047070004 1.580605305131999 -1 0 0
1609 1 79.691595530694 16.432130047070004 1.580605305131999 -1 0 0
1615 1 83.486433413108 16.432130047070004 1.580605305131999 -1 0 0
1621 1 87.281271295522 16.432130047070004 1.580605305131999 -1 0 0
1627 1 91.076109177936 16.432130047070004 1.580605305131999 -1 0 0
1633 1 94.87094706035 16.432130047070004 1.580605305131999 -1 0 0
1641 3 0 18.623080720012 0 0 0 0
1647 3 3.7948378824139937 18.623080720012 0 0 0 0
1653 3 7.589675764827994 18.623080720012 0 0 0 0
1659 3 11.384513647241995 18.623080720012 0 0 0 0
1665 3 15.179351529655996 18.623080720012 0 0 0 0
1671 3 18.974189412069997 18.623080720012 0 0 0 0
1677 3 22.769027294483998 18.623080720012 0 0 0 0
1683 3 26.563865176898 18.623080720012 0 0 0 0
1689 3 30.358703059312 18.623080720012 0 0 0 0
1695 3 34.153540941726 18.623080720012 0 0 0 0
1701 3 37.94837882414 18.623080720012 0 0 0 0
1707 3 41.743216706554 18.623080720012 0 0 0 0
1713 3 45.538054588968 18.623080720012 0 0 0 0
1563 3 49.332892471382 18.623080720012 0 -1 0 0
1569 3 53.127730353796004 18.623080720012 0 -1 0 0
1575 3 56.922568236210004 18.623080720012 0 -1 0 0
1581 3 60.717406118624005 18.623080720012 0 -1 0 0
1587 3 64.512244001038 18.623080720012 0 -1 0 0
1593 3 68.307081883452 18.623080720012 0 -1 0 0
1599 3 72.101919765866 18.623080720012 0 -1 0 0
1605 3 75.89675764828 18.623080720012 0 -1 0 0
1611 3 79.691595530694 18.623080720012 0 -1 0 0
1617 3 83.486433413108 18.623080720012 0 -1 0 0
1623 3 87.281271295522 18.623080720012 0 -1 0 0
1629 3 91.076109177936 18.623080720012 0 -1 0 0
1635 3 94.87094706035 18.623080720012 0 -1 0 0
1640 1 1.8974189412070004 19.718556056484005 1.580605305131999 0 0 0
1646 1 5.692256823620994 19.718556056484005 1.580605305131999 0 0 0
1652 1 9.487094706034995 19.718556056484005 1.580605305131999 0 0 0
1658 1 13.281932588448996 19.718556056484005 1.580605305131999 0 0 0
1664 1 17.076770470863003 19.718556056484005 1.580605305131999 0 0 0
1670 1 20.87160835327699 19.718556056484005 1.580605305131999 0 0 0
1676 1 24.66644623569099 19.718556056484005 1.580605305131999 0 0 0
1682 1 28.46128411810499 19.718556056484005 1.580605305131999 0 0 0
1688 1 32.25612200051899 19.718556056484005 1.580605305131999 0 0 0
1694 1 36.05095988293299 19.718556056484005 1.580605305131999 0 0 0
1700 1 39.845797765346994 19.718556056484005 1.580605305131999 0 0 0
1706 1 43.640635647760995 19.718556056484005 1.580605305131999 0 0 0
1712 1 47.435473530174995 19.718556056484005 1.580605305131999 0 0 0
1562 1 51.230311412589 19.718556056484005 1.580605305131999 -1 0 0
1568 1 55.025149295003004 19.718556056484005 1.580605305131999 -1 0 0
1574 1 58.819987177417005 19.718556056484005 1.580605305131999 -1 0 0
1580 1 62.614825059831006 19.718556056484005 1.580605305131999 -1 0 0
1586 1 66.409662942245 19.718556056484005 1.580605305131999 -1 0 0
1592 1 70.20450082465901 19.718556056484005 1.580605305131999 -1 0 0
1598 1 73.99933870707301 19.718556056484005 1.580605305131999 -1 0 0
1604 1 77.794176589487 19.718556056484005 1.580605305131999 -1 0 0
1610 1 81.58901447190101 19.718556056484005 1.580605305131999 -1 0 0
1616 1 85.383852354315 19.718556056484005 1.580605305131999 -1 0 0
1622 1 89.17869023672901 19.718556056484005 1.580605305131999 -1 0 0
1628 1 92.973528119143 19.718556056484005 1.580605305131999 -1 0 0
1634 1 96.76836600155701 19.718556056484005 1.580605305131999 -1 0 0
1642 3 1.8974189412070004 21.909506729426 0 0 0 0
1795 1 0 23.004982065898005 1.580605305131999 0 0 0
1801 1 3.7948378824139937 23.004982065898005 1.580605305131999 0 0 0
1648 3 5.692256823620994 21.909506729426 0 0 0 0
1807 1 7.589675764827994 23.004982065898005 1.580605305131999 0 0 0
1654 3 9.487094706034995 21.909506729426 0 0 0 0
1813 1 11.384513647241995 23.004982065898005 1.580605305131999 0 0 0
1660 3 13.281932588448996 21.909506729426 0 0 0 0
1819 1 15.179351529655996 23.004982065898005 1.580605305131999 0 0 0
1666 3 17.076770470863003 21.909506729426 0 0 0 0
1825 1 18.974189412069997 23.004982065898005 1.580605305131999 0 0 0
1672 3 20.87160835327699 21.909506729426 0 0 0 0
1831 1 22.769027294483998 23.004982065898005 1.580605305131999 0 0 0
1678 3 24.66644623569099 21.909506729426 0 0 0 0
1837 1 26.563865176898 23.004982065898005 1.580605305131999 0 0 0
1684 3 28.46128411810499 21.909506729426 0 0 0 0
1843 1 30.358703059312 23.004982065898005 1.580605305131999 0 0 0
1690 3 32.25612200051899 21.909506729426 0 0 0 0
1849 1 34.153540941726 23.004982065898005 1.580605305131999 0 0 0
1696 3 36.05095988293299 21.909506729426 0 0 0 0
1855 1 37.94837882414 23.004982065898005 1.580605305131999 0 0 0
1702 3 39.845797765346994 21.909506729426 0 0 0 0
1861 1 41.743216706554 23.004982065898005 1.580605305131999 0 0 0
1708 3 43.640635647760995 21.909506729426 0 0 0 0
1867 1 45.538054588968 23.004982065898005 1.580605305131999 0 0 0
1714 3 47.435473530174995 21.909506729426 0 0 0 0
1564 3 51.230311412589 21.909506729426 0 -1 0 0
1717 1 49.332892471382 23.004982065898005 1.580605305131999 -1 0 0
1723 1 53.127730353796004 23.004982065898005 1.580605305131999 -1 0 0
1570 3 55.025149295003004 21.909506729426 0 -1 0 0
1729 1 56.922568236210004 23.004982065898005 1.580605305131999 -1 0 0
1576 3 58.819987177417005 21.909506729426 0 -1 0 0
1735 1 60.717406118624005 23.004982065898005 1.580605305131999 -1 0 0
1582 3 62.614825059831006 21.909506729426 0 -1 0 0
1741 1 64.512244001038 23.004982065898005 1.580605305131999 -1 0 0
1588 3 66.409662942245 21.909506729426 0 -1 0 0
1747 1 68.307081883452 23.004982065898005 1.580605305131999 -1 0 0
1594 3 70.20450082465901 21.909506729426 0 -1 0 0
1753 1 72.101919765866 23.004982065898005 1.580605305131999 -1 0 0
1600 3 73.99933870707301 21.909506729426 0 -1 0 0
1759 1 75.89675764828 23.004982065898005 1.580605305131999 -1 0 0
1606 3 77.794176589487 21.909506729426 0 -1 0 0
1765 1 79.691595530694 23.004982065898005 1.580605305131999 -1 0 0
1612 3 81.58901447190101 21.909506729426 0 -1 0 0
1771 1 83.486433413108 23.004982065898005 1.580605305131999 -1 0 0
1618 3 85.383852354315 21.909506729426 0 -1 0 0
1777 1 87.281271295522 23.004982065898005 1.580605305131999 -1 0 0
1624 3 89.17869023672901 21.909506729426 0 -1 0 0
1783 1 91.076109177936 23.004982065898005 1.580605305131999 -1 0 0
1630 3 92.973528119143 21.909506729426 0 -1 0 0
1789 1 94.87094706035 23.004982065898005 1.580605305131999 -1 0 0
1636 3 96.76836600155701 21.909506729426 0 -1 0 0
1797 3 0 25.19593273884 0 0 0 0
1803 3 3.7948378824139937 25.19593273884 0 0 0 0
1809 3 7.589675764827994 25.19593273884 0 0 0 0
1815 3 11.384513647241995 25.19593273884 0 0 0 0
1821 3 15.179351529655996 25.19593273884 0 0 0 0
1827 3 18.974189412069997 25.19593273884 0 0 0 0
1833 3 22.769027294483998 25.19593273884 0 0 0 0
1839 3 26.563865176898 25.19593273884 0 0 0 0
1845 3 30.358703059312 25.19593273884 0 0 0 0
1851 3 34.153540941726 25.19593273884 0 0 0 0
1857 3 37.94837882414 25.19593273884 0 0 0 0
1863 3 41.743216706554 25.19593273884 0 0 0 0
1869 3 45.538054588968 25.19593273884 0 0 0 0
1719 3 49.332892471382 25.19593273884 0 -1 0 0
1725 3 53.127730353796004 25.19593273884 0 -1 0 0
1731 3 56.922568236210004 25.19593273884 0 -1 0 0
1737 3 60.717406118624005 25.19593273884 0 -1 0 0
1743 3 64.512244001038 25.19593273884 0 -1 0 0
1749 3 68.307081883452 25.19593273884 0 -1 0 0
1755 3 72.101919765866 25.19593273884 0 -1 0 0
1761 3 75.89675764828 25.19593273884 0 -1 0 0
1767 3 79.691595530694 25.19593273884 0 -1 0 0
1773 3 83.486433413108 25.19593273884 0 -1 0 0
1779 3 87.281271295522 25.19593273884 0 -1 0 0
1785 3 91.076109177936 25.19593273884 0 -1 0 0
1791 3 94.87094706035 25.19593273884 0 -1 0 0
1796 1 1.8974189412070004 26.291408075312006 1.580605305131999 0 0 0
1802 1 5.692256823620994 26.291408075312006 1.580605305131999 0 0 0
1808 1 9.487094706034995 26.291408075312006 1.580605305131999 0 0 0
1814 1 13.281932588448996 26.291408075312006 1.580605305131999 0 0 0
1820 1 17.076770470863003 26.291408075312006 1.580605305131999 0 0 0
1826 1 20.87160835327699 26.291408075312006 1.580605305131999 0 0 0
1832 1 24.66644623569099 26.291408075312006 1.580605305131999 0 0 0
1838 1 28.46128411810499 26.291408075312006 1.580605305131999 0 0 0
1844 1 32.25612200051899 26.291408075312006 1.580605305131999 0 0 0
1850 1 36.05095988293299 26.291408075312006 1.580605305131999 0 0 0
1856 1 39.845797765346994 26.291408075312006 1.580605305131999 0 0 0
1862 1 43.640635647760995 26.291408075312006 1.580605305131999 0 0 0
1868 1 47.435473530174995 26.291408075312006 1.580605305131999 0 0 0
1718 1 51.230311412589 26.291408075312006 1.580605305131999 -1 0 0
1724 1 55.025149295003004 26.291408075312006 1.580605305131999 -1 0 0
1730 1 58.819987177417005 26.291408075312006 1.580605305131999 -1 0 0
1736 1 62.614825059831006 26.291408075312006 1.580605305131999 -1 0 0
1742 1 66.409662942245 26.291408075312006 1.580605305131999 -1 0 0
1748 1 70.20450082465901 26.291408075312006 1.580605305131999 -1 0 0
1754 1 73.99933870707301 26.291408075312006 1.580605305131999 -1 0 0
1760 1 77.794176589487 26.291408075312006 1.580605305131999 -1 0 0
1766 1 81.58901447190101 26.291408075312006 1.580605305131999 -1 0 0
1772 1 85.383852354315 26.291408075312006 1.580605305131999 -1 0 0
1778 1 89.17869023672901 26.291408075312006 1.580605305131999 -1 0 0
1784 1 92.973528119143 26.291408075312006 1.580605305131999 -1 0 0
1790 1 96.76836600155701 26.291408075312006 1.580605305131999 -1 0 0
1798 3 1.8974189412070004 28.482358748254 0 0 0 0
1804 3 5.692256823620994 28.482358748254 0 0 0 0
1810 3 9.487094706034995 28.482358748254 0 0 0 0
1816 3 13.281932588448996 28.482358748254 0 0 0 0
1822 3 17.076770470863003 28.482358748254 0 0 0 0
1828 3 20.87160835327699 28.482358748254 0 0 0 0
1834 3 24.66644623569099 28.482358748254 0 0 0 0
1840 3 28.46128411810499 28.482358748254 0 0 0 0
1846 3 32.25612200051899 28.482358748254 0 0 0 0
1852 3 36.05095988293299 28.482358748254 0 0 0 0
1858 3 39.845797765346994 28.482358748254 0 0 0 0
1864 3 43.640635647760995 28.482358748254 0 0 0 0
1870 3 47.435473530174995 28.482358748254 0 0 0 0
1720 3 51.230311412589 28.482358748254 0 -1 0 0
1726 3 55.025149295003004 28.482358748254 0 -1 0 0
1732 3 58.819987177417005 28.482358748254 0 -1 0 0
1738 3 62.614825059831006 28.482358748254 0 -1 0 0
1744 3 66.409662942245 28.482358748254 0 -1 0 0
1750 3 70.20450082465901 28.482358748254 0 -1 0 0
1756 3 73.99933870707301 28.482358748254 0 -1 0 0
1762 3 77.794176589487 28.482358748254 0 -1 0 0
1768 3 81.58901447190101 28.482358748254 0 -1 0 0
1774 3 85.383852354315 28.482358748254 0 -1 0 0
1780 3 89.17869023672901 28.482358748254 0 -1 0 0
1786 3 92.973528119143 28.482358748254 0 -1 0 0
1792 3 96.76836600155701 28.482358748254 0 -1 0 0
1951 1 0 29.577834084726007 1.580605305131999 0 0 0
1957 1 3.7948378824139937 29.577834084726007 1.580605305131999 0 0 0
1963 1 7.589675764827994 29.577834084726007 1.580605305131999 0 0 0
1969 1 11.384513647241995 29.577834084726007 1.580605305131999 0 0 0
1975 1 15.179351529655996 29.577834084726007 1.580605305131999 0 0 0
1981 1 18.974189412069997 29.577834084726007 1.580605305131999 0 0 0
1987 1 22.769027294483998 29.577834084726007 1.580605305131999 0 0 0
1993 1 26.563865176898 29.577834084726007 1.580605305131999 0 0 0
1999 1 30.358703059312 29.577834084726007 1.580605305131999 0 0 0
2005 1 34.153540941726 29.577834084726007 1.580605305131999 0 0 0
2011 1 37.94837882414 29.577834084726007 1.580605305131999 0 0 0
2017 1 41.743216706554 29.577834084726007 1.580605305131999 0 0 0
2023 1 45.538054588968 29.577834084726007 1.580605305131999 0 0 0
1873 1 49.332892471382 29.577834084726007 1.580605305131999 -1 0 0
1879 1 53.127730353796004 29.577834084726007 1.580605305131999 -1 0 0
1885 1 56.922568236210004 29.577834084726007 1.580605305131999 -1 0 0
1891 1 60.717406118624005 29.577834084726007 1.580605305131999 -1 0 0
1897 1 64.512244001038 29.577834084726007 1.580605305131999 -1 0 0
1903 1 68.307081883452 29.577834084726007 1.580605305131999 -1 0 0
1909 1 72.101919765866 29.577834084726007 1.580605305131999 -1 0 0
1915 1 75.89675764828 29.577834084726007 1.580605305131999 -1 0 0
1921 1 79.691595530694 29.577834084726007 1.580605305131999 -1 0 0
1927 1 83.486433413108 29.577834084726007 1.580605305131999 -1 0 0
1933 1 87.281271295522 29.577834084726007 1.580605305131999 -1 0 0
1939 1 91.076109177936 29.577834084726007 1.580605305131999 -1 0 0
1945 1 94.87094706035 29.577834084726007 1.580605305131999 -1 0 0
1953 3 0 31.768784757668 0 0 0 0
1952 1 1.8974189412070004 32.86426009414001 1.580605305131999 0 0 0
1959 3 3.7948378824139937 31.768784757668 0 0 0 0
1958 1 5.692256823620994 32.86426009414001 1.580605305131999 0 0 0
1965 3 7.589675764827994 31.768784757668 0 0 0 0
1964 1 9.487094706034995 32.86426009414001 1.580605305131999 0 0 0
1971 3 11.384513647241995 31.768784757668 0 0 0 0
1970 1 13.281932588448996 32.86426009414001 1.580605305131999 0 0 0
1977 3 15.179351529655996 31.768784757668 0 0 0 0
1976 1 17.076770470863003 32.86426009414001 1.580605305131999 0 0 0
1983 3 18.974189412069997 31.768784757668 0 0 0 0
1982 1 20.87160835327699 32.86426009414001 1.580605305131999 0 0 0
1989 3 22.769027294483998 31.768784757668 0 0 0 0
1988 1 24.66644623569099 32.86426009414001 1.580605305131999 0 0 0
1995 3 26.563865176898 31.768784757668 0 0 0 0