LAMMPS data file via write_data, version 29 Aug 2024, timestep = 2, units = metal

2800 atoms
4 atom types

0 101.534166145675 xlo xhi
0 98.482907302332 ylo yhi
-50 50 zlo zhi

Masses

1 69.723
2 69.723
3 74.921595
4 74.921595

Atoms # atomic

755 1 2.031225424503968 1.1704936138912612 0.08546762518753379 0 0 0
754 3 2.032361149718482 3.5143663287445333 0.50720314854477 0 0 0
756 1 4.061908747417241 4.687740303260257 0.08546762518753628 0 0 0
752 1 0.000542101590244223 4.687740303260256 0.08546762518753773 0 0 0
759 1 6.092592070330968 1.1704936138912605 0.08546762518753365 0 0 0
763 1 10.15395871615797 1.1704936138912605 0.08546762518753388 0 0 0
758 3 6.093727795545482 3.5143663287445337 0.5072031485447696 0 0 0
762 3 10.155094441372484 3.5143663287445337 0.5072031485447694 0 0 0
760 1 8.12327539324424 4.687740303260258 0.08546762518753621 0 0 0
767 1 14.21532536198497 1.1704936138912596 0.08546762518753558 0 0 0
766 3 14.21646108719948 3.5143663287445337 0.5072031485447691 0 0 0
764 1 12.184642039071244 4.687740303260257 0.08546762518753821 0 0 0
768 1 16.246008684898246 4.687740303260258 0.08546762518753459 0 0 0
771 1 18.276692007811974 1.1704936138912618 0.08546762518753202 0 0 0
775 1 22.338058653638964 1.1704936138912614 0.08546762518753197 0 0 0
770 3 18.277827733026488 3.5143663287445346 0.507203148544768 0 0 0
774 3 22.33919437885348 3.514366328744533 0.5072031485447716 0 0 0
772 1 20.307375330725243 4.687740303260257 0.0854676251875381 0 0 0
779 1 26.39942529946597 1.17049361389126 0.08546762518753559 0 0 0
778 3 26.400561024680485 3.5143663287445346 0.5072031485447677 0 0 0
776 1 24.368741976552247 4.687740303260258 0.08546762518753435 0 0 0
780 1 28.430108622379244 4.687740303260257 0.08546762518753805 0 0 0
783 1 30.460791945292964 1.1704936138912614 0.08546762518753195 0 0 0
787 1 34.52215859111997 1.1704936138912598 0.08546762518753556 0 0 0
782 3 30.46192767050748 3.514366328744533 0.5072031485447716 0 0 0
786 3 34.523294316334486 3.514366328744534 0.5072031485447678 0 0 0
784 1 32.491475268206244 4.687740303260258 0.08546762518753441 0 0 0
791 1 38.583525236946976 1.1704936138912614 0.08546762518753194 0 0 0
790 3 38.584660962161486 3.514366328744533 0.5072031485447714 0 0 0
788 1 36.55284191403324 4.687740303260258 0.08546762518753426 0 0 0
792 1 40.61420855986024 4.687740303260256 0.08546762518753792 0 0 0
795 1 42.64489188277397 1.1704936138912592 0.08546762518753541 0 0 0
799 1 46.70625852860097 1.1704936138912618 0.0854676251875323 0 0 0
794 3 42.64602760798848 3.5143663287445324 0.5072031485447709 0 0 0
798 3 46.70739425381549 3.5143663287445346 0.5072031485447679 0 0 0
796 1 44.675575205687245 4.687740303260258 0.08546762518753458 0 0 0
703 1 50.76762517442797 1.1704936138912594 0.08546762518753549 -1 0 0
702 3 50.76876089964248 3.514366328744533 0.5072031485447694 -1 0 0
800 1 48.73694185151424 4.687740303260256 0.08546762518753825 0 0 0
704 1 52.798308497341246 4.687740303260257 0.08546762518753627 -1 0 0
707 1 54.82899182025497 1.1704936138912605 0.08546762518753369 -1 0 0
711 1 58.89035846608197 1.1704936138912605 0.08546762518753369 -1 0 0
706 3 54.83012754546949 3.5143663287445337 0.5072031485447694 -1 0 0
710 3 58.89149419129649 3.5143663287445337 0.5072031485447696 -1 0 0
708 1 56.859675143168246 4.687740303260257 0.08546762518753626 -1 0 0
715 1 62.95172511190897 1.1704936138912603 0.08546762518753358 -1 0 0
714 3 62.95286083712348 3.514366328744533 0.507203148544771 -1 0 0
712 1 60.92104178899524 4.687740303260257 0.08546762518753619 -1 0 0
716 1 64.98240843482225 4.687740303260258 0.08546762518753453 -1 0 0
719 1 67.01309175773596 1.1704936138912623 0.08546762518753198 -1 0 0
723 1 71.07445840356297 1.1704936138912596 0.08546762518753567 -1 0 0
718 3 67.01422748295049 3.514366328744535 0.5072031485447678 -1 0 0
722 3 71.07559412877748 3.5143663287445333 0.5072031485447683 -1 0 0
720 1 69.04377508064924 4.687740303260256 0.0854676251875383 -1 0 0
727 1 75.13582504938998 1.1704936138912614 0.08546762518753194 -1 0 0
726 3 75.13696077460449 3.5143663287445337 0.5072031485447708 -1 0 0
724 1 73.10514172647623 4.6877403032602585 0.0854676251875343 -1 0 0
728 1 77.16650837230324 4.687740303260256 0.08546762518753784 -1 0 0
731 1 79.19719169521697 1.1704936138912587 0.08546762518753565 -1 0 0
735 1 83.25855834104397 1.1704936138912623 0.08546762518753195 -1 0 0
730 3 79.19832742043148 3.514366328744532 0.5072031485447713 -1 0 0
734 3 83.25969406625849 3.514366328744535 0.5072031485447677 -1 0 0
732 1 81.22787501813025 4.687740303260258 0.08546762518753448 -1 0 0
739 1 87.31992498687097 1.1704936138912594 0.08546762518753592 -1 0 0
738 3 87.3210607120855 3.5143663287445346 0.5072031485447674 -1 0 0
736 1 85.28924166395724 4.687740303260256 0.08546762518753828 -1 0 0
740 1 89.35060830978425 4.687740303260256 0.08546762518753803 -1 0 0
743 1 91.38129163269797 1.1704936138912616 0.08546762518753162 -1 0 0
747 1 95.44265827852497 1.1704936138912614 0.08546762518753173 -1 0 0
742 3 91.38242735791249 3.514366328744533 0.5072031485447718 -1 0 0
746 3 95.44379400373948 3.5143663287445324 0.5072031485447714 -1 0 0
744 1 93.41197495561124 4.687740303260259 0.08546762518753054 -1 0 0
751 1 99.50402492435197 1.1704936138912594 0.085467625187536 -1 0 0
750 3 99.50516064956649 3.5143663287445346 0.5072031485447672 -1 0 0
748 1 97.47334160143825 4.687740303260256 0.08546762518753813 -1 0 0
849 3 0.0016778268052064504 7.031613018113535 0.5072031485447668 0 0 0
853 3 4.063044472632209 7.031613018113536 0.5072031485447668 0 0 0
855 1 2.031225424503968 8.204986992629259 0.08546762518753612 0 0 0
854 3 2.032361149718482 10.548859707482535 0.5072031485447717 0 0 0
857 3 8.12441111845921 7.031613018113536 0.5072031485447669 0 0 0
859 1 6.092592070330968 8.204986992629259 0.08546762518753608 0 0 0
863 1 10.15395871615797 8.204986992629259 0.08546762518753612 0 0 0
858 3 6.093727795545481 10.548859707482535 0.5072031485447712 0 0 0
862 3 10.155094441372484 10.548859707482535 0.5072031485447711 0 0 0
861 3 12.185777764286215 7.031613018113537 0.507203148544765 0 0 0
865 3 16.24714441011321 7.031613018113535 0.5072031485447687 0 0 0
867 1 14.21532536198497 8.204986992629257 0.08546762518753774 0 0 0
866 3 14.216461087199482 10.548859707482535 0.507203148544771 0 0 0
869 3 20.30851105594021 7.031613018113537 0.5072031485447656 0 0 0
871 1 18.276692007811974 8.204986992629259 0.08546762518753437 0 0 0
875 1 22.338058653638964 8.204986992629259 0.08546762518753429 0 0 0
870 3 18.277827733026488 10.548859707482535 0.5072031485447694 0 0 0
874 3 22.339194378853485 10.548859707482535 0.507203148544773 0 0 0
873 3 24.369877701767216 7.031613018113535 0.5072031485447687 0 0 0
877 3 28.431244347594212 7.031613018113537 0.5072031485447652 0 0 0
879 1 26.39942529946597 8.204986992629259 0.08546762518753777 0 0 0
878 3 26.40056102468049 10.548859707482537 0.5072031485447692 0 0 0
881 3 32.492610993421216 7.031613018113535 0.5072031485447686 0 0 0
883 1 30.460791945292964 8.204986992629259 0.08546762518753424 0 0 0
887 1 34.52215859111997 8.204986992629259 0.08546762518753775 0 0 0
882 3 30.46192767050748 10.548859707482535 0.5072031485447731 0 0 0
886 3 34.523294316334486 10.548859707482537 0.5072031485447693 0 0 0
885 3 36.55397763924821 7.031613018113535 0.5072031485447688 0 0 0
889 3 40.61534428507521 7.031613018113536 0.5072031485447648 0 0 0
891 1 38.583525236946976 8.204986992629259 0.08546762518753433 0 0 0
890 3 38.584660962161486 10.548859707482535 0.5072031485447731 0 0 0
893 3 44.6767109309022 7.031613018113534 0.5072031485447688 0 0 0
895 1 42.64489188277397 8.204986992629257 0.08546762518753755 0 0 0
899 1 46.70625852860097 8.204986992629259 0.08546762518753469 0 0 0
894 3 42.64602760798848 10.548859707482533 0.5072031485447726 0 0 0
898 3 46.70739425381549 10.548859707482535 0.5072031485447693 0 0 0
897 3 48.73807757672921 7.031613018113537 0.5072031485447649 0 0 0
801 3 52.79944422255621 7.031613018113536 0.5072031485447668 -1 0 0
803 1 50.76762517442797 8.204986992629257 0.08546762518753771 -1 0 0
802 3 50.76876089964249 10.548859707482535 0.5072031485447708 -1 0 0
805 3 56.86081086838321 7.031613018113536 0.5072031485447668 -1 0 0
807 1 54.82899182025497 8.204986992629259 0.08546762518753609 -1 0 0
811 1 58.89035846608197 8.204986992629259 0.08546762518753609 -1 0 0
806 3 54.83012754546949 10.548859707482535 0.5072031485447711 -1 0 0
810 3 58.89149419129649 10.548859707482535 0.5072031485447712 -1 0 0
809 3 60.92217751421021 7.031613018113536 0.5072031485447669 -1 0 0
813 3 64.98354416003721 7.031613018113535 0.5072031485447689 -1 0 0
815 1 62.95172511190897 8.204986992629259 0.08546762518753588 -1 0 0
814 3 62.95286083712348 10.548859707482533 0.5072031485447729 -1 0 0
817 3 69.0449108058642 7.031613018113537 0.507203148544765 -1 0 0
819 1 67.01309175773598 8.204986992629259 0.0854676251875343 -1 0 0
823 1 71.07445840356297 8.204986992629257 0.08546762518753795 -1 0 0
818 3 67.01422748295049 10.548859707482537 0.5072031485447691 -1 0 0
822 3 71.07559412877748 10.548859707482535 0.5072031485447699 -1 0 0
821 3 73.10627745169121 7.031613018113535 0.5072031485447688 -1 0 0
825 3 77.1676440975182 7.031613018113537 0.5072031485447649 -1 0 0
827 1 75.13582504938998 8.204986992629259 0.08546762518753427 -1 0 0
826 3 75.13696077460449 10.548859707482535 0.5072031485447723 -1 0 0
829 3 81.22901074334521 7.031613018113534 0.5072031485447688 -1 0 0
831 1 79.19719169521697 8.204986992629257 0.0854676251875378 -1 0 0
835 1 83.25855834104398 8.204986992629259 0.08546762518753435 -1 0 0
830 3 79.19832742043148 10.548859707482533 0.507203148544773 -1 0 0
834 3 83.25969406625849 10.548859707482537 0.5072031485447691 -1 0 0
833 3 85.2903773891722 7.031613018113537 0.507203148544765 -1 0 0
837 3 89.35174403499921 7.031613018113537 0.5072031485447651 -1 0 0
839 1 87.31992498687097 8.204986992629257 0.08546762518753802 -1 0 0
838 3 87.3210607120855 10.548859707482535 0.5072031485447691 -1 0 0
841 3 93.41311068082621 7.031613018113533 0.5072031485447727 -1 0 0
843 1 91.38129163269797 8.204986992629259 0.08546762518753391 -1 0 0
847 1 95.44265827852497 8.204986992629259 0.08546762518753406 -1 0 0
842 3 91.38242735791249 10.548859707482533 0.5072031485447733 -1 0 0
846 3 95.44379400373948 10.548859707482533 0.5072031485447731 -1 0 0
845 3 97.4744773266532 7.031613018113537 0.507203148544765 -1 0 0
851 1 99.50402492435197 8.204986992629257 0.08546762518753814 -1 0 0
850 3 99.50516064956649 10.548859707482535 0.5072031485447689 -1 0 0
856 1 4.06190874741724 11.722233681998263 0.0854676251875362 0 0 0
949 3 0.0016778268052064504 14.06610639685153 0.507203148544767 0 0 0
955 1 2.0312254245039685 15.239480371367259 0.08546762518753248 0 0 0
953 3 4.063044472632209 14.066106396851533 0.5072031485447671 0 0 0
852 1 0.0005421015902441679 11.722233681998262 0.08546762518753785 0 0 0
860 1 8.12327539324424 11.722233681998263 0.0854676251875362 0 0 0
959 1 6.092592070330968 15.239480371367257 0.08546762518753248 0 0 0
957 3 8.124411118459209 14.066106396851533 0.5072031485447672 0 0 0
963 1 10.15395871615797 15.239480371367257 0.08546762518753263 0 0 0
864 1 12.184642039071244 11.722233681998262 0.08546762518753805 0 0 0
868 1 16.246008684898246 11.722233681998263 0.08546762518753452 0 0 0
961 3 12.185777764286215 14.066106396851533 0.5072031485447652 0 0 0
967 1 14.21532536198497 15.239480371367257 0.08546762518753435 0 0 0
965 3 16.24714441011321 14.06610639685153 0.5072031485447689 0 0 0
872 1 20.307375330725243 11.722233681998262 0.08546762518753814 0 0 0
971 1 18.276692007811974 15.239480371367259 0.08546762518753105 0 0 0
969 3 20.308511055940215 14.066106396851533 0.5072031485447657 0 0 0
975 1 22.338058653638967 15.239480371367259 0.08546762518753062 0 0 0
876 1 24.368741976552247 11.722233681998263 0.08546762518753429 0 0 0
880 1 28.430108622379244 11.722233681998262 0.08546762518753814 0 0 0
973 3 24.369877701767216 14.06610639685153 0.507203148544769 0 0 0
979 1 26.39942529946597 15.239480371367257 0.08546762518753438 0 0 0
977 3 28.431244347594212 14.066106396851533 0.5072031485447653 0 0 0
884 1 32.491475268206244 11.722233681998263 0.08546762518753433 0 0 0
983 1 30.460791945292964 15.239480371367259 0.0854676251875307 0 0 0
981 3 32.492610993421216 14.06610639685153 0.5072031485447689 0 0 0
987 1 34.52215859111997 15.239480371367257 0.08546762518753435 0 0 0
888 1 36.55284191403324 11.722233681998263 0.08546762518753427 0 0 0
892 1 40.61420855986024 11.722233681998263 0.085467625187538 0 0 0
985 3 36.55397763924821 14.06610639685153 0.507203148544769 0 0 0
991 1 38.583525236946976 15.239480371367259 0.08546762518753073 0 0 0
989 3 40.61534428507521 14.066106396851533 0.5072031485447649 0 0 0
896 1 44.675575205687245 11.722233681998263 0.0854676251875345 0 0 0
995 1 42.64489188277397 15.239480371367257 0.08546762518753416 0 0 0
993 3 44.6767109309022 14.06610639685153 0.507203148544769 0 0 0
999 1 46.70625852860097 15.239480371367259 0.08546762518753115 0 0 0
900 1 48.73694185151424 11.722233681998262 0.08546762518753831 0 0 0
804 1 52.798308497341246 11.722233681998263 0.08546762518753617 -1 0 0
997 3 48.73807757672921 14.066106396851533 0.507203148544765 0 0 0
903 1 50.76762517442797 15.239480371367257 0.08546762518753426 -1 0 0
901 3 52.79944422255621 14.066106396851533 0.5072031485447672 -1 0 0
808 1 56.859675143168246 11.722233681998263 0.08546762518753614 -1 0 0
907 1 54.82899182025497 15.239480371367257 0.0854676251875325 -1 0 0
905 3 56.86081086838321 14.066106396851533 0.507203148544767 -1 0 0
911 1 58.89035846608197 15.239480371367257 0.0854676251875325 -1 0 0
812 1 60.92104178899525 11.722233681998263 0.08546762518753608 -1 0 0
816 1 64.98240843482225 11.722233681998263 0.08546762518753442 -1 0 0
909 3 60.92217751421021 14.066106396851533 0.5072031485447672 -1 0 0
915 1 62.95172511190897 15.239480371367257 0.08546762518753231 -1 0 0
913 3 64.98354416003721 14.06610639685153 0.5072031485447692 -1 0 0
820 1 69.04377508064924 11.722233681998262 0.08546762518753839 -1 0 0
919 1 67.01309175773598 15.23948037136726 0.08546762518753084 -1 0 0
917 3 69.0449108058642 14.066106396851533 0.507203148544765 -1 0 0
923 1 71.07445840356297 15.239480371367257 0.08546762518753462 -1 0 0
824 1 73.10514172647623 11.722233681998265 0.0854676251875343 -1 0 0
828 1 77.16650837230324 11.722233681998263 0.08546762518753796 -1 0 0
921 3 73.10627745169121 14.06610639685153 0.5072031485447691 -1 0 0
927 1 75.13582504938998 15.239480371367259 0.08546762518753068 -1 0 0
925 3 77.1676440975182 14.066106396851533 0.507203148544765 -1 0 0
832 1 81.22787501813025 11.722233681998263 0.08546762518753442 -1 0 0
931 1 79.19719169521697 15.239480371367257 0.08546762518753442 -1 0 0
929 3 81.22901074334521 14.06610639685153 0.5072031485447691 -1 0 0
935 1 83.25855834104398 15.23948037136726 0.08546762518753083 -1 0 0
836 1 85.28924166395724 11.722233681998262 0.0854676251875384 -1 0 0
840 1 89.35060830978425 11.722233681998262 0.08546762518753814 -1 0 0
933 3 85.2903773891722 14.066106396851533 0.5072031485447651 -1 0 0
939 1 87.31992498687097 15.239480371367257 0.08546762518753476 -1 0 0
937 3 89.35174403499921 14.066106396851533 0.5072031485447652 -1 0 0
844 1 93.41197495561124 11.722233681998267 0.08546762518753023 -1 0 0
943 1 91.38129163269797 15.239480371367259 0.08546762518753041 -1 0 0
941 3 93.41311068082621 14.066106396851529 0.5072031485447732 -1 0 0
947 1 95.44265827852497 15.239480371367259 0.08546762518753051 -1 0 0
848 1 97.47334160143825 11.722233681998262 0.08546762518753827 -1 0 0
945 3 97.4744773266532 14.066106396851533 0.507203148544765 -1 0 0
951 1 99.50402492435197 15.239480371367257 0.08546762518753483 -1 0 0
954 3 2.0323611497184824 17.583353086220537 0.5072031485447701 0 0 0
956 1 4.061908747417241 18.756727060736253 0.08546762518753633 0 0 0
1049 3 0.0016778268052064504 21.100599775589533 0.50720314854477 0 0 0
1053 3 4.063044472632209 21.100599775589533 0.5072031485447701 0 0 0
1055 1 2.031225424503968 22.27397375010526 0.08546762518753565 0 0 0
952 1 0.0005421015902443188 18.75672706073625 0.0854676251875377 0 0 0
958 3 6.093727795545482 17.583353086220537 0.5072031485447697 0 0 0
960 1 8.12327539324424 18.756727060736253 0.08546762518753627 0 0 0
962 3 10.155094441372484 17.583353086220537 0.5072031485447696 0 0 0
1057 3 8.124411118459209 21.100599775589533 0.5072031485447703 0 0 0
1059 1 6.092592070330968 22.27397375010526 0.0854676251875356 0 0 0
1063 1 10.15395871615797 22.27397375010526 0.0854676251875358 0 0 0
964 1 12.184642039071244 18.75672706073625 0.08546762518753831 0 0 0
966 3 14.21646108719948 17.583353086220537 0.5072031485447694 0 0 0
968 1 16.246008684898246 18.756727060736253 0.08546762518753441 0 0 0
1061 3 12.185777764286215 21.100599775589533 0.5072031485447682 0 0 0
1065 3 16.24714441011321 21.100599775589533 0.507203148544772 0 0 0
1067 1 14.21532536198497 22.27397375010526 0.0854676251875375 0 0 0
970 3 18.277827733026488 17.58335308622054 0.5072031485447682 0 0 0
972 1 20.307375330725243 18.75672706073625 0.08546762518753803 0 0 0
974 3 22.339194378853485 17.583353086220537 0.5072031485447717 0 0 0
1069 3 20.308511055940215 21.100599775589533 0.5072031485447688 0 0 0
1071 1 18.276692007811974 22.27397375010526 0.08546762518753405 0 0 0
1075 1 22.338058653638964 22.27397375010526 0.08546762518753392 0 0 0
976 1 24.368741976552247 18.756727060736253 0.08546762518753419 0 0 0
978 3 26.40056102468049 17.583353086220537 0.507203148544768 0 0 0
980 1 28.430108622379244 18.75672706073625 0.08546762518753806 0 0 0
1073 3 24.369877701767216 21.100599775589533 0.5072031485447719 0 0 0
1077 3 28.431244347594212 21.100599775589533 0.5072031485447683 0 0 0
1079 1 26.39942529946597 22.27397375010526 0.08546762518753755 0 0 0
982 3 30.46192767050748 17.583353086220537 0.5072031485447719 0 0 0
984 1 32.491475268206244 18.756727060736253 0.08546762518753424 0 0 0
986 3 34.523294316334486 17.583353086220537 0.507203148544768 0 0 0
1081 3 32.492610993421216 21.100599775589533 0.507203148544772 0 0 0
1083 1 30.460791945292964 22.273973750105263 0.08546762518753388 0 0 0
1087 1 34.52215859111997 22.27397375010526 0.08546762518753755 0 0 0
988 1 36.55284191403324 18.756727060736253 0.08546762518753433 0 0 0
990 3 38.584660962161486 17.583353086220537 0.5072031485447717 0 0 0
992 1 40.61420855986024 18.75672706073625 0.08546762518753794 0 0 0
1085 3 36.55397763924821 21.100599775589533 0.5072031485447721 0 0 0
1089 3 40.61534428507521 21.100599775589533 0.507203148544768 0 0 0
1091 1 38.583525236946976 22.273973750105263 0.08546762518753391 0 0 0
994 3 42.64602760798848 17.583353086220537 0.5072031485447712 0 0 0
996 1 44.675575205687245 18.756727060736253 0.08546762518753438 0 0 0
998 3 46.70739425381549 17.58335308622054 0.5072031485447681 0 0 0
1093 3 44.6767109309022 21.100599775589533 0.5072031485447721 0 0 0
1095 1 42.64489188277397 22.27397375010526 0.08546762518753732 0 0 0
1099 1 46.70625852860097 22.27397375010526 0.08546762518753431 0 0 0
1000 1 48.73694185151424 18.756727060736253 0.0854676251875382 0 0 0
902 3 50.76876089964248 17.583353086220537 0.5072031485447694 -1 0 0
904 1 52.798308497341246 18.75672706073625 0.08546762518753633 -1 0 0
1097 3 48.73807757672921 21.100599775589536 0.5072031485447681 0 0 0
1001 3 52.79944422255621 21.100599775589533 0.5072031485447701 -1 0 0
1003 1 50.76762517442797 22.27397375010526 0.08546762518753742 -1 0 0
906 3 54.83012754546949 17.583353086220537 0.5072031485447696 -1 0 0
908 1 56.859675143168246 18.75672706073625 0.08546762518753631 -1 0 0
910 3 58.89149419129649 17.583353086220537 0.5072031485447696 -1 0 0
1005 3 56.86081086838321 21.100599775589533 0.50720314854477 -1 0 0
1007 1 54.82899182025497 22.27397375010526 0.08546762518753562 -1 0 0
1011 1 58.89035846608197 22.27397375010526 0.08546762518753563 -1 0 0
912 1 60.92104178899524 18.756727060736253 0.08546762518753621 -1 0 0
914 3 62.95286083712348 17.583353086220537 0.5072031485447712 -1 0 0
916 1 64.98240843482225 18.756727060736253 0.08546762518753433 -1 0 0
1009 3 60.92217751421021 21.100599775589533 0.5072031485447702 -1 0 0
1013 3 64.98354416003721 21.100599775589533 0.5072031485447722 -1 0 0
1015 1 62.95172511190897 22.27397375010526 0.08546762518753546 -1 0 0
918 3 67.01422748295049 17.58335308622054 0.5072031485447678 -1 0 0
920 1 69.04377508064924 18.756727060736253 0.08546762518753825 -1 0 0
922 3 71.0755941287775 17.583353086220537 0.5072031485447679 -1 0 0
1017 3 69.0449108058642 21.100599775589536 0.5072031485447682 -1 0 0
1019 1 67.01309175773598 22.27397375010526 0.08546762518753402 -1 0 0
1023 1 71.07445840356297 22.27397375010526 0.08546762518753764 -1 0 0
924 1 73.10514172647625 18.756727060736253 0.08546762518753437 -1 0 0
926 3 75.13696077460449 17.583353086220537 0.5072031485447714 -1 0 0
928 1 77.16650837230324 18.75672706073625 0.08546762518753788 -1 0 0
1021 3 73.10627745169121 21.100599775589533 0.5072031485447721 -1 0 0
1025 3 77.1676440975182 21.100599775589533 0.507203148544768 -1 0 0
1027 1 75.13582504938998 22.273973750105263 0.0854676251875339 -1 0 0
930 3 79.19832742043148 17.583353086220537 0.5072031485447717 -1 0 0
932 1 81.22787501813025 18.756727060736253 0.08546762518753431 -1 0 0
934 3 83.25969406625849 17.58335308622054 0.5072031485447678 -1 0 0
1029 3 81.22901074334521 21.100599775589533 0.5072031485447721 -1 0 0
1031 1 79.19719169521697 22.27397375010526 0.0854676251875376 -1 0 0
1035 1 83.25855834104398 22.27397375010526 0.08546762518753402 -1 0 0
936 1 85.28924166395724 18.756727060736253 0.08546762518753823 -1 0 0
938 3 87.3210607120855 17.583353086220537 0.5072031485447677 -1 0 0
940 1 89.35060830978425 18.75672706073625 0.08546762518753806 -1 0 0
1033 3 85.2903773891722 21.100599775589536 0.5072031485447682 -1 0 0
1037 3 89.35174403499921 21.100599775589533 0.5072031485447682 -1 0 0
1039 1 87.31992498687097 22.27397375010526 0.08546762518753787 -1 0 0
942 3 91.38242735791249 17.583353086220537 0.5072031485447722 -1 0 0
944 1 93.41197495561124 18.756727060736253 0.08546762518753037 -1 0 0
946 3 95.44379400373948 17.583353086220537 0.5072031485447717 -1 0 0
1041 3 93.41311068082621 21.10059977558953 0.5072031485447762 -1 0 0
1043 1 91.38129163269797 22.27397375010526 0.0854676251875336 -1 0 0
1047 1 95.44265827852497 22.27397375010526 0.08546762518753372 -1 0 0
948 1 97.47334160143825 18.75672706073625 0.08546762518753812 -1 0 0
950 3 99.50516064956649 17.583353086220537 0.5072031485447676 -1 0 0
1045 3 97.4744773266532 21.100599775589533 0.5072031485447681 -1 0 0
1051 1 99.50402492435197 22.27397375010526 0.08546762518753796 -1 0 0
1054 3 2.032361149718482 24.61784646495853 0.5072031485447698 0 0 0
1056 1 4.06190874741724 25.791220439474255 0.08546762518753633 0 0 0
1149 3 0.0016778268052064504 28.13509315432753 0.5072031485447662 0 0 0
1153 3 4.063044472632209 28.13509315432753 0.5072031485447664 0 0 0
1052 1 0.0005421015902442156 25.791220439474255 0.08546762518753794 0 0 0
1058 3 6.093727795545481 24.61784646495853 0.5072031485447693 0 0 0
1062 3 10.155094441372484 24.61784646495853 0.507203148544769 0 0 0
1060 1 8.12327539324424 25.79122043947426 0.08546762518753631 0 0 0
1157 3 8.124411118459209 28.13509315432753 0.5072031485447667 0 0 0
1066 3 14.216461087199482 24.61784646495853 0.5072031485447689 0 0 0
1064 1 12.184642039071244 25.79122043947426 0.08546762518753814 0 0 0
1068 1 16.246008684898246 25.79122043947426 0.08546762518753467 0 0 0
1161 3 12.185777764286215 28.135093154327535 0.5072031485447646 0 0 0
1165 3 16.24714441011321 28.13509315432753 0.5072031485447684 0 0 0
1070 3 18.277827733026488 24.617846464958532 0.5072031485447674 0 0 0
1074 3 22.339194378853485 24.61784646495853 0.5072031485447712 0 0 0
1072 1 20.307375330725243 25.791220439474255 0.08546762518753849 0 0 0
1169 3 20.308511055940215 28.135093154327535 0.5072031485447651 0 0 0
1078 3 26.40056102468049 24.61784646495853 0.5072031485447674 0 0 0
1076 1 24.368741976552247 25.79122043947426 0.08546762518753445 0 0 0
1080 1 28.430108622379244 25.791220439474255 0.08546762518753832 0 0 0
1173 3 24.369877701767216 28.13509315432753 0.5072031485447683 0 0 0
1177 3 28.431244347594212 28.13509315432753 0.5072031485447648 0 0 0
1082 3 30.46192767050748 24.61784646495853 0.5072031485447713 0 0 0
1086 3 34.523294316334486 24.61784646495853 0.5072031485447672 0 0 0
1084 1 32.491475268206244 25.79122043947426 0.0854676251875345 0 0 0
1181 3 32.492610993421216 28.13509315432753 0.5072031485447684 0 0 0
1090 3 38.584660962161486 24.61784646495853 0.5072031485447712 0 0 0
1088 1 36.55284191403324 25.79122043947426 0.08546762518753447 0 0 0
1092 1 40.61420855986024 25.791220439474255 0.0854676251875382 0 0 0
1185 3 36.55397763924821 28.13509315432753 0.5072031485447684 0 0 0
1189 3 40.61534428507521 28.13509315432753 0.5072031485447643 0 0 0
1094 3 42.64602760798848 24.61784646495853 0.5072031485447708 0 0 0
1098 3 46.70739425381549 24.61784646495853 0.5072031485447673 0 0 0
1096 1 44.675575205687245 25.79122043947426 0.08546762518753463 0 0 0
1193 3 44.6767109309022 28.13509315432753 0.5072031485447683 0 0 0
1002 3 50.76876089964249 24.61784646495853 0.5072031485447688 -1 0 0
1100 1 48.73694185151424 25.79122043947426 0.08546762518753845 0 0 0
1004 1 52.798308497341246 25.79122043947426 0.08546762518753633 -1 0 0
1197 3 48.73807757672921 28.135093154327535 0.5072031485447644 0 0 0
1101 3 52.79944422255621 28.13509315432753 0.5072031485447666 -1 0 0
1006 3 54.83012754546949 24.61784646495853 0.5072031485447691 -1 0 0
1010 3 58.89149419129649 24.61784646495853 0.5072031485447692 -1 0 0
1008 1 56.859675143168246 25.79122043947426 0.08546762518753628 -1 0 0
1105 3 56.86081086838321 28.13509315432753 0.5072031485447666 -1 0 0
1014 3 62.95286083712348 24.61784646495853 0.507203148544771 -1 0 0
1012 1 60.92104178899525 25.791220439474255 0.08546762518753624 -1 0 0
1016 1 64.98240843482225 25.79122043947426 0.08546762518753473 -1 0 0
1109 3 60.92217751421021 28.13509315432753 0.5072031485447664 -1 0 0
1113 3 64.98354416003721 28.13509315432753 0.5072031485447686 -1 0 0
1018 3 67.01422748295049 24.617846464958532 0.507203148544767 -1 0 0
1022 3 71.07559412877748 24.61784646495853 0.5072031485447679 -1 0 0
1020 1 69.04377508064924 25.79122043947426 0.08546762518753855 -1 0 0
1117 3 69.0449108058642 28.13509315432753 0.5072031485447647 -1 0 0
1026 3 75.13696077460449 24.61784646495853 0.5072031485447704 -1 0 0
1024 1 73.10514172647623 25.79122043947426 0.08546762518753447 -1 0 0
1028 1 77.16650837230324 25.791220439474255 0.08546762518753809 -1 0 0
1121 3 73.10627745169121 28.13509315432753 0.5072031485447686 -1 0 0
1125 3 77.1676440975182 28.13509315432753 0.5072031485447644 -1 0 0
1030 3 79.19832742043148 24.617846464958525 0.507203148544771 -1 0 0
1034 3 83.25969406625849 24.617846464958532 0.507203148544767 -1 0 0
1032 1 81.22787501813025 25.79122043947426 0.08546762518753455 -1 0 0
1129 3 81.22901074334521 28.13509315432753 0.5072031485447684 -1 0 0
1038 3 87.3210607120855 24.617846464958532 0.5072031485447671 -1 0 0
1036 1 85.28924166395724 25.79122043947426 0.0854676251875385 -1 0 0
1040 1 89.35060830978425 25.791220439474255 0.08546762518753845 -1 0 0
1133 3 85.2903773891722 28.13509315432753 0.5072031485447647 -1 0 0
1137 3 89.35174403499921 28.135093154327535 0.5072031485447646 -1 0 0
1042 3 91.38242735791249 24.61784646495853 0.5072031485447714 -1 0 0
1046 3 95.44379400373948 24.61784646495853 0.5072031485447711 -1 0 0
1044 1 93.41197495561124 25.79122043947426 0.08546762518753061 -1 0 0
1141 3 93.41311068082621 28.13509315432753 0.5072031485447726 -1 0 0
1050 3 99.50516064956649 24.61784646495853 0.507203148544767 -1 0 0
1048 1 97.47334160143825 25.791220439474255 0.08546762518753837 -1 0 0
1145 3 97.4744773266532 28.13509315432753 0.5072031485447644 -1 0 0
1155 1 2.031225424503968 29.30846712884326 0.08546762518753645 0 0 0
1154 3 2.0323611497184815 31.65233984369653 0.5072031485447702 0 0 0
1156 1 4.06190874741724 32.82571381821226 0.08546762518753258 0 0 0
1152 1 0.0005421015902442633 32.82571381821226 0.0854676251875342 0 0 0
1159 1 6.092592070330968 29.30846712884326 0.08546762518753642 0 0 0
1163 1 10.15395871615797 29.30846712884326 0.08546762518753663 0 0 0
1158 3 6.093727795545481 31.65233984369653 0.50720314854477 0 0 0
1162 3 10.155094441372484 31.65233984369653 0.5072031485447698 0 0 0
1160 1 8.12327539324424 32.82571381821226 0.08546762518753255 0 0 0
1167 1 14.21532536198497 29.30846712884326 0.0854676251875383 0 0 0
1166 3 14.21646108719948 31.65233984369653 0.5072031485447696 0 0 0
1164 1 12.184642039071244 32.82571381821226 0.08546762518753455 0 0 0
1168 1 16.246008684898246 32.82571381821226 0.08546762518753108 0 0 0
1171 1 18.276692007811974 29.30846712884326 0.08546762518753491 0 0 0
1175 1 22.338058653638967 29.30846712884326 0.0854676251875345 0 0 0
1170 3 18.277827733026488 31.652339843696534 0.5072031485447679 0 0 0
1174 3 22.339194378853485 31.65233984369653 0.5072031485447716 0 0 0
1172 1 20.307375330725243 32.82571381821226 0.08546762518753473 0 0 0
1179 1 26.39942529946597 29.308467128843258 0.08546762518753835 0 0 0
1178 3 26.40056102468049 31.65233984369653 0.5072031485447677 0 0 0
1176 1 24.368741976552247 32.825713818212265 0.08546762518753083 0 0 0
1180 1 28.430108622379244 32.82571381821226 0.08546762518753474 0 0 0
1183 1 30.460791945292964 29.30846712884326 0.0854676251875347 0 0 0
1187 1 34.52215859111997 29.308467128843258 0.08546762518753832 0 0 0
1182 3 30.46192767050748 31.65233984369653 0.5072031485447716 0 0 0
1186 3 34.523294316334486 31.65233984369653 0.5072031485447678 0 0 0
1184 1 32.491475268206244 32.825713818212265 0.08546762518753089 0 0 0
1191 1 38.583525236946976 29.30846712884326 0.08546762518753473 0 0 0
1190 3 38.584660962161486 31.65233984369653 0.5072031485447718 0 0 0
1188 1 36.55284191403324 32.825713818212265 0.08546762518753079 0 0 0
1192 1 40.61420855986024 32.82571381821226 0.08546762518753467 0 0 0