LAMMPS data file via write_data, version 29 Aug 2024, timestep = 3, units = metal

4200 atoms
6 atom types

0 101.534166145675 xlo xhi
0 98.482907302332 ylo yhi
-50 50 zlo zhi

Masses

1 69.723
2 69.723
3 69.723
4 74.921595
5 74.921595
6 74.921595

Atoms # atomic

755 1 2.031656104079643 1.1699101290011902 0.08468091271669692 0 0 0
754 4 2.031892313294152 3.514558248185404 0.5104384983446001 0 0 0
756 1 4.0623394269929385 4.687156818370188 0.08468091271669916 0 0 0
752 1 0.000972781165944564 4.68715681837019 0.08468091271669943 0 0 0
759 1 6.093022749906644 1.16991012900119 0.08468091271669675 0 0 0
763 1 10.154389395733647 1.1699101290011897 0.08468091271669714 0 0 0
758 4 6.093258959121151 3.5145582481854043 0.5104384983445993 0 0 0
762 4 10.154625604948151 3.5145582481854043 0.5104384983445993 0 0 0
760 1 8.123706072819939 4.687156818370188 0.08468091271669928 0 0 0
767 1 14.215756041560647 1.16991012900119 0.08468091271669813 0 0 0
766 4 14.215992250775153 3.5145582481854043 0.5104384983445989 0 0 0
764 1 12.185072718646941 4.687156818370188 0.0846809127167009 0 0 0
768 1 16.246439364473943 4.687156818370188 0.08468091271669795 0 0 0
771 1 18.27712268738765 1.1699101290011908 0.08468091271669528 0 0 0
775 1 22.338489333214646 1.1699101290011895 0.08468091271669538 0 0 0
770 4 18.277358896602156 3.5145582481854047 0.5104384983445983 0 0 0
774 4 22.338725542429152 3.5145582481854047 0.510438498344601 0 0 0
772 1 20.307806010300943 4.687156818370189 0.08468091271670064 0 0 0
779 1 26.39985597904165 1.1699101290011904 0.08468091271669823 0 0 0
778 4 26.400092188256156 3.514558248185404 0.510438498344598 0 0 0
776 1 24.369172656127944 4.687156818370188 0.0846809127166977 0 0 0
780 1 28.430539301954944 4.687156818370188 0.08468091271670067 0 0 0
783 1 30.461222624868647 1.1699101290011902 0.08468091271669495 0 0 0
787 1 34.52258927069565 1.16991012900119 0.08468091271669811 0 0 0
782 4 30.461458834083153 3.5145582481854043 0.5104384983446012 0 0 0
786 4 34.52282547991015 3.514558248185404 0.5104384983445982 0 0 0
784 1 32.49190594778194 4.687156818370189 0.08468091271669727 0 0 0
791 1 38.58395591652264 1.1699101290011902 0.08468091271669519 0 0 0
790 4 38.584192125737154 3.5145582481854043 0.5104384983446011 0 0 0
788 1 36.55327259360894 4.6871568183701875 0.08468091271669821 0 0 0
792 1 40.61463923943594 4.68715681837019 0.08468091271669967 0 0 0
795 1 42.64532256234964 1.169910129001189 0.08468091271669818 0 0 0
799 1 46.70668920817664 1.1699101290011908 0.0846809127166955 0 0 0
794 4 42.64555877156415 3.5145582481854047 0.5104384983446 0 0 0
798 4 46.706925417391155 3.5145582481854043 0.5104384983445985 0 0 0
796 1 44.67600588526294 4.687156818370188 0.08468091271669811 0 0 0
703 1 50.76805585400365 1.169910129001189 0.08468091271669907 -1 0 0
702 4 50.768292063218155 3.5145582481854047 0.5104384983445985 -1 0 0
800 1 48.73737253108994 4.687156818370188 0.08468091271670092 0 0 0
704 1 52.79873917691694 4.687156818370188 0.08468091271669921 -1 0 0
707 1 54.82942249983065 1.16991012900119 0.08468091271669667 -1 0 0
711 1 58.89078914565765 1.16991012900119 0.08468091271669669 -1 0 0
706 4 54.829658709045155 3.5145582481854043 0.5104384983445993 -1 0 0
710 4 58.891025354872156 3.5145582481854034 0.5104384983446002 -1 0 0
708 1 56.86010582274394 4.687156818370188 0.08468091271669927 -1 0 0
715 1 62.95215579148465 1.1699101290011902 0.08468091271669581 -1 0 0
714 4 62.952392000699156 3.514558248185405 0.5104384983446002 -1 0 0
712 1 60.92147246857094 4.687156818370188 0.08468091271669916 -1 0 0
716 1 64.98283911439795 4.687156818370188 0.08468091271669835 -1 0 0
719 1 67.01352243731165 1.1699101290011897 0.08468091271669632 -1 0 0
723 1 71.07488908313864 1.1699101290011906 0.08468091271669799 -1 0 0
718 4 67.01375864652616 3.5145582481854056 0.5104384983445974 -1 0 0
722 4 71.07512529235316 3.5145582481854034 0.5104384983445983 -1 0 0
720 1 69.04420576022494 4.687156818370189 0.08468091271670039 -1 0 0
727 1 75.13625572896565 1.1699101290011893 0.08468091271669555 -1 0 0
726 4 75.13649193818016 3.514558248185405 0.5104384983446006 -1 0 0
724 1 73.10557240605195 4.6871568183701875 0.08468091271669781 -1 0 0
728 1 77.16693905187894 4.687156818370189 0.0846809127167004 -1 0 0
731 1 79.19762237479264 1.16991012900119 0.0846809127166974 -1 0 0
735 1 83.25898902061965 1.1699101290011897 0.0846809127166963 -1 0 0
730 4 79.19785858400716 3.514558248185403 0.5104384983446014 -1 0 0
734 4 83.25922522983416 3.5145582481854056 0.5104384983445974 -1 0 0
732 1 81.22830569770595 4.687156818370188 0.08468091271669809 -1 0 0
739 1 87.32035566644666 1.1699101290011895 0.08468091271669907 -1 0 0
738 4 87.32059187566117 3.5145582481854034 0.5104384983445982 -1 0 0
736 1 85.28967234353296 4.687156818370188 0.08468091271670129 -1 0 0
740 1 89.35103898935995 4.687156818370189 0.08468091271670034 -1 0 0
743 1 91.38172231227365 1.169910129001191 0.08468091271669434 -1 0 0
747 1 95.44308895810065 1.1699101290011908 0.0846809127166945 -1 0 0
742 4 91.38195852148816 3.514558248185405 0.5104384983446008 -1 0 0
746 4 95.44332516731517 3.514558248185404 0.5104384983446015 -1 0 0
744 1 93.41240563518694 4.687156818370189 0.08468091271669365 -1 0 0
751 1 99.50445560392764 1.1699101290011908 0.08468091271669784 -1 0 0
750 4 99.50469181314216 3.514558248185403 0.510438498344598 -1 0 0
748 1 97.47377228101395 4.6871568183701875 0.08468091271670147 -1 0 0
849 4 0.0012089903808458757 7.031804937554405 0.5104384983445955 0 0 0
853 4 4.062575636207856 7.031804937554405 0.5104384983445965 0 0 0
855 1 2.031656104079643 8.20440350773919 0.084680912716699 0 0 0
854 4 2.031892313294152 10.549051626923406 0.5104384983446013 0 0 0
857 4 8.123942282034857 7.031804937554404 0.5104384983445966 0 0 0
859 1 6.093022749906644 8.20440350773919 0.08468091271669881 0 0 0
863 1 10.154389395733647 8.20440350773919 0.08468091271669914 0 0 0
858 4 6.09325895912115 10.549051626923406 0.5104384983446004 0 0 0
862 4 10.154625604948151 10.549051626923406 0.5104384983446002 0 0 0
861 4 12.185308927861861 7.031804937554404 0.5104384983445949 0 0 0
865 4 16.24667557368886 7.031804937554405 0.510438498344598 0 0 0
867 1 14.215756041560647 8.20440350773919 0.08468091271669999 0 0 0
866 4 14.215992250775153 10.549051626923406 0.5104384983446002 0 0 0
869 4 20.30804221951586 7.031804937554404 0.5104384983445956 0 0 0
871 1 18.27712268738765 8.204403507739192 0.08468091271669739 0 0 0
875 1 22.338489333214646 8.204403507739189 0.08468091271669727 0 0 0
870 4 18.277358896602156 10.549051626923408 0.5104384983445993 0 0 0
874 4 22.338725542429156 10.549051626923406 0.5104384983446015 0 0 0
873 4 24.36940886534286 7.031804937554404 0.5104384983445984 0 0 0
877 4 28.43077551116986 7.031804937554405 0.5104384983445949 0 0 0
879 1 26.399855979041646 8.20440350773919 0.0846809127167002 0 0 0
878 4 26.400092188256156 10.549051626923406 0.5104384983445993 0 0 0
881 4 32.492142156996856 7.031804937554404 0.5104384983445983 0 0 0
883 1 30.461222624868647 8.20440350773919 0.08468091271669691 0 0 0
887 1 34.52258927069565 8.20440350773919 0.08468091271669999 0 0 0
882 4 30.461458834083153 10.549051626923406 0.5104384983446021 0 0 0
886 4 34.52282547991015 10.549051626923406 0.5104384983445991 0 0 0
885 4 36.553508802823856 7.031804937554404 0.5104384983445983 0 0 0
889 4 40.61487544865086 7.031804937554404 0.5104384983445949 0 0 0
891 1 38.58395591652264 8.20440350773919 0.08468091271669713 0 0 0
890 4 38.584192125737154 10.549051626923406 0.510438498344602 0 0 0
893 4 44.67624209447786 7.031804937554404 0.5104384983445983 0 0 0
895 1 42.64532256234964 8.204403507739189 0.08468091271670036 0 0 0
899 1 46.70668920817664 8.204403507739192 0.08468091271669737 0 0 0
894 4 42.64555877156415 10.549051626923406 0.510438498344601 0 0 0
898 4 46.706925417391155 10.549051626923406 0.5104384983445994 0 0 0
897 4 48.73760874030486 7.031804937554404 0.5104384983445948 0 0 0
801 4 52.79897538613186 7.031804937554404 0.5104384983445966 -1 0 0
803 1 50.76805585400365 8.204403507739189 0.08468091271670089 -1 0 0
802 4 50.768292063218155 10.549051626923406 0.5104384983445995 -1 0 0
805 4 56.86034203195886 7.031804937554404 0.5104384983445965 -1 0 0
807 1 54.82942249983065 8.20440350773919 0.0846809127166988 -1 0 0
811 1 58.89078914565765 8.20440350773919 0.0846809127166989 -1 0 0
806 4 54.829658709045155 10.549051626923406 0.5104384983446003 -1 0 0
810 4 58.891025354872156 10.549051626923406 0.5104384983446003 -1 0 0
809 4 60.92170867778586 7.031804937554404 0.5104384983445966 -1 0 0
813 4 64.98307532361287 7.031804937554405 0.510438498344598 -1 0 0
815 1 62.95215579148465 8.20440350773919 0.08468091271669784 -1 0 0
814 4 62.952392000699156 10.549051626923406 0.5104384983446018 -1 0 0
817 4 69.04444196943986 7.031804937554403 0.5104384983445959 -1 0 0
819 1 67.01352243731165 8.20440350773919 0.08468091271669846 -1 0 0
823 1 71.07488908313864 8.20440350773919 0.0846809127167 -1 0 0
818 4 67.01375864652616 10.549051626923408 0.5104384983445983 -1 0 0
822 4 71.07512529235316 10.549051626923406 0.5104384983445992 -1 0 0
821 4 73.10580861526685 7.031804937554405 0.5104384983445979 -1 0 0
825 4 77.16717526109386 7.031804937554404 0.5104384983445953 -1 0 0
827 1 75.13625572896565 8.204403507739189 0.08468091271669755 -1 0 0
826 4 75.13649193818016 10.549051626923406 0.5104384983446016 -1 0 0
829 4 81.22854190692085 7.031804937554406 0.5104384983445972 -1 0 0
831 1 79.19762237479264 8.20440350773919 0.08468091271669922 -1 0 0
835 1 83.25898902061965 8.20440350773919 0.0846809127166984 -1 0 0
830 4 79.19785858400716 10.549051626923404 0.5104384983446024 -1 0 0
834 4 83.25922522983416 10.549051626923408 0.5104384983445982 -1 0 0
833 4 85.28990855274786 7.031804937554403 0.510438498344596 -1 0 0
837 4 89.35127519857487 7.031804937554406 0.5104384983445944 -1 0 0
839 1 87.32035566644666 8.204403507739189 0.084680912716701 -1 0 0
838 4 87.32059187566117 10.549051626923406 0.5104384983445991 -1 0 0
841 4 93.41264184440186 7.031804937554404 0.5104384983446023 -1 0 0
843 1 91.38172231227365 8.204403507739192 0.0846809127166966 -1 0 0
847 1 95.44308895810065 8.20440350773919 0.08468091271669662 -1 0 0
842 4 91.38195852148816 10.549051626923408 0.5104384983446018 -1 0 0
846 4 95.44332516731515 10.549051626923404 0.5104384983446024 -1 0 0
845 4 97.47400849022885 7.031804937554404 0.5104384983445954 -1 0 0
851 1 99.50445560392764 8.20440350773919 0.08468091271669972 -1 0 0
850 4 99.50469181314216 10.549051626923404 0.510438498344599 -1 0 0
856 1 4.0623394269929385 11.72165019710819 0.08468091271669878 0 0 0
949 4 0.0012089903808458757 14.066298316292405 0.5104384983445961 0 0 0
955 1 2.0316561040796426 15.238896886477189 0.08468091271669641 0 0 0
953 4 4.062575636207856 14.066298316292405 0.5104384983445971 0 0 0
852 1 0.0009727811659444238 11.721650197108191 0.08468091271669916 0 0 0
860 1 8.123706072819939 11.72165019710819 0.08468091271669874 0 0 0
959 1 6.093022749906644 15.238896886477189 0.0846809127166963 0 0 0
957 4 8.123942282034857 14.066298316292405 0.5104384983445971 0 0 0
963 1 10.154389395733647 15.238896886477189 0.08468091271669662 0 0 0
864 1 12.185072718646941 11.72165019710819 0.08468091271670042 0 0 0
868 1 16.246439364473943 11.72165019710819 0.08468091271669761 0 0 0
961 4 12.18530892786186 14.066298316292405 0.5104384983445954 0 0 0
967 1 14.215756041560647 15.238896886477189 0.08468091271669752 0 0 0
965 4 16.24667557368886 14.066298316292405 0.5104384983445984 0 0 0
872 1 20.307806010300943 11.72165019710819 0.08468091271670052 0 0 0
971 1 18.27712268738765 15.238896886477189 0.08468091271669453 0 0 0
969 4 20.30804221951586 14.066298316292405 0.5104384983445961 0 0 0
975 1 22.338489333214646 15.238896886477189 0.0846809127166949 0 0 0
876 1 24.369172656127944 11.72165019710819 0.08468091271669745 0 0 0
880 1 28.430539301954944 11.72165019710819 0.0846809127167005 0 0 0
973 4 24.36940886534286 14.066298316292405 0.5104384983445985 0 0 0
979 1 26.39985597904165 15.23889688647719 0.08468091271669761 0 0 0
977 4 28.43077551116986 14.066298316292405 0.5104384983445955 0 0 0
884 1 32.49190594778194 11.72165019710819 0.08468091271669696 0 0 0
983 1 30.461222624868647 15.23889688647719 0.0846809127166945 0 0 0
981 4 32.492142156996856 14.066298316292405 0.5104384983445982 0 0 0
987 1 34.52258927069565 15.23889688647719 0.08468091271669749 0 0 0
888 1 36.55327259360894 11.721650197108188 0.08468091271669806 0 0 0
892 1 40.61463923943594 11.721650197108191 0.08468091271669945 0 0 0
985 4 36.553508802823856 14.066298316292405 0.5104384983445985 0 0 0
991 1 38.58395591652264 15.23889688647719 0.08468091271669465 0 0 0
989 4 40.61487544865086 14.066298316292405 0.5104384983445955 0 0 0
896 1 44.67600588526294 11.72165019710819 0.08468091271669781 0 0 0
995 1 42.64532256234964 15.238896886477189 0.08468091271669768 0 0 0
993 4 44.67624209447786 14.066298316292405 0.5104384983445983 0 0 0
999 1 46.70668920817664 15.23889688647719 0.08468091271669477 0 0 0
900 1 48.73737253108994 11.72165019710819 0.08468091271670068 0 0 0
804 1 52.79873917691694 11.72165019710819 0.08468091271669875 -1 0 0
997 4 48.73760874030486 14.066298316292405 0.5104384983445953 0 0 0
903 1 50.76805585400365 15.238896886477189 0.08468091271669845 -1 0 0
901 4 52.79897538613186 14.066298316292405 0.5104384983445972 -1 0 0
808 1 56.86010582274394 11.72165019710819 0.08468091271669875 -1 0 0
907 1 54.82942249983065 15.238896886477189 0.08468091271669623 -1 0 0
905 4 56.86034203195886 14.066298316292405 0.5104384983445969 -1 0 0
911 1 58.89078914565765 15.238896886477189 0.08468091271669625 -1 0 0
812 1 60.92147246857094 11.72165019710819 0.08468091271669874 -1 0 0
816 1 64.98283911439795 11.72165019710819 0.08468091271669799 -1 0 0
909 4 60.92170867778586 14.066298316292405 0.5104384983445971 -1 0 0
915 1 62.95215579148465 15.23889688647719 0.08468091271669546 -1 0 0
913 4 64.98307532361287 14.066298316292405 0.5104384983445984 -1 0 0
820 1 69.04420576022495 11.721650197108191 0.0846809127167001 -1 0 0
919 1 67.01352243731165 15.238896886477189 0.08468091271669564 -1 0 0
917 4 69.04444196943986 14.066298316292405 0.5104384983445964 -1 0 0
923 1 71.07488908313864 15.23889688647719 0.0846809127166975 -1 0 0
824 1 73.10557240605195 11.72165019710819 0.0846809127166979 -1 0 0
828 1 77.16693905187894 11.72165019710819 0.08468091271669995 -1 0 0
921 4 73.10580861526687 14.066298316292409 0.5104384983445966 -1 0 0
927 1 75.13625572896565 15.238896886477189 0.08468091271669506 -1 0 0
925 4 77.16717526109386 14.066298316292402 0.510438498344597 -1 0 0
832 1 81.22830569770595 11.72165019710819 0.08468091271669784 -1 0 0
931 1 79.19762237479264 15.23889688647719 0.08468091271669692 -1 0 0
929 4 81.22854190692085 14.066298316292407 0.5104384983445978 -1 0 0
935 1 83.25898902061965 15.238896886477189 0.08468091271669552 -1 0 0
836 1 85.28967234353296 11.72165019710819 0.08468091271670099 -1 0 0
840 1 89.35103898935995 11.721650197108191 0.0846809127167002 -1 0 0
933 4 85.28990855274786 14.066298316292404 0.5104384983445965 -1 0 0
939 1 87.32035566644666 15.238896886477189 0.08468091271669885 -1 0 0
937 4 89.35127519857487 14.066298316292407 0.5104384983445948 -1 0 0
844 1 93.41240563518694 11.721650197108191 0.08468091271669335 -1 0 0
943 1 91.38172231227365 15.23889688647719 0.0846809127166938 -1 0 0
941 4 93.41264184440186 14.066298316292407 0.510438498344601 -1 0 0
947 1 95.44308895810065 15.23889688647719 0.08468091271669415 -1 0 0
848 1 97.47377228101395 11.721650197108188 0.08468091271670107 -1 0 0
945 4 97.47400849022885 14.066298316292404 0.510438498344597 -1 0 0
951 1 99.50445560392764 15.238896886477189 0.08468091271669724 -1 0 0
954 4 2.0318923132941524 17.583545005661403 0.5104384983446008 0 0 0
956 1 4.0623394269929385 18.75614357584619 0.08468091271669878 0 0 0
1049 4 0.0012089903808458757 21.100791695030402 0.5104384983445979 0 0 0
1053 4 4.062575636207856 21.100791695030402 0.5104384983445992 0 0 0
1055 1 2.031656104079642 22.273390265215188 0.08468091271669867 0 0 0
952 1 0.0009727811659444928 18.75614357584619 0.08468091271669861 0 0 0
958 4 6.093258959121151 17.583545005661403 0.5104384983445998 0 0 0
960 1 8.123706072819939 18.75614357584619 0.08468091271669885 0 0 0
962 4 10.154625604948151 17.583545005661403 0.5104384983445998 0 0 0
1057 4 8.123942282034857 21.100791695030402 0.5104384983445991 0 0 0
1059 1 6.093022749906644 22.273390265215188 0.08468091271669827 0 0 0
1063 1 10.154389395733647 22.273390265215188 0.08468091271669875 0 0 0
964 1 12.185072718646941 18.75614357584619 0.08468091271670028 0 0 0
966 4 14.215992250775153 17.583545005661403 0.5104384983445995 0 0 0
968 1 16.246439364473943 18.75614357584619 0.08468091271669753 0 0 0
1061 4 12.18530892786186 21.100791695030402 0.5104384983445973 0 0 0
1065 4 16.24667557368886 21.100791695030402 0.5104384983446002 0 0 0
1067 1 14.215756041560647 22.273390265215188 0.08468091271669971 0 0 0
970 4 18.277358896602156 17.583545005661403 0.5104384983445986 0 0 0
972 1 20.307806010300943 18.75614357584619 0.08468091271670022 0 0 0
974 4 22.338725542429156 17.583545005661403 0.5104384983446011 0 0 0
1069 4 20.30804221951586 21.100791695030402 0.5104384983445981 0 0 0
1071 1 18.27712268738765 22.27339026521519 0.08468091271669707 0 0 0
1075 1 22.338489333214646 22.273390265215188 0.08468091271669706 0 0 0
976 1 24.369172656127944 18.75614357584619 0.08468091271669717 0 0 0
978 4 26.400092188256156 17.583545005661403 0.5104384983445989 0 0 0
980 1 28.430539301954944 18.75614357584619 0.08468091271670015 0 0 0
1073 4 24.36940886534286 21.100791695030402 0.5104384983446009 0 0 0
1077 4 28.43077551116986 21.100791695030402 0.5104384983445976 0 0 0
1079 1 26.39985597904165 22.273390265215188 0.08468091271669966 0 0 0
982 4 30.461458834083153 17.583545005661403 0.5104384983446018 0 0 0
984 1 32.49190594778194 18.75614357584619 0.08468091271669667 0 0 0
986 4 34.52282547991015 17.583545005661403 0.5104384983445988 0 0 0
1081 4 32.492142156996856 21.100791695030402 0.5104384983446008 0 0 0
1083 1 30.461222624868647 22.273390265215188 0.08468091271669663 0 0 0
1087 1 34.52258927069565 22.273390265215188 0.08468091271669953 0 0 0
988 1 36.55327259360894 18.75614357584619 0.08468091271669712 0 0 0
990 4 38.58419212573715 17.583545005661403 0.5104384983446016 0 0 0
992 1 40.61463923943594 18.75614357584619 0.08468091271669986 0 0 0
1085 4 36.553508802823856 21.100791695030402 0.5104384983446008 0 0 0
1089 4 40.61487544865086 21.100791695030402 0.5104384983445976 0 0 0
1091 1 38.58395591652264 22.273390265215188 0.08468091271669671 0 0 0
994 4 42.64555877156415 17.583545005661403 0.5104384983446004 0 0 0
996 1 44.67600588526294 18.75614357584619 0.08468091271669766 0 0 0
998 4 46.706925417391155 17.583545005661403 0.5104384983445988 0 0 0
1093 4 44.67624209447786 21.100791695030402 0.5104384983446002 0 0 0
1095 1 42.64532256234964 22.273390265215188 0.08468091271669982 0 0 0
1099 1 46.70668920817664 22.27339026521519 0.08468091271669728 0 0 0
1000 1 48.73737253108994 18.75614357584619 0.08468091271670053 0 0 0
902 4 50.76829206321815 17.583545005661403 0.5104384983445996 -1 0 0
904 1 52.79873917691694 18.75614357584619 0.08468091271669864 -1 0 0
1097 4 48.73760874030486 21.100791695030402 0.5104384983445972 0 0 0
1001 4 52.79897538613186 21.100791695030402 0.5104384983445992 -1 0 0
1003 1 50.76805585400365 22.273390265215188 0.08468091271670063 -1 0 0
906 4 54.82965870904515 17.583545005661403 0.5104384983445998 -1 0 0
908 1 56.86010582274394 18.75614357584619 0.0846809127166988 -1 0 0
910 4 58.89102535487215 17.583545005661403 0.5104384983445998 -1 0 0
1005 4 56.86034203195886 21.100791695030402 0.5104384983445992 -1 0 0
1007 1 54.82942249983065 22.273390265215188 0.08468091271669825 -1 0 0
1011 1 58.89078914565765 22.273390265215188 0.08468091271669828 -1 0 0
912 1 60.92147246857094 18.75614357584619 0.08468091271669874 -1 0 0
914 4 62.952392000699156 17.583545005661403 0.5104384983446006 -1 0 0
916 1 64.98283911439795 18.75614357584619 0.08468091271669788 -1 0 0
1009 4 60.92170867778586 21.100791695030402 0.5104384983445992 -1 0 0
1013 4 64.98307532361287 21.100791695030402 0.5104384983446006 -1 0 0
1015 1 62.95215579148465 22.273390265215188 0.08468091271669737 -1 0 0
918 4 67.01375864652616 17.583545005661403 0.5104384983445976 -1 0 0
920 1 69.04420576022494 18.75614357584619 0.08468091271670007 -1 0 0
922 4 71.07512529235316 17.583545005661403 0.5104384983445988 -1 0 0
1017 4 69.04444196943986 21.100791695030402 0.5104384983445986 -1 0 0
1019 1 67.01352243731165 22.273390265215188 0.08468091271669807 -1 0 0
1023 1 71.07488908313864 22.273390265215188 0.08468091271669957 -1 0 0
924 1 73.10557240605195 18.75614357584619 0.08468091271669753 -1 0 0
926 4 75.13649193818016 17.583545005661406 0.5104384983446011 -1 0 0
928 1 77.16693905187894 18.75614357584619 0.08468091271669986 -1 0 0
1021 4 73.10580861526687 21.100791695030406 0.5104384983445989 -1 0 0
1025 4 77.16717526109386 21.1007916950304 0.5104384983445993 -1 0 0
1027 1 75.13625572896565 22.273390265215188 0.08468091271669709 -1 0 0
930 4 79.19785858400716 17.583545005661403 0.5104384983446019 -1 0 0
932 1 81.22830569770595 18.75614357584619 0.08468091271669756 -1 0 0
934 4 83.25922522983416 17.583545005661403 0.5104384983445978 -1 0 0
1029 4 81.22854190692085 21.100791695030402 0.5104384983445999 -1 0 0
1031 1 79.19762237479264 22.273390265215188 0.08468091271669871 -1 0 0
1035 1 83.25898902061965 22.273390265215188 0.08468091271669802 -1 0 0
936 1 85.28967234353296 18.75614357584619 0.08468091271670085 -1 0 0
938 4 87.32059187566117 17.583545005661403 0.5104384983445985 -1 0 0
940 1 89.35103898935995 18.75614357584619 0.08468091271669968 -1 0 0
1033 4 85.28990855274786 21.100791695030402 0.5104384983445986 -1 0 0
1037 4 89.35127519857487 21.100791695030402 0.5104384983445969 -1 0 0
1039 1 87.32035566644666 22.273390265215188 0.0846809127167006 -1 0 0
942 4 91.38195852148816 17.583545005661406 0.5104384983446015 -1 0 0
944 1 93.41240563518694 18.756143575846192 0.08468091271669316 -1 0 0
946 4 95.44332516731517 17.583545005661403 0.510438498344602 -1 0 0
1041 4 93.41264184440186 21.100791695030406 0.5104384983446035 -1 0 0
1043 1 91.38172231227365 22.273390265215188 0.08468091271669598 -1 0 0
1047 1 95.44308895810065 22.273390265215188 0.0846809127166961 -1 0 0
948 1 97.47377228101395 18.75614357584619 0.08468091271670104 -1 0 0
950 4 99.50469181314216 17.583545005661403 0.5104384983445984 -1 0 0
1045 4 97.47400849022885 21.1007916950304 0.5104384983445993 -1 0 0
1051 1 99.50445560392764 22.273390265215188 0.08468091271669961 -1 0 0
1054 4 2.031892313294152 24.6180383843994 0.5104384983445996 0 0 0
1056 1 4.0623394269929385 25.790636954584187 0.08468091271669935 0 0 0
1149 4 0.0012089903808458757 28.135285073768404 0.5104384983445953 0 0 0
1153 4 4.062575636207856 28.135285073768404 0.5104384983445963 0 0 0
1052 1 0.0009727811659446526 25.790636954584187 0.08468091271669967 0 0 0
1058 4 6.09325895912115 24.6180383843994 0.510438498344599 0 0 0
1062 4 10.154625604948151 24.618038384399405 0.5104384983445988 0 0 0
1060 1 8.123706072819939 25.790636954584187 0.08468091271669928 0 0 0
1157 4 8.123942282034857 28.135285073768404 0.5104384983445964 0 0 0
1066 4 14.215992250775153 24.6180383843994 0.5104384983445986 0 0 0
1064 1 12.185072718646941 25.790636954584187 0.08468091271670092 0 0 0
1068 1 16.246439364473943 25.790636954584187 0.084680912716698 0 0 0
1161 4 12.18530892786186 28.135285073768404 0.5104384983445944 0 0 0
1165 4 16.24667557368886 28.135285073768404 0.5104384983445973 0 0 0
1070 4 18.277358896602156 24.618038384399405 0.5104384983445979 0 0 0
1074 4 22.338725542429156 24.618038384399405 0.5104384983446003 0 0 0
1072 1 20.307806010300943 25.790636954584187 0.08468091271670067 0 0 0
1169 4 20.30804221951586 28.135285073768404 0.5104384983445951 0 0 0
1078 4 26.400092188256156 24.6180383843994 0.5104384983445978 0 0 0
1076 1 24.369172656127944 25.790636954584187 0.08468091271669788 0 0 0
1080 1 28.430539301954944 25.790636954584187 0.08468091271670085 0 0 0
1173 4 24.369408865342862 28.135285073768404 0.5104384983445978 0 0 0
1177 4 28.43077551116986 28.135285073768404 0.5104384983445948 0 0 0
1082 4 30.461458834083157 24.618038384399405 0.5104384983446002 0 0 0
1086 4 34.52282547991015 24.6180383843994 0.5104384983445981 0 0 0
1084 1 32.491905947781945 25.790636954584187 0.08468091271669816 0 0 0
1181 4 32.492142156996856 28.135285073768404 0.5104384983445979 0 0 0
1090 4 38.584192125737154 24.6180383843994 0.5104384983446005 0 0 0
1088 1 36.55327259360894 25.790636954584187 0.08468091271669771 0 0 0
1092 1 40.61463923943594 25.790636954584187 0.08468091271669982 0 0 0
1185 4 36.553508802823856 28.135285073768404 0.5104384983445978 0 0 0
1189 4 40.61487544865086 28.135285073768404 0.510438498344595 0 0 0
1094 4 42.64555877156415 24.618038384399405 0.5104384983445995 0 0 0
1098 4 46.706925417391155 24.618038384399405 0.5104384983445981 0 0 0
1096 1 44.67600588526294 25.790636954584187 0.08468091271669816 0 0 0
1193 4 44.67624209447786 28.135285073768404 0.5104384983445976 0 0 0
1002 4 50.768292063218155 24.618038384399405 0.510438498344598 -1 0 0
1100 1 48.73737253108994 25.790636954584187 0.08468091271670103 0 0 0
1004 1 52.79873917691694 25.790636954584187 0.08468091271669935 -1 0 0
1197 4 48.73760874030486 28.135285073768404 0.5104384983445945 0 0 0
1101 4 52.79897538613186 28.135285073768404 0.5104384983445965 -1 0 0
1006 4 54.829658709045155 24.6180383843994 0.5104384983445988 -1 0 0
1010 4 58.891025354872156 24.6180383843994 0.5104384983445989 -1 0 0
1008 1 56.86010582274394 25.790636954584187 0.08468091271669932 -1 0 0
1105 4 56.86034203195886 28.135285073768404 0.5104384983445962 -1 0 0
1014 4 62.952392000699156 24.6180383843994 0.5104384983446003 -1 0 0
1012 1 60.92147246857094 25.790636954584187 0.08468091271669921 -1 0 0
1016 1 64.98283911439795 25.790636954584187 0.08468091271669832 -1 0 0
1109 4 60.92170867778586 28.135285073768404 0.5104384983445963 -1 0 0
1113 4 64.98307532361287 28.135285073768404 0.5104384983445976 -1 0 0
1018 4 67.01375864652616 24.618038384399405 0.5104384983445968 -1 0 0
1022 4 71.07512529235316 24.6180383843994 0.5104384983445976 -1 0 0
1020 1 69.04420576022495 25.790636954584187 0.08468091271670056 -1 0 0
1117 4 69.04444196943986 28.135285073768404 0.5104384983445954 -1 0 0
1026 4 75.13649193818016 24.618038384399405 0.5104384983446 -1 0 0
1024 1 73.10557240605195 25.790636954584187 0.08468091271669805 -1 0 0
1028 1 77.16693905187894 25.790636954584187 0.08468091271670065 -1 0 0
1121 4 73.10580861526687 28.135285073768408 0.510438498344596 -1 0 0
1125 4 77.16717526109386 28.1352850737684 0.5104384983445963 -1 0 0
1030 4 79.19785858400716 24.6180383843994 0.510438498344601 -1 0 0
1034 4 83.25922522983416 24.618038384399405 0.5104384983445966 -1 0 0
1032 1 81.22830569770595 25.790636954584187 0.08468091271669809 -1 0 0
1129 4 81.22854190692085 28.135285073768404 0.5104384983445969 -1 0 0
1038 4 87.32059187566117 24.6180383843994 0.5104384983445976 -1 0 0
1036 1 85.28967234353296 25.790636954584187 0.08468091271670145 -1 0 0
1040 1 89.35103898935995 25.790636954584187 0.08468091271670056 -1 0 0
1133 4 85.28990855274786 28.135285073768404 0.5104384983445955 -1 0 0
1137 4 89.35127519857487 28.135285073768404 0.5104384983445941 -1 0 0
1042 4 91.38195852148816 24.618038384399405 0.5104384983446003 -1 0 0
1046 4 95.44332516731517 24.6180383843994 0.5104384983446009 -1 0 0
1044 1 93.41240563518694 25.79063695458419 0.08468091271669384 -1 0 0
1141 4 93.41264184440186 28.135285073768408 0.5104384983446006 -1 0 0
1050 4 99.50469181314216 24.6180383843994 0.5104384983445973 -1 0 0
1048 1 97.47377228101395 25.790636954584187 0.08468091271670165 -1 0 0
1145 4 97.47400849022885 28.1352850737684 0.5104384983445963 -1 0 0
1155 1 2.0316561040796426 29.30788364395319 0.08468091271669934 0 0 0
1154 4 2.031892313294152 31.652531763137404 0.5104384983446004 0 0 0
1156 1 4.0623394269929385 32.82513033332219 0.08468091271669653 0 0 0
1152 1 0.0009727811659446086 32.825130333322186 0.08468091271669638 0 0 0
1159 1 6.093022749906644 29.30788364395319 0.08468091271669921 0 0 0
1163 1 10.154389395733647 29.307883643953186 0.0846809127166996 0 0 0
1158 4 6.09325895912115 31.652531763137404 0.5104384983445998 0 0 0
1162 4 10.154625604948151 31.652531763137404 0.5104384983445993 0 0 0
1160 1 8.123706072819939 32.82513033332219 0.08468091271669652 0 0 0
1167 1 14.215756041560647 29.30788364395319 0.08468091271670058 0 0 0
1166 4 14.215992250775153 31.652531763137404 0.5104384983445993 0 0 0
1164 1 12.18507271864694 32.82513033332219 0.08468091271669785 0 0 0
1168 1 16.246439364473943 32.82513033332219 0.08468091271669559 0 0 0
1171 1 18.27712268738765 29.30788364395319 0.08468091271669775 0 0 0
1175 1 22.338489333214646 29.30788364395319 0.084680912716698 0 0 0
1170 4 18.277358896602156 31.652531763137404 0.5104384983445988 0 0 0
1174 4 22.338725542429152 31.652531763137404 0.5104384983446013 0 0 0
1172 1 20.307806010300943 32.82513033332219 0.08468091271669827 0 0 0
1179 1 26.39985597904165 29.30788364395319 0.08468091271670071 0 0 0
1178 4 26.400092188256156 31.652531763137404 0.5104384983445983 0 0 0
1176 1 24.369172656127944 32.82513033332219 0.08468091271669527 0 0 0
1180 1 28.430539301954944 32.82513033332219 0.08468091271669825 0 0 0
1183 1 30.461222624868647 29.30788364395319 0.08468091271669757 0 0 0
1187 1 34.52258927069565 29.30788364395319 0.08468091271670054 0 0 0
1182 4 30.461458834083157 31.652531763137404 0.5104384983446011 0 0 0
1186 4 34.52282547991015 31.652531763137404 0.510438498344599 0 0 0
1184 1 32.491905947781945 32.82513033332219 0.0846809127166955 0 0 0
1191 1 38.58395591652264 29.30788364395319 0.08468091271669774 0 0 0
1190 4 38.584192125737154 31.652531763137404 0.5104384983446014 0 0 0
1188 1 36.55327259360894 32.82513033332219 0.08468091271669509 0 0 0