LAMMPS data file via write_data, version 29 Aug 2024, timestep = 2, units = metal

8874 atoms
9 atom types

0 99.017014824167 xlo xhi
0 100.535948562672 ylo yhi
-50 50 zlo zhi

Masses

1 47.867
2 47.867
3 47.867
4 32.06
5 32.06
6 32.06
7 32.06
8 32.06
9 32.06

Atoms # atomic

1661 1 1.7075220137701153 2.9565969662355203 1.4208992562794474 0 0 0
1486 5 3.414376727595132 1.9712950621845045 0.030629477679271325 0 0 0
1667 1 5.121901835293116 2.95659696623552 1.420899256279447 0 0 0
1659 5 1.707186816833633 4.928234725792501 0.03062947767927151 0 0 0
1665 5 5.121566638356632 4.928234725792501 0.030629477679271384 0 0 0
1656 1 0.0003321030086652274 5.9135366298435175 1.4208992562794451 0 0 0
1662 1 3.4147119245316646 5.913536629843518 1.4208992562794458 0 0 0
1484 4 1.7084372250795543 0.9843584904254283 2.8108594545209886 0 0 0
1490 4 5.122817046602553 0.9843584904254286 2.810859454520988 0 0 0
1657 4 3.4156271358407624 3.941298154033428 2.8108594545209895 0 0 0
1651 4 0.001247314317765813 3.941298154033428 2.8108594545209895 0 0 0
1492 5 6.828756549118133 1.9712950621845045 0.030629477679271457 0 0 0
1673 1 8.536281656816117 2.9565969662355203 1.4208992562794478 0 0 0
1498 5 10.243136370641132 1.9712950621845045 0.030629477679271336 0 0 0
1671 5 8.53594645987963 4.928234725792501 0.030629477679271464 0 0 0
1668 1 6.829091746054663 5.913536629843518 1.4208992562794458 0 0 0
1674 1 10.243471567577663 5.913536629843518 1.4208992562794458 0 0 0
1496 4 8.537196868125553 0.9843584904254283 2.8108594545209886 0 0 0
1663 4 6.830006957363762 3.941298154033428 2.810859454520989 0 0 0
1669 4 10.244386778886764 3.941298154033428 2.8108594545209895 0 0 0
1679 1 11.950661478339116 2.95659696623552 1.420899256279447 0 0 0
1504 5 13.657516192164131 1.9712950621845042 0.030629477679270968 0 0 0
1685 1 15.365041299862115 2.95659696623552 1.420899256279447 0 0 0
1510 5 17.07189601368713 1.9712950621845042 0.030629477679270958 0 0 0
1677 5 11.95032628140263 4.928234725792501 0.03062947767927138 0 0 0
1683 5 15.36470610292563 4.928234725792501 0.030629477679271554 0 0 0
1680 1 13.657851389100662 5.913536629843518 1.4208992562794458 0 0 0
1686 1 17.072231210623663 5.913536629843518 1.4208992562794454 0 0 0
1502 4 11.951576689648553 0.9843584904254284 2.8108594545209886 0 0 0
1508 4 15.365956511171552 0.9843584904254283 2.810859454520988 0 0 0
1675 4 13.658766600409763 3.941298154033428 2.810859454520989 0 0 0
1681 4 17.073146421932762 3.941298154033428 2.810859454520989 0 0 0
1691 1 18.779421121385116 2.95659696623552 1.420899256279447 0 0 0
1516 5 20.48627583521013 1.9712950621845042 0.030629477679270968 0 0 0
1697 1 22.193800942908116 2.95659696623552 1.420899256279447 0 0 0
1689 5 18.77908592444863 4.928234725792501 0.03062947767927137 0 0 0
1695 5 22.19346574597163 4.928234725792501 0.03062947767927138 0 0 0
1692 1 20.486611032146662 5.913536629843518 1.4208992562794458 0 0 0
1514 4 18.78033633269455 0.9843584904254284 2.810859454520988 0 0 0
1520 4 22.19471615421755 0.9843584904254284 2.810859454520988 0 0 0
1687 4 20.48752624345576 3.941298154033428 2.810859454520989 0 0 0
1522 5 23.90065565673313 1.9712950621845042 0.030629477679270968 0 0 0
1703 1 25.608180764431115 2.95659696623552 1.420899256279447 0 0 0
1528 5 27.315035478256128 1.9712950621845042 0.030629477679270968 0 0 0
1709 1 29.022560585954114 2.95659696623552 1.420899256279447 0 0 0
1701 5 25.60784556749463 4.928234725792501 0.03062947767927138 0 0 0
1707 5 29.022225389017628 4.928234725792501 0.030629477679271336 0 0 0
1698 1 23.90099085366966 5.913536629843518 1.4208992562794458 0 0 0
1704 1 27.31537067519266 5.913536629843518 1.4208992562794458 0 0 0
1526 4 25.609095975740548 0.9843584904254284 2.810859454520988 0 0 0
1532 4 29.023475797263547 0.9843584904254284 2.810859454520988 0 0 0
1693 4 23.90190606497876 3.941298154033428 2.810859454520989 0 0 0
1699 4 27.31628588650176 3.941298154033428 2.810859454520989 0 0 0
1534 5 30.729415299779127 1.9712950621845038 0.03062947767927037 0 0 0
1715 1 32.43694040747711 2.9565969662355194 1.4208992562794458 0 0 0
1540 5 34.143795121302134 1.9712950621845042 0.0306294776792711 0 0 0
1713 5 32.43660521054063 4.928234725792502 0.030629477679272304 0 0 0
1710 1 30.72975049671566 5.913536629843518 1.420899256279446 0 0 0
1716 1 34.14413031823866 5.913536629843518 1.4208992562794458 0 0 0
1538 4 32.43785561878655 0.9843584904254278 2.8108594545209873 0 0 0
1705 4 30.73066570802476 3.9412981540334275 2.8108594545209886 0 0 0
1711 4 34.14504552954776 3.9412981540334275 2.810859454520988 0 0 0
1721 1 35.851320229000116 2.95659696623552 1.420899256279447 0 0 0
1546 5 37.55817494282513 1.9712950621845042 0.0306294776792711 0 0 0
1727 1 39.265700050523115 2.95659696623552 1.420899256279447 0 0 0
1719 5 35.850985032063626 4.928234725792501 0.030629477679272054 0 0 0
1725 5 39.265364853586625 4.928234725792501 0.030629477679271433 0 0 0
1722 1 37.55851013976166 5.913536629843518 1.4208992562794458 0 0 0
1544 4 35.85223544030955 0.9843584904254281 2.8108594545209877 0 0 0
1550 4 39.26661526183255 0.9843584904254284 2.8108594545209886 0 0 0
1717 4 37.559425351070765 3.941298154033428 2.810859454520989 0 0 0
1552 5 40.97255476434813 1.9712950621845042 0.030629477679271034 0 0 0
1733 1 42.680079872046115 2.9565969662355194 1.4208992562794462 0 0 0
1558 5 44.38693458587113 1.9712950621845056 0.03062947767927273 0 0 0
1739 1 46.09445969356912 2.95659696623552 1.420899256279447 0 0 0
1731 5 42.67974467510963 4.928234725792501 0.030629477679271884 0 0 0
1737 5 46.09412449663264 4.928234725792501 0.03062947767927188 0 0 0
1728 1 40.97288996128466 5.913536629843518 1.4208992562794458 0 0 0
1734 1 44.387269782807664 5.913536629843518 1.4208992562794458 0 0 0
1556 4 42.68099508335555 0.9843584904254281 2.8108594545209877 0 0 0
1562 4 46.095374904878554 0.9843584904254282 2.810859454520988 0 0 0
1723 4 40.973805172593764 3.941298154033428 2.810859454520989 0 0 0
1729 4 44.38818499411676 3.9412981540334266 2.8108594545209873 0 0 0
1564 5 47.80131440739414 1.9712950621845045 0.030629477679271412 0 0 0
1571 1 49.50883951509212 2.9565969662355203 1.4208992562794478 -1 0 0
1396 5 51.21569422891714 1.971295062184505 0.03062947767927214 -1 0 0
1569 5 49.50850431815564 4.928234725792501 0.03062947767927161 -1 0 0
1740 1 47.80164960433067 5.913536629843518 1.4208992562794456 0 0 0
1572 1 51.21602942585367 5.913536629843518 1.4208992562794456 -1 0 0
1394 4 49.50975472640156 0.9843584904254283 2.8108594545209886 -1 0 0
1735 4 47.80256481563976 3.9412981540334284 2.81085945452099 0 0 0
1567 4 51.21694463716277 3.941298154033428 2.810859454520989 -1 0 0
1577 1 52.92321933661512 2.95659696623552 1.4208992562794476 -1 0 0
1402 5 54.630074050440136 1.971295062184504 0.030629477679270708 -1 0 0
1583 1 56.337599158138126 2.9565969662355194 1.4208992562794462 -1 0 0
1408 5 58.044453871963135 1.971295062184504 0.030629477679270767 -1 0 0
1575 5 52.92288413967864 4.928234725792501 0.030629477679271395 -1 0 0
1581 5 56.337263961201636 4.928234725792502 0.030629477679272196 -1 0 0
1578 1 54.63040924737667 5.913536629843518 1.4208992562794456 -1 0 0
1584 1 58.04478906889967 5.913536629843518 1.4208992562794458 -1 0 0
1400 4 52.92413454792456 0.9843584904254284 2.8108594545209886 -1 0 0
1406 4 56.33851436944756 0.9843584904254281 2.8108594545209873 -1 0 0
1573 4 54.63132445868577 3.941298154033428 2.810859454520989 -1 0 0
1579 4 58.04570428020877 3.941298154033428 2.810859454520989 -1 0 0
1589 1 59.751978979661125 2.95659696623552 1.4208992562794467 -1 0 0
1414 5 61.458833693486135 1.9712950621845045 0.030629477679271384 -1 0 0
1595 1 63.16635880118412 2.9565969662355203 1.4208992562794474 -1 0 0
1587 5 59.751643782724635 4.928234725792501 0.03062947767927142 -1 0 0
1593 5 63.166023604247634 4.9282347257925005 0.03062947767927 -1 0 0
1590 1 61.45916889042267 5.913536629843518 1.4208992562794456 -1 0 0
1412 4 59.75289419097056 0.9843584904254284 2.810859454520988 -1 0 0
1418 4 63.16727401249356 0.9843584904254294 2.81085945452099 -1 0 0
1585 4 61.460084101731766 3.941298154033428 2.810859454520989 -1 0 0
1420 5 64.87321351500913 1.971295062184504 0.030629477679270677 -1 0 0
1601 1 66.58073862270712 2.95659696623552 1.420899256279447 -1 0 0
1426 5 68.28759333653213 1.9712950621845042 0.030629477679271034 -1 0 0
1599 5 66.58040342577063 4.928234725792501 0.030629477679271443 -1 0 0
1596 1 64.87354871194566 5.913536629843518 1.4208992562794456 -1 0 0
1602 1 68.28792853346866 5.913536629843518 1.4208992562794458 -1 0 0
1424 4 66.58165383401655 0.9843584904254284 2.810859454520988 -1 0 0
1591 4 64.87446392325477 3.9412981540334284 2.81085945452099 -1 0 0
1597 4 68.28884374477776 3.941298154033428 2.8108594545209895 -1 0 0
1607 1 69.99511844423012 2.95659696623552 1.420899256279447 -1 0 0
1432 5 71.70197315805513 1.9712950621845042 0.030629477679271037 -1 0 0
1613 1 73.40949826575311 2.95659696623552 1.420899256279447 -1 0 0
1438 5 75.11635297957812 1.9712950621845045 0.030629477679271565 -1 0 0
1605 5 69.99478324729363 4.928234725792501 0.030629477679271384 -1 0 0
1611 5 73.40916306881662 4.928234725792501 0.030629477679271364 -1 0 0
1608 1 71.70230835499166 5.913536629843518 1.4208992562794458 -1 0 0
1614 1 75.11668817651466 5.913536629843518 1.4208992562794458 -1 0 0
1430 4 69.99603365553955 0.9843584904254284 2.8108594545209886 -1 0 0
1436 4 73.41041347706255 0.9843584904254284 2.8108594545209886 -1 0 0
1603 4 71.70322356630076 3.941298154033428 2.810859454520989 -1 0 0
1609 4 75.11760338782376 3.941298154033427 2.8108594545209873 -1 0 0
1619 1 76.82387808727611 2.9565969662355185 1.4208992562794447 -1 0 0
1444 5 78.53073280110114 1.9712950621845042 0.0306294776792709 -1 0 0
1625 1 80.23825790879911 2.956596966235521 1.4208992562794491 -1 0 0
1617 5 76.82354289033962 4.928234725792503 0.030629477679272935 -1 0 0
1623 5 80.23792271186262 4.9282347257925 0.030629477679269903 -1 0 0
1620 1 78.53106799803766 5.913536629843518 1.4208992562794456 -1 0 0
1442 4 76.82479329858555 0.9843584904254274 2.8108594545209864 -1 0 0
1448 4 80.23917312010855 0.9843584904254296 2.8108594545209904 -1 0 0
1615 4 78.53198320934676 3.941298154033428 2.810859454520989 -1 0 0
1450 5 81.94511262262412 1.9712950621845038 0.03062947767927034 -1 0 0
1631 1 83.65263773032211 2.95659696623552 1.4208992562794467 -1 0 0
1456 5 85.35949244414712 1.9712950621845045 0.03062947767927157 -1 0 0
1637 1 87.06701755184511 2.9565969662355185 1.4208992562794447 -1 0 0
1629 5 83.65230253338562 4.928234725792501 0.030629477679271388 -1 0 0
1635 5 87.06668235490862 4.928234725792503 0.03062947767927282 -1 0 0
1626 1 81.94544781956066 5.913536629843518 1.4208992562794458 -1 0 0
1632 1 85.35982764108365 5.913536629843518 1.4208992562794458 -1 0 0
1454 4 83.65355294163155 0.9843584904254284 2.810859454520988 -1 0 0
1460 4 87.06793276315454 0.9843584904254276 2.8108594545209864 -1 0 0
1621 4 81.94636303086976 3.941298154033429 2.810859454520991 -1 0 0
1627 4 85.36074285239276 3.941298154033427 2.8108594545209873 -1 0 0
1462 5 88.77387226567014 1.9712950621845038 0.030629477679270236 -1 0 0
1643 1 90.48139737336813 2.95659696623552 1.420899256279447 -1 0 0
1468 5 92.18825208719313 1.9712950621845042 0.030629477679271072 -1 0 0
1641 5 90.48106217643164 4.928234725792501 0.03062947767927139 -1 0 0
1638 1 88.77420746260665 5.913536629843518 1.4208992562794458 -1 0 0
1644 1 92.18858728412967 5.913536629843518 1.4208992562794458 -1 0 0
1466 4 90.48231258467756 0.9843584904254286 2.8108594545209886 -1 0 0
1633 4 88.77512267391576 3.9412981540334275 2.8108594545209886 -1 0 0
1639 4 92.18950249543876 3.941298154033428 2.810859454520989 -1 0 0
1480 5 99.01701173023913 1.9712950621845042 0.030629477679270864 -1 0 0
1649 1 93.89577719489112 2.9565969662355203 1.420899256279448 -1 0 0
1474 5 95.60263190871613 1.9712950621845056 0.03062947767927286 -1 0 0
1655 1 97.31015701641412 2.95659696623552 1.420899256279447 -1 0 0
1647 5 93.89544199795463 4.928234725792502 0.03062947767927267 -1 0 0
1653 5 97.30982181947763 4.928234725792501 0.03062947767927175 -1 0 0
1650 1 95.60296710565267 5.913536629843518 1.4208992562794458 -1 0 0
1472 4 93.89669240620056 0.9843584904254277 2.8108594545209873 -1 0 0
1478 4 97.31107222772356 0.9843584904254287 2.8108594545209886 -1 0 0
1645 4 95.60388231696177 3.9412981540334266 2.8108594545209873 -1 0 0
1835 1 1.7075220137701155 8.87047629345152 1.420899256279446 0 0 0
1660 5 3.414376727595132 7.8851743894005 0.03062947767927196 0 0 0
1841 1 5.121901835293116 8.87047629345152 1.4208992562794456 0 0 0
1830 1 0.0003321030086652076 11.827415957059518 1.4208992562794454 0 0 0
1833 5 1.707186816833633 10.842114053008503 0.03062947767927111 0 0 0
1836 1 3.4147119245316646 11.82741595705952 1.420899256279446 0 0 0
1839 5 5.121566638356633 10.842114053008503 0.030629477679271096 0 0 0
1658 4 1.7084372250795543 6.898237817641428 2.8108594545209877 0 0 0
1664 4 5.122817046602553 6.898237817641428 2.8108594545209877 0 0 0
1831 4 3.4156271358407624 9.855177481249425 2.810859454520988 0 0 0
1825 4 0.001247314317765813 9.855177481249425 2.810859454520988 0 0 0
1666 5 6.828756549118133 7.8851743894005 0.030629477679271846 0 0 0
1847 1 8.536281656816117 8.87047629345152 1.4208992562794465 0 0 0
1672 5 10.243136370641132 7.8851743894005 0.030629477679271835 0 0 0
1842 1 6.829091746054663 11.82741595705952 1.420899256279446 0 0 0
1845 5 8.53594645987963 10.842114053008503 0.03062947767927112 0 0 0
1848 1 10.243471567577663 11.82741595705952 1.420899256279446 0 0 0
1670 4 8.537196868125553 6.898237817641428 2.8108594545209877 0 0 0
1837 4 6.830006957363762 9.855177481249425 2.810859454520988 0 0 0
1843 4 10.244386778886764 9.855177481249425 2.810859454520988 0 0 0
1853 1 11.950661478339116 8.87047629345152 1.4208992562794458 0 0 0
1678 5 13.657516192164131 7.8851743894005 0.03062947767927134 0 0 0
1859 1 15.365041299862115 8.87047629345152 1.4208992562794458 0 0 0
1684 5 17.07189601368713 7.8851743894005 0.03062947767927133 0 0 0
1851 5 11.950326281402631 10.842114053008503 0.03062947767927109 0 0 0
1854 1 13.657851389100662 11.82741595705952 1.420899256279446 0 0 0
1857 5 15.36470610292563 10.842114053008503 0.030629477679271194 0 0 0
1860 1 17.072231210623663 11.82741595705952 1.4208992562794458 0 0 0
1676 4 11.951576689648553 6.898237817641428 2.8108594545209877 0 0 0
1682 4 15.365956511171552 6.898237817641427 2.8108594545209877 0 0 0
1849 4 13.658766600409763 9.855177481249425 2.810859454520988 0 0 0
1855 4 17.073146421932762 9.855177481249425 2.810859454520988 0 0 0
1865 1 18.779421121385116 8.87047629345152 1.4208992562794458 0 0 0
1690 5 20.48627583521013 7.8851743894005 0.03062947767927134 0 0 0
1871 1 22.193800942908116 8.87047629345152 1.4208992562794456 0 0 0
1863 5 18.77908592444863 10.842114053008503 0.03062947767927108 0 0 0
1866 1 20.486611032146662 11.82741595705952 1.420899256279446 0 0 0
1869 5 22.19346574597163 10.842114053008503 0.03062947767927109 0 0 0
1688 4 18.78033633269455 6.898237817641428 2.8108594545209877 0 0 0
1694 4 22.19471615421755 6.898237817641428 2.8108594545209877 0 0 0
1861 4 20.48752624345576 9.855177481249425 2.810859454520988 0 0 0
1696 5 23.90065565673313 7.8851743894005 0.03062947767927134 0 0 0
1877 1 25.608180764431115 8.87047629345152 1.4208992562794456 0 0 0
1702 5 27.315035478256128 7.8851743894005 0.030629477679271343 0 0 0
1883 1 29.022560585954114 8.87047629345152 1.4208992562794456 0 0 0
1872 1 23.90099085366966 11.82741595705952 1.420899256279446 0 0 0
1875 5 25.60784556749463 10.842114053008503 0.03062947767927109 0 0 0
1878 1 27.31537067519266 11.82741595705952 1.420899256279446 0 0 0
1881 5 29.022225389017628 10.842114053008503 0.030629477679271044 0 0 0
1700 4 25.609095975740548 6.898237817641428 2.8108594545209877 0 0 0
1706 4 29.023475797263547 6.898237817641428 2.810859454520988 0 0 0
1867 4 23.90190606497876 9.855177481249425 2.8108594545209877 0 0 0
1873 4 27.31628588650176 9.855177481249425 2.8108594545209877 0 0 0
1708 5 30.729415299779127 7.8851743894005 0.03062947767927083 0 0 0
1889 1 32.43694040747712 8.87047629345152 1.4208992562794447 0 0 0
1714 5 34.143795121302134 7.8851743894005 0.030629477679271423 0 0 0
1884 1 30.72975049671566 11.82741595705952 1.4208992562794462 0 0 0
1887 5 32.43660521054063 10.842114053008503 0.0306294776792718 0 0 0
1890 1 34.14413031823866 11.82741595705952 1.420899256279446 0 0 0
1712 4 32.43785561878655 6.898237817641427 2.8108594545209864 0 0 0
1879 4 30.73066570802476 9.855177481249425 2.8108594545209877 0 0 0
1885 4 34.14504552954776 9.855177481249425 2.810859454520987 0 0 0
1895 1 35.851320229000116 8.87047629345152 1.4208992562794456 0 0 0
1720 5 37.55817494282513 7.8851743894005 0.03062947767927139 0 0 0
1901 1 39.265700050523115 8.87047629345152 1.4208992562794456 0 0 0
1893 5 35.850985032063626 10.842114053008503 0.03062947767927167 0 0 0
1896 1 37.55851013976166 11.82741595705952 1.420899256279446 0 0 0
1899 5 39.265364853586625 10.842114053008503 0.030629477679271048 0 0 0
1718 4 35.85223544030955 6.898237817641427 2.8108594545209873 0 0 0
1724 4 39.26661526183255 6.898237817641428 2.8108594545209877 0 0 0
1891 4 37.559425351070765 9.855177481249425 2.8108594545209877 0 0 0
1726 5 40.97255476434813 7.8851743894005 0.030629477679271322 0 0 0
1907 1 42.680079872046115 8.870476293451517 1.420899256279445 0 0 0
1732 5 44.38693458587113 7.885174389400501 0.030629477679273126 0 0 0
1913 1 46.09445969356912 8.87047629345152 1.4208992562794462 0 0 0
1902 1 40.97288996128466 11.82741595705952 1.420899256279446 0 0 0
1905 5 42.67974467510963 10.842114053008503 0.030629477679271468 0 0 0
1908 1 44.387269782807664 11.82741595705952 1.420899256279446 0 0 0
1911 5 46.09412449663264 10.842114053008503 0.030629477679271586 0 0 0
1730 4 42.68099508335555 6.898237817641427 2.8108594545209877 0 0 0
1736 4 46.095374904878554 6.898237817641427 2.8108594545209873 0 0 0
1897 4 40.973805172593764 9.855177481249425 2.8108594545209877 0 0 0
1903 4 44.38818499411676 9.855177481249425 2.8108594545209864 0 0 0
1738 5 47.80131440739413 7.8851743894005 0.030629477679271853 0 0 0
1745 1 49.50883951509212 8.87047629345152 1.4208992562794465 -1 0 0
1570 5 51.21569422891713 7.8851743894005 0.030629477679272585 -1 0 0
1914 1 47.80164960433067 11.82741595705952 1.420899256279446 0 0 0
1743 5 49.50850431815564 10.842114053008503 0.030629477679271325 -1 0 0
1746 1 51.21602942585367 11.82741595705952 1.4208992562794458 -1 0 0
1568 4 49.50975472640156 6.898237817641428 2.810859454520988 -1 0 0
1909 4 47.80256481563976 9.855177481249425 2.810859454520988 0 0 0
1741 4 51.21694463716277 9.855177481249427 2.8108594545209877 -1 0 0
1751 1 52.92321933661512 8.87047629345152 1.4208992562794462 -1 0 0
1576 5 54.630074050440136 7.8851743894005 0.030629477679271107 -1 0 0
1757 1 56.33759915813812 8.870476293451517 1.4208992562794447 -1 0 0
1582 5 58.044453871963135 7.8851743894005 0.030629477679271076 -1 0 0
1749 5 52.92288413967864 10.842114053008503 0.030629477679271037 -1 0 0
1752 1 54.63040924737667 11.82741595705952 1.420899256279446 -1 0 0
1755 5 56.337263961201636 10.842114053008503 0.03062947767927182 -1 0 0
1758 1 58.04478906889967 11.82741595705952 1.420899256279446 -1 0 0
1574 4 52.92413454792456 6.898237817641428 2.810859454520988 -1 0 0
1580 4 56.33851436944756 6.898237817641427 2.810859454520987 -1 0 0
1747 4 54.63132445868577 9.855177481249425 2.810859454520988 -1 0 0
1753 4 58.04570428020877 9.855177481249425 2.8108594545209877 -1 0 0
1763 1 59.751978979661125 8.87047629345152 1.4208992562794456 -1 0 0
1588 5 61.458833693486135 7.8851743894005 0.030629477679271884 -1 0 0
1769 1 63.16635880118412 8.87047629345152 1.4208992562794462 -1 0 0
1761 5 59.751643782724635 10.842114053008503 0.030629477679271048 -1 0 0
1764 1 61.45916889042267 11.82741595705952 1.420899256279446 -1 0 0
1767 5 63.166023604247634 10.842114053008501 0.03062947767926948 -1 0 0
1586 4 59.75289419097056 6.898237817641428 2.8108594545209877 -1 0 0
1592 4 63.16727401249356 6.898237817641429 2.8108594545209895 -1 0 0
1759 4 61.460084101731766 9.855177481249425 2.810859454520988 -1 0 0
1594 5 64.87321351500913 7.8851743894004995 0.030629477679271204 -1 0 0
1775 1 66.58073862270712 8.87047629345152 1.4208992562794456 -1 0 0
1600 5 68.28759333653213 7.8851743894005 0.03062947767927139 -1 0 0
1770 1 64.87354871194566 11.82741595705952 1.420899256279446 -1 0 0
1773 5 66.58040342577063 10.842114053008503 0.03062947767927116 -1 0 0
1776 1 68.28792853346866 11.82741595705952 1.420899256279446 -1 0 0
1598 4 66.58165383401655 6.898237817641428 2.8108594545209877 -1 0 0
1765 4 64.87446392325477 9.855177481249427 2.810859454520989 -1 0 0
1771 4 68.28884374477776 9.855177481249425 2.810859454520988 -1 0 0
1781 1 69.99511844423012 8.87047629345152 1.4208992562794456 -1 0 0
1606 5 71.70197315805513 7.8851743894005 0.03062947767927139 -1 0 0
1787 1 73.40949826575311 8.87047629345152 1.4208992562794456 -1 0 0
1612 5 75.11635297957812 7.8851743894005 0.030629477679271953 -1 0 0
1779 5 69.99478324729363 10.842114053008503 0.030629477679271096 -1 0 0
1782 1 71.70230835499166 11.82741595705952 1.420899256279446 -1 0 0
1785 5 73.40916306881662 10.842114053008503 0.030629477679271072 -1 0 0
1788 1 75.11668817651466 11.82741595705952 1.420899256279446 -1 0 0
1604 4 69.99603365553955 6.898237817641428 2.8108594545209877 -1 0 0
1610 4 73.41041347706255 6.898237817641428 2.8108594545209877 -1 0 0
1777 4 71.70322356630076 9.855177481249425 2.8108594545209877 -1 0 0
1783 4 75.11760338782376 9.855177481249425 2.810859454520986 -1 0 0
1793 1 76.82387808727611 8.870476293451517 1.4208992562794434 -1 0 0
1618 5 78.53073280110114 7.8851743894005 0.030629477679271325 -1 0 0
1799 1 80.23825790879911 8.87047629345152 1.4208992562794478 -1 0 0
1791 5 76.82354289033962 10.842114053008505 0.030629477679272602 -1 0 0
1794 1 78.53106799803766 11.82741595705952 1.4208992562794458 -1 0 0
1797 5 80.23792271186262 10.842114053008501 0.030629477679269518 -1 0 0
1616 4 76.82479329858555 6.8982378176414265 2.810859454520986 -1 0 0
1622 4 80.23917312010855 6.898237817641429 2.81085945452099 -1 0 0
1789 4 78.53198320934676 9.855177481249425 2.8108594545209877 -1 0 0
1624 5 81.94511262262412 7.8851743894004995 0.03062947767927077 -1 0 0
1805 1 83.65263773032211 8.87047629345152 1.4208992562794456 -1 0 0
1630 5 85.35949244414712 7.8851743894005 0.030629477679272075 -1 0 0
1811 1 87.06701755184511 8.870476293451517 1.4208992562794434 -1 0 0
1800 1 81.94544781956066 11.82741595705952 1.420899256279446 -1 0 0
1803 5 83.65230253338562 10.842114053008503 0.030629477679271096 -1 0 0
1806 1 85.35982764108365 11.82741595705952 1.420899256279446 -1 0 0
1809 5 87.06668235490862 10.842114053008505 0.030629477679272325 -1 0 0
1628 4 83.65355294163155 6.898237817641428 2.8108594545209877 -1 0 0
1634 4 87.06793276315454 6.898237817641427 2.8108594545209855 -1 0 0
1795 4 81.94636303086976 9.855177481249427 2.8108594545209895 -1 0 0
1801 4 85.36074285239276 9.855177481249425 2.810859454520986 -1 0 0
1636 5 88.77387226567014 7.8851743894005 0.03062947767927061 -1 0 0
1817 1 90.48139737336813 8.87047629345152 1.4208992562794456 -1 0 0
1642 5 92.18825208719313 7.8851743894005 0.030629477679271346 -1 0 0
1812 1 88.77420746260665 11.82741595705952 1.420899256279446 -1 0 0
1815 5 90.48106217643164 10.842114053008503 0.030629477679271006 -1 0 0
1818 1 92.18858728412967 11.82741595705952 1.4208992562794458 -1 0 0
1640 4 90.48231258467756 6.898237817641428 2.810859454520988 -1 0 0
1807 4 88.77512267391576 9.855177481249425 2.8108594545209873 -1 0 0
1813 4 92.18950249543876 9.855177481249425 2.8108594545209877 -1 0 0
1654 5 99.01701173023913 7.8851743894005 0.030629477679271447 -1 0 0
1823 1 93.89577719489112 8.87047629345152 1.420899256279447 -1 0 0
1648 5 95.60263190871613 7.885174389400501 0.03062947767927321 -1 0 0
1829 1 97.31015701641412 8.87047629345152 1.4208992562794456 -1 0 0
1821 5 93.89544199795463 10.842114053008503 0.030629477679272182 -1 0 0
1824 1 95.60296710565267 11.82741595705952 1.420899256279446 -1 0 0
1827 5 97.30982181947763 10.842114053008503 0.03062947767927146 -1 0 0
1646 4 93.89669240620056 6.898237817641427 2.810859454520987 -1 0 0
1652 4 97.31107222772356 6.898237817641428 2.8108594545209877 -1 0 0
1819 4 95.60388231696177 9.855177481249425 2.8108594545209864 -1 0 0
1834 5 3.414376727595132 13.799053716616502 0.030629477679271645 0 0 0
2009 1 1.7075220137701157 14.78435562066752 1.420899256279446 0 0 0
2015 1 5.121901835293116 14.78435562066752 1.4208992562794456 0 0 0
2007 5 1.707186816833633 16.755993380224503 0.03062947767927252 0 0 0
2013 5 5.121566638356632 16.755993380224503 0.030629477679272342 0 0 0
1832 4 1.7084372250795543 12.812117144857428 2.810859454520989 0 0 0
1838 4 5.122817046602553 12.812117144857428 2.8108594545209886 0 0 0
2005 4 3.4156271358407624 15.769056808465429 2.8108594545209877 0 0 0
1999 4 0.001247314317765813 15.769056808465429 2.8108594545209877 0 0 0
2004 1 0.00033210300866514075 17.74129528427552 1.420899256279446 0 0 0
2010 1 3.4147119245316646 17.74129528427552 1.4208992562794467 0 0 0
1840 5 6.828756549118133 13.799053716616504 0.03062947767927178 0 0 0
1846 5 10.243136370641132 13.799053716616504 0.030629477679271714 0 0 0
2021 1 8.536281656816117 14.78435562066752 1.4208992562794465 0 0 0
2019 5 8.53594645987963 16.755993380224503 0.03062947767927255 0 0 0
1844 4 8.537196868125553 12.812117144857428 2.810859454520989 0 0 0
2011 4 6.830006957363762 15.769056808465429 2.8108594545209877 0 0 0
2017 4 10.244386778886764 15.769056808465429 2.8108594545209877 0 0 0
2016 1 6.829091746054664 17.74129528427552 1.4208992562794467 0 0 0
2022 1 10.243471567577663 17.74129528427552 1.4208992562794465 0 0 0
1852 5 13.657516192164131 13.799053716616502 0.030629477679271405 0 0 0
1858 5 17.07189601368713 13.799053716616502 0.030629477679271395 0 0 0
2027 1 11.950661478339116 14.78435562066752 1.4208992562794458 0 0 0
2033 1 15.365041299862115 14.78435562066752 1.4208992562794458 0 0 0
2025 5 11.95032628140263 16.755993380224503 0.03062947767927241 0 0 0
2031 5 15.36470610292563 16.755993380224503 0.030629477679272585 0 0 0
1850 4 11.951576689648553 12.812117144857428 2.8108594545209886 0 0 0
1856 4 15.365956511171552 12.812117144857428 2.8108594545209886 0 0 0
2023 4 13.658766600409763 15.769056808465429 2.8108594545209877 0 0 0
2029 4 17.073146421932762 15.769056808465429 2.8108594545209877 0 0 0
2028 1 13.657851389100662 17.74129528427552 1.4208992562794467 0 0 0
2034 1 17.072231210623663 17.74129528427552 1.4208992562794462 0 0 0
1864 5 20.48627583521013 13.799053716616502 0.030629477679271405 0 0 0
2039 1 18.779421121385116 14.78435562066752 1.4208992562794458 0 0 0
2045 1 22.193800942908116 14.78435562066752 1.4208992562794458 0 0 0
2037 5 18.77908592444863 16.755993380224503 0.0306294776792724 0 0 0
2043 5 22.19346574597163 16.755993380224503 0.03062947767927241 0 0 0
1862 4 18.78033633269455 12.812117144857428 2.8108594545209886 0 0 0
1868 4 22.19471615421755 12.812117144857428 2.8108594545209886 0 0 0
2035 4 20.48752624345576 15.769056808465429 2.8108594545209877 0 0 0
2040 1 20.486611032146662 17.74129528427552 1.4208992562794467 0 0 0
1870 5 23.90065565673313 13.799053716616502 0.030629477679271405 0 0 0
1876 5 27.315035478256128 13.799053716616502 0.03062947767927141 0 0 0
2051 1 25.608180764431115 14.78435562066752 1.4208992562794458 0 0 0
2057 1 29.022560585954114 14.78435562066752 1.4208992562794458 0 0 0
2049 5 25.60784556749463 16.755993380224503 0.03062947767927241 0 0 0
2055 5 29.022225389017628 16.755993380224503 0.030629477679272373 0 0 0
1874 4 25.609095975740548 12.812117144857428 2.8108594545209886 0 0 0
1880 4 29.023475797263547 12.812117144857428 2.8108594545209886 0 0 0
2041 4 23.90190606497876 15.769056808465429 2.8108594545209877 0 0 0
2047 4 27.31628588650176 15.769056808465429 2.8108594545209877 0 0 0
2046 1 23.90099085366966 17.74129528427552 1.4208992562794467 0 0 0
2052 1 27.31537067519266 17.74129528427552 1.4208992562794467 0 0 0
1882 5 30.729415299779127 13.799053716616502 0.03062947767927065 0 0 0
1888 5 34.143795121302134 13.799053716616502 0.030629477679271412 0 0 0
2063 1 32.43694040747712 14.784355620667519 1.4208992562794451 0 0 0
2061 5 32.43660521054063 16.755993380224503 0.030629477679273178 0 0 0
1886 4 32.43785561878655 12.812117144857428 2.8108594545209873 0 0 0
2053 4 30.73066570802476 15.769056808465429 2.8108594545209873 0 0 0
2059 4 34.14504552954776 15.769056808465429 2.8108594545209864 0 0 0
2058 1 30.72975049671566 17.74129528427552 1.4208992562794467 0 0 0
2064 1 34.14413031823866 17.74129528427552 1.4208992562794465 0 0 0
1894 5 37.55817494282513 13.799053716616502 0.030629477679271367 0 0 0
2069 1 35.851320229000116 14.78435562066752 1.4208992562794458 0 0 0
2075 1 39.265700050523115 14.78435562066752 1.4208992562794458 0 0 0
2067 5 35.850985032063626 16.755993380224503 0.030629477679272956 0 0 0
2073 5 39.26536485358663 16.755993380224503 0.030629477679272318 0 0 0
1892 4 35.85223544030955 12.812117144857428 2.8108594545209877 0 0 0
1898 4 39.26661526183255 12.812117144857428 2.8108594545209886 0 0 0
2065 4 37.559425351070765 15.769056808465429 2.8108594545209877 0 0 0
2070 1 37.55851013976166 17.74129528427552 1.4208992562794465 0 0 0
1900 5 40.97255476434813 13.799053716616502 0.030629477679271298 0 0 0
1906 5 44.38693458587113 13.799053716616504 0.030629477679273053 0 0 0
2081 1 42.680079872046115 14.78435562066752 1.4208992562794451 0 0 0
2087 1 46.09445969356912 14.78435562066752 1.4208992562794462 0 0 0
2079 5 42.67974467510963 16.755993380224503 0.03062947767927274 0 0 0
2085 5 46.09412449663264 16.755993380224503 0.030629477679272852 0 0 0
1904 4 42.68099508335555 12.812117144857428 2.810859454520988 0 0 0
1910 4 46.095374904878554 12.812117144857428 2.810859454520988 0 0 0
2071 4 40.973805172593764 15.769056808465429 2.8108594545209877 0 0 0
2077 4 44.38818499411676 15.769056808465427 2.810859454520986 0 0 0