LAMMPS data file via write_data, version 29 Aug 2024, timestep = 2, units = metal

5916 atoms
6 atom types

0 99.017014824167 xlo xhi
0 100.535948562672 ylo yhi
-50 50 zlo zhi

Masses

1 47.867
2 47.867
3 32.06
4 32.06
5 32.06
6 32.06

Atoms # atomic

1661 1 1.7075108308115625 2.956608676530267 1.420963777179149 0 0 0
1486 4 3.4143766985798023 1.9712950797955837 0.030727201975885077 0 0 0
1667 1 5.121890652334564 2.956608676530266 1.420963777179148 0 0 0
1659 4 1.707186787818307 4.928234743403581 0.030727201975885406 0 0 0
1665 4 5.121566609341306 4.928234743403581 0.030727201975885264 0 0 0
1656 1 0.0003209200501038395 5.913548340138266 1.4209637771791477 0 0 0
1662 1 3.414700741573105 5.913548340138265 1.4209637771791468 0 0 0
1484 3 1.7084424248817736 0.9843536689406419 2.810669600750847 0 0 0
1490 3 5.122822246404773 0.9843536689406421 2.810669600750847 0 0 0
1657 3 3.4156323356429774 3.9412933325486414 2.8106696007508485 0 0 0
1651 3 0.0012525141199688505 3.9412933325486414 2.8106696007508485 0 0 0
1492 4 6.828756520102802 1.9712950797955837 0.03072720197588521 0 0 0
1673 1 8.536270473857565 2.9566086765302666 1.4209637771791483 0 0 0
1498 4 10.243136341625801 1.9712950797955837 0.03072720197588516 0 0 0
1671 4 8.535946430864305 4.928234743403581 0.030727201975885462 0 0 0
1668 1 6.829080563096104 5.913548340138265 1.4209637771791468 0 0 0
1674 1 10.243460384619103 5.913548340138265 1.4209637771791466 0 0 0
1496 3 8.537202067927772 0.984353668940642 2.810669600750847 0 0 0
1663 3 6.830012157165977 3.9412933325486414 2.810669600750848 0 0 0
1669 3 10.244391978688979 3.9412933325486414 2.810669600750848 0 0 0
1679 1 11.950650295380564 2.956608676530266 1.4209637771791477 0 0 0
1504 4 13.6575161631488 1.9712950797955835 0.030727201975884747 0 0 0
1685 1 15.365030116903563 2.956608676530266 1.420963777179148 0 0 0
1510 4 17.0718959846718 1.9712950797955835 0.030727201975884577 0 0 0
1677 4 11.950326252387304 4.928234743403581 0.030727201975885344 0 0 0
1683 4 15.364706073910304 4.928234743403581 0.030727201975885344 0 0 0
1680 1 13.657840206142103 5.913548340138265 1.4209637771791466 0 0 0
1686 1 17.072220027665104 5.913548340138265 1.4209637771791463 0 0 0
1502 3 11.951581889450772 0.9843536689406422 2.810669600750847 0 0 0
1508 3 15.365961710973771 0.984353668940642 2.810669600750847 0 0 0
1675 3 13.658771800211978 3.9412933325486414 2.810669600750848 0 0 0
1681 3 17.073151621734976 3.9412933325486414 2.810669600750848 0 0 0
1691 1 18.77940993842656 2.956608676530266 1.420963777179148 0 0 0
1516 4 20.4862758061948 1.9712950797955835 0.03072720197588475 0 0 0
1697 1 22.19378975994956 2.956608676530266 1.420963777179148 0 0 0
1689 4 18.779085895433305 4.928234743403581 0.030727201975885344 0 0 0
1695 4 22.193465716956304 4.928234743403581 0.030727201975885344 0 0 0
1692 1 20.486599849188103 5.913548340138265 1.4209637771791466 0 0 0
1514 3 18.78034153249677 0.984353668940642 2.810669600750847 0 0 0
1520 3 22.19472135401977 0.9843536689406421 2.810669600750847 0 0 0
1687 3 20.487531443257975 3.9412933325486414 2.810669600750848 0 0 0
1522 4 23.9006556277178 1.9712950797955835 0.03072720197588475 0 0 0
1703 1 25.60816958147256 2.956608676530266 1.420963777179148 0 0 0
1528 4 27.3150354492408 1.9712950797955835 0.03072720197588475 0 0 0
1709 1 29.02254940299556 2.956608676530266 1.420963777179148 0 0 0
1701 4 25.607845538479303 4.928234743403581 0.030727201975885344 0 0 0
1707 4 29.022225360002302 4.928234743403581 0.030727201975885278 0 0 0
1698 1 23.900979670711102 5.913548340138265 1.4209637771791466 0 0 0
1704 1 27.3153594922341 5.913548340138265 1.4209637771791466 0 0 0
1526 3 25.60910117554277 0.984353668940642 2.810669600750847 0 0 0
1532 3 29.023480997065768 0.9843536689406421 2.810669600750847 0 0 0
1693 3 23.901911264780974 3.9412933325486414 2.810669600750848 0 0 0
1699 3 27.316291086303973 3.9412933325486414 2.810669600750848 0 0 0
1534 4 30.7294152707638 1.9712950797955837 0.030727201975884633 0 0 0
1715 1 32.436929224518565 2.9566086765302657 1.4209637771791463 0 0 0
1540 4 34.1437950922868 1.9712950797955833 0.030727201975884116 0 0 0
1713 4 32.43660518152531 4.928234743403582 0.030727201975886465 0 0 0
1710 1 30.7297393137571 5.913548340138265 1.4209637771791463 0 0 0
1716 1 34.1441191352801 5.913548340138266 1.4209637771791475 0 0 0
1538 3 32.43786081858877 0.9843536689406412 2.8106696007508454 0 0 0
1705 3 30.730670907826976 3.941293332548641 2.810669600750847 0 0 0
1711 3 34.145050729349975 3.941293332548641 2.8106696007508476 0 0 0
1721 1 35.851309046041564 2.956608676530266 1.420963777179148 0 0 0
1546 4 37.5581749138098 1.9712950797955835 0.03072720197588479 0 0 0
1727 1 39.26568886756456 2.956608676530266 1.420963777179148 0 0 0
1719 4 35.8509850030483 4.928234743403581 0.03072720197588537 0 0 0
1725 4 39.2653648245713 4.928234743403581 0.030727201975885396 0 0 0
1722 1 37.5584989568031 5.913548340138265 1.4209637771791468 0 0 0
1544 3 35.85224064011177 0.984353668940642 2.810669600750847 0 0 0
1550 3 39.26662046163477 0.984353668940642 2.810669600750847 0 0 0
1717 3 37.559430550872975 3.9412933325486414 2.810669600750848 0 0 0
1552 4 40.9725547353328 1.9712950797955835 0.03072720197588472 0 0 0
1733 1 42.68006868908756 2.956608676530266 1.420963777179148 0 0 0
1558 4 44.386934556855806 1.971295079795585 0.03072720197588648 0 0 0
1739 1 46.09444851061057 2.956608676530266 1.420963777179147 0 0 0
1731 4 42.679744646094306 4.928234743403581 0.030727201975885726 0 0 0
1737 4 46.09412446761731 4.928234743403581 0.03072720197588567 0 0 0
1728 1 40.9728787783261 5.913548340138265 1.4209637771791466 0 0 0
1734 1 44.387258599849105 5.913548340138265 1.4209637771791468 0 0 0
1556 3 42.68100028315777 0.9843536689406417 2.8106696007508467 0 0 0
1562 3 46.09538010468078 0.9843536689406419 2.810669600750847 0 0 0
1723 3 40.973810372395974 3.9412933325486414 2.810669600750848 0 0 0
1729 3 44.38819019391898 3.94129333254864 2.8106696007508463 0 0 0
1564 4 47.80131437837881 1.9712950797955842 0.030727201975885788 0 0 0
1571 1 49.50882833213357 2.956608676530267 1.4209637771791495 -1 0 0
1396 4 51.21569419990181 1.9712950797955837 0.030727201975885177 -1 0 0
1569 4 49.50850428914031 4.928234743403581 0.03072720197588543 -1 0 0
1740 1 47.80163842137211 5.913548340138265 1.4209637771791468 0 0 0
1572 1 51.21601824289511 5.913548340138265 1.4209637771791468 -1 0 0
1394 3 49.50975992620378 0.9843536689406419 2.8106696007508476 -1 0 0
1735 3 47.80257001544198 3.941293332548642 2.810669600750848 0 0 0
1567 3 51.216949836964986 3.941293332548642 2.8106696007508485 -1 0 0
1577 1 52.92320815365657 2.956608676530266 1.4209637771791477 -1 0 0
1402 4 54.63007402142481 1.9712950797955835 0.030727201975884463 -1 0 0
1583 1 56.33758797517957 2.956608676530266 1.4209637771791472 -1 0 0
1408 4 58.04445384294781 1.9712950797955837 0.030727201975885056 -1 0 0
1575 4 52.92288411066331 4.928234743403581 0.030727201975885257 -1 0 0
1581 4 56.33726393218631 4.928234743403582 0.03072720197588602 -1 0 0
1578 1 54.63039806441811 5.913548340138265 1.4209637771791468 -1 0 0
1584 1 58.04477788594111 5.913548340138265 1.4209637771791461 -1 0 0
1400 3 52.92413974772678 0.9843536689406422 2.810669600750847 -1 0 0
1406 3 56.338519569249776 0.9843536689406418 2.8106696007508463 -1 0 0
1573 3 54.631329658487985 3.9412933325486414 2.810669600750848 -1 0 0
1579 3 58.045709480010984 3.941293332548641 2.810669600750847 -1 0 0
1589 1 59.75196779670257 2.956608676530266 1.420963777179148 -1 0 0
1414 4 61.45883366447081 1.9712950797955833 0.030727201975884563 -1 0 0
1595 1 63.166347618225565 2.956608676530267 1.4209637771791488 -1 0 0
1587 4 59.75164375370931 4.928234743403581 0.030727201975885375 -1 0 0
1593 4 63.16602357523231 4.92823474340358 0.030727201975885125 -1 0 0
1590 1 61.45915770746411 5.913548340138266 1.4209637771791475 -1 0 0
1412 3 59.752899390772775 0.9843536689406421 2.810669600750847 -1 0 0
1418 3 63.167279212295774 0.9843536689406421 2.8106696007508476 -1 0 0
1585 3 61.46008930153398 3.941293332548642 2.810669600750849 -1 0 0
1420 4 64.8732134859938 1.9712950797955837 0.03072720197588512 -1 0 0
1601 1 66.58072743974857 2.956608676530266 1.4209637771791477 -1 0 0
1426 4 68.2875933075168 1.9712950797955835 0.030727201975884747 -1 0 0
1599 4 66.5804033967553 4.928234743403581 0.030727201975885354 -1 0 0
1596 1 64.87353752898711 5.913548340138265 1.4209637771791461 -1 0 0
1602 1 68.2879173505101 5.913548340138265 1.4209637771791466 -1 0 0
1424 3 66.58165903381877 0.9843536689406421 2.810669600750847 -1 0 0
1591 3 64.87446912305698 3.9412933325486414 2.810669600750848 -1 0 0
1597 3 68.28884894457998 3.9412933325486414 2.810669600750848 -1 0 0
1607 1 69.99510726127157 2.956608676530266 1.4209637771791477 -1 0 0
1432 4 71.7019731290398 1.9712950797955835 0.03072720197588475 -1 0 0
1613 1 73.40948708279457 2.956608676530266 1.420963777179148 -1 0 0
1438 4 75.1163529505628 1.9712950797955833 0.030727201975884088 -1 0 0
1605 4 69.9947832182783 4.928234743403581 0.03072720197588534 -1 0 0
1611 4 73.4091630398013 4.928234743403581 0.030727201975885316 -1 0 0
1608 1 71.7022971720331 5.913548340138265 1.4209637771791466 -1 0 0
1614 1 75.11667699355611 5.913548340138266 1.420963777179148 -1 0 0
1430 3 69.99603885534177 0.9843536689406421 2.810669600750847 -1 0 0
1436 3 73.41041867686477 0.9843536689406422 2.810669600750847 -1 0 0
1603 3 71.70322876610298 3.9412933325486414 2.810669600750848 -1 0 0
1609 3 75.11760858762598 3.941293332548641 2.8106696007508476 -1 0 0
1619 1 76.82386690431757 2.9566086765302657 1.4209637771791468 -1 0 0
1444 4 78.5307327720858 1.9712950797955835 0.030727201975884782 -1 0 0
1625 1 80.23824672584057 2.956608676530267 1.4209637771791488 -1 0 0
1617 4 76.8235428613243 4.928234743403582 0.030727201975885656 -1 0 0
1623 4 80.2379226828473 4.92823474340358 0.030727201975884865 -1 0 0
1620 1 78.5310568150791 5.913548340138265 1.4209637771791468 -1 0 0
1442 3 76.82479849838778 0.9843536689406418 2.8106696007508463 -1 0 0
1448 3 80.23917831991078 0.9843536689406425 2.8106696007508476 -1 0 0
1615 3 78.53198840914898 3.9412933325486414 2.810669600750848 -1 0 0
1450 4 81.9451125936088 1.971295079795584 0.030727201975885313 -1 0 0
1631 1 83.65262654736357 2.956608676530266 1.4209637771791477 -1 0 0
1456 4 85.3594924151318 1.9712950797955833 0.030727201975884095 -1 0 0
1637 1 87.06700636888657 2.9566086765302657 1.4209637771791468 -1 0 0
1629 4 83.6523025043703 4.928234743403581 0.03072720197588534 -1 0 0
1635 4 87.0666823258933 4.928234743403582 0.030727201975886853 -1 0 0
1626 1 81.94543663660211 5.913548340138265 1.4209637771791455 -1 0 0
1632 1 85.35981645812511 5.913548340138266 1.420963777179148 -1 0 0
1454 3 83.65355814143376 0.9843536689406421 2.810669600750847 -1 0 0
1460 3 87.06793796295678 0.9843536689406418 2.8106696007508463 -1 0 0
1621 3 81.94636823067198 3.941293332548642 2.8106696007508485 -1 0 0
1627 3 85.36074805219498 3.941293332548641 2.8106696007508476 -1 0 0
1462 4 88.7738722366548 1.9712950797955842 0.03072720197588536 -1 0 0
1643 1 90.48138619040957 2.956608676530266 1.420963777179148 -1 0 0
1468 4 92.18825205817781 1.9712950797955835 0.03072720197588478 -1 0 0
1641 4 90.48106214741631 4.928234743403581 0.03072720197588529 -1 0 0
1638 1 88.77419627964811 5.913548340138265 1.4209637771791455 -1 0 0
1644 1 92.18857610117111 5.913548340138265 1.4209637771791468 -1 0 0
1466 3 90.48231778447978 0.9843536689406414 2.8106696007508463 -1 0 0
1633 3 88.77512787371798 3.9412933325486406 2.8106696007508463 -1 0 0
1639 3 92.18950769524098 3.9412933325486414 2.810669600750848 -1 0 0
1480 4 99.01701170122381 1.9712950797955835 0.03072720197588476 -1 0 0
1649 1 93.89576601193257 2.956608676530266 1.420963777179148 -1 0 0
1474 4 95.60263187970081 1.9712950797955848 0.030727201975886468 -1 0 0
1655 1 97.31014583345556 2.9566086765302657 1.4209637771791463 -1 0 0
1647 4 93.89544196893931 4.928234743403581 0.030727201975885195 -1 0 0
1653 4 97.30982179046231 4.928234743403581 0.030727201975885816 -1 0 0
1650 1 95.60295592269411 5.913548340138265 1.4209637771791468 -1 0 0
1472 3 93.89669760600277 0.9843536689406421 2.810669600750847 -1 0 0
1478 3 97.31107742752577 0.9843536689406416 2.8106696007508463 -1 0 0
1645 3 95.60388751676398 3.94129333254864 2.8106696007508463 -1 0 0
1835 1 1.7075108308115625 8.870488003746265 1.4209637771791477 0 0 0
1660 4 3.4143766985798023 7.88517440701158 0.03072720197588578 0 0 0
1841 1 5.121890652334564 8.870488003746265 1.4209637771791463 0 0 0
1830 1 0.00032092005010389964 11.827427667354266 1.420963777179148 0 0 0
1833 4 1.707186787818307 10.842114070619582 0.030727201975884938 0 0 0
1836 1 3.414700741573105 11.827427667354266 1.420963777179147 0 0 0
1839 4 5.121566609341306 10.842114070619582 0.030727201975884813 0 0 0
1658 3 1.7084424248817736 6.898232996156642 2.810669600750847 0 0 0
1664 3 5.122822246404773 6.898232996156642 2.8106696007508463 0 0 0
1831 3 3.415632335642977 9.85517265976464 2.810669600750847 0 0 0
1825 3 0.0012525141199688505 9.85517265976464 2.8106696007508476 0 0 0
1666 4 6.828756520102802 7.88517440701158 0.03072720197588573 0 0 0
1847 1 8.536270473857565 8.870488003746265 1.4209637771791472 0 0 0
1672 4 10.243136341625801 7.88517440701158 0.030727201975885726 0 0 0
1842 1 6.829080563096104 11.827427667354266 1.4209637771791468 0 0 0
1845 4 8.535946430864305 10.842114070619582 0.03072720197588506 0 0 0
1848 1 10.243460384619103 11.827427667354266 1.4209637771791468 0 0 0
1670 3 8.537202067927772 6.898232996156642 2.8106696007508467 0 0 0
1837 3 6.830012157165977 9.85517265976464 2.810669600750847 0 0 0
1843 3 10.244391978688979 9.85517265976464 2.810669600750847 0 0 0
1853 1 11.950650295380564 8.870488003746265 1.4209637771791463 0 0 0
1678 4 13.6575161631488 7.88517440701158 0.030727201975885365 0 0 0
1859 1 15.365030116903563 8.870488003746265 1.4209637771791463 0 0 0
1684 4 17.0718959846718 7.88517440701158 0.030727201975885188 0 0 0
1851 4 11.950326252387304 10.842114070619582 0.030727201975884758 0 0 0
1854 1 13.657840206142103 11.827427667354266 1.4209637771791468 0 0 0
1857 4 15.364706073910304 10.842114070619582 0.030727201975884758 0 0 0
1860 1 17.072220027665104 11.827427667354266 1.4209637771791466 0 0 0
1676 3 11.951581889450772 6.898232996156642 2.8106696007508467 0 0 0
1682 3 15.365961710973771 6.898232996156642 2.8106696007508463 0 0 0
1849 3 13.658771800211978 9.85517265976464 2.810669600750847 0 0 0
1855 3 17.073151621734976 9.85517265976464 2.810669600750847 0 0 0
1865 1 18.77940993842656 8.870488003746265 1.4209637771791463 0 0 0
1690 4 20.4862758061948 7.88517440701158 0.030727201975885358 0 0 0
1871 1 22.19378975994956 8.870488003746265 1.4209637771791463 0 0 0
1863 4 18.779085895433305 10.842114070619582 0.030727201975884758 0 0 0
1866 1 20.486599849188103 11.827427667354266 1.4209637771791468 0 0 0
1869 4 22.193465716956304 10.842114070619582 0.030727201975884758 0 0 0
1688 3 18.78034153249677 6.898232996156642 2.8106696007508463 0 0 0
1694 3 22.19472135401977 6.898232996156642 2.8106696007508467 0 0 0
1861 3 20.487531443257975 9.85517265976464 2.810669600750847 0 0 0
1696 4 23.9006556277178 7.88517440701158 0.030727201975885358 0 0 0
1877 1 25.60816958147256 8.870488003746265 1.4209637771791463 0 0 0
1702 4 27.3150354492408 7.88517440701158 0.030727201975885358 0 0 0
1883 1 29.02254940299556 8.870488003746265 1.4209637771791463 0 0 0
1872 1 23.900979670711102 11.827427667354266 1.4209637771791468 0 0 0
1875 4 25.607845538479303 10.842114070619582 0.030727201975884758 0 0 0
1878 1 27.3153594922341 11.827427667354266 1.4209637771791468 0 0 0
1881 4 29.022225360002302 10.842114070619582 0.030727201975884688 0 0 0
1700 3 25.60910117554277 6.898232996156642 2.8106696007508463 0 0 0
1706 3 29.023480997065768 6.898232996156642 2.8106696007508467 0 0 0
1867 3 23.901911264780974 9.85517265976464 2.810669600750847 0 0 0
1873 3 27.316291086303973 9.85517265976464 2.810669600750847 0 0 0
1708 4 30.7294152707638 7.88517440701158 0.030727201975885347 0 0 0
1889 1 32.436929224518565 8.870488003746264 1.420963777179145 0 0 0
1714 4 34.1437950922868 7.885174407011579 0.030727201975884754 0 0 0
1884 1 30.7297393137571 11.827427667354266 1.4209637771791466 0 0 0
1887 4 32.43660518152531 10.842114070619584 0.03072720197588604 0 0 0
1890 1 34.1441191352801 11.827427667354266 1.4209637771791475 0 0 0
1712 3 32.43786081858877 6.898232996156641 2.810669600750845 0 0 0
1879 3 30.730670907826976 9.855172659764639 2.810669600750846 0 0 0
1885 3 34.145050729349975 9.85517265976464 2.8106696007508467 0 0 0
1895 1 35.851309046041564 8.870488003746265 1.4209637771791466 0 0 0
1720 4 37.5581749138098 7.88517440701158 0.03072720197588534 0 0 0
1901 1 39.26568886756456 8.870488003746265 1.4209637771791466 0 0 0
1893 4 35.8509850030483 10.842114070619582 0.030727201975884612 0 0 0
1896 1 37.5584989568031 11.827427667354266 1.420963777179147 0 0 0
1899 4 39.2653648245713 10.842114070619582 0.030727201975884633 0 0 0
1718 3 35.85224064011177 6.898232996156642 2.8106696007508467 0 0 0
1724 3 39.26662046163477 6.898232996156642 2.8106696007508467 0 0 0
1891 3 37.559430550872975 9.85517265976464 2.810669600750847 0 0 0
1726 4 40.9725547353328 7.88517440701158 0.03072720197588527 0 0 0
1907 1 42.68006868908756 8.870488003746265 1.4209637771791466 0 0 0
1732 4 44.386934556855806 7.885174407011581 0.030727201975887082 0 0 0
1913 1 46.09444851061057 8.870488003746265 1.420963777179146 0 0 0
1902 1 40.9728787783261 11.827427667354266 1.420963777179147 0 0 0
1905 4 42.679744646094306 10.842114070619582 0.030727201975885098 0 0 0
1908 1 44.387258599849105 11.827427667354266 1.4209637771791468 0 0 0
1911 4 46.09412446761731 10.842114070619582 0.030727201975885216 0 0 0
1730 3 42.68100028315777 6.898232996156642 2.8106696007508463 0 0 0
1736 3 46.09538010468078 6.898232996156642 2.8106696007508463 0 0 0
1897 3 40.973810372395974 9.85517265976464 2.810669600750847 0 0 0
1903 3 44.38819019391898 9.855172659764639 2.8106696007508454 0 0 0
1738 4 47.80131437837881 7.88517440701158 0.03072720197588643 0 0 0
1745 1 49.50882833213357 8.870488003746267 1.4209637771791481 -1 0 0
1570 4 51.21569419990181 7.88517440701158 0.03072720197588587 -1 0 0
1914 1 47.80163842137211 11.827427667354266 1.4209637771791468 0 0 0
1743 4 49.50850428914031 10.842114070619582 0.03072720197588504 -1 0 0
1746 1 51.21601824289511 11.827427667354266 1.4209637771791468 -1 0 0
1568 3 49.50975992620378 6.898232996156642 2.810669600750847 -1 0 0
1909 3 47.80257001544198 9.85517265976464 2.810669600750847 0 0 0
1741 3 51.216949836964986 9.85517265976464 2.810669600750848 -1 0 0
1751 1 52.92320815365657 8.870488003746265 1.4209637771791466 -1 0 0
1576 4 54.63007402142481 7.88517440701158 0.030727201975884952 -1 0 0
1757 1 56.33758797517957 8.870488003746265 1.4209637771791461 -1 0 0
1582 4 58.04445384294781 7.88517440701158 0.03072720197588553 -1 0 0
1749 4 52.92288411066331 10.842114070619582 0.030727201975884806 -1 0 0
1752 1 54.63039806441811 11.827427667354266 1.4209637771791466 -1 0 0
1755 4 56.33726393218631 10.842114070619582 0.03072720197588574 -1 0 0
1758 1 58.04477788594111 11.827427667354266 1.4209637771791461 -1 0 0
1574 3 52.92413974772678 6.898232996156642 2.8106696007508467 -1 0 0
1580 3 56.338519569249776 6.898232996156641 2.810669600750846 -1 0 0
1747 3 54.631329658487985 9.85517265976464 2.8106696007508467 -1 0 0
1753 3 58.045709480010984 9.855172659764639 2.8106696007508463 -1 0 0
1763 1 59.75196779670257 8.870488003746265 1.4209637771791466 -1 0 0
1588 4 61.45883366447081 7.885174407011579 0.030727201975885004 -1 0 0
1769 1 63.166347618225565 8.870488003746265 1.4209637771791477 -1 0 0
1761 4 59.75164375370931 10.842114070619582 0.030727201975884782 -1 0 0
1764 1 61.45915770746411 11.827427667354266 1.4209637771791475 -1 0 0
1767 4 63.16602357523231 10.842114070619582 0.03072720197588456 -1 0 0
1586 3 59.752899390772775 6.898232996156642 2.8106696007508467 -1 0 0
1592 3 63.167279212295774 6.898232996156642 2.810669600750847 -1 0 0
1759 3 61.46008930153398 9.85517265976464 2.810669600750848 -1 0 0
1594 4 64.8732134859938 7.88517440701158 0.030727201975885583 -1 0 0
1775 1 66.58072743974857 8.870488003746265 1.4209637771791463 -1 0 0
1600 4 68.2875933075168 7.88517440701158 0.030727201975885354 -1 0 0
1770 1 64.87353752898711 11.827427667354266 1.4209637771791461 -1 0 0
1773 4 66.5804033967553 10.842114070619582 0.03072720197588477 -1 0 0
1776 1 68.2879173505101 11.827427667354266 1.4209637771791468 -1 0 0
1598 3 66.58165903381877 6.898232996156642 2.8106696007508463 -1 0 0
1765 3 64.87446912305698 9.85517265976464 2.810669600750847 -1 0 0
1771 3 68.28884894457998 9.85517265976464 2.810669600750847 -1 0 0
1781 1 69.99510726127157 8.870488003746265 1.4209637771791463 -1 0 0
1606 4 71.7019731290398 7.88517440701158 0.030727201975885358 -1 0 0
1787 1 73.40948708279457 8.870488003746265 1.4209637771791463 -1 0 0
1612 4 75.1163529505628 7.885174407011579 0.0307272019758848 -1 0 0
1779 4 69.9947832182783 10.842114070619582 0.030727201975884758 -1 0 0
1782 1 71.7022971720331 11.827427667354266 1.4209637771791468 -1 0 0
1785 4 73.4091630398013 10.842114070619582 0.030727201975884733 -1 0 0
1788 1 75.11667699355611 11.827427667354266 1.4209637771791481 -1 0 0
1604 3 69.99603885534177 6.898232996156642 2.8106696007508463 -1 0 0
1610 3 73.41041867686477 6.898232996156642 2.8106696007508467 -1 0 0
1777 3 71.70322876610298 9.85517265976464 2.810669600750847 -1 0 0
1783 3 75.11760858762598 9.855172659764639 2.8106696007508467 -1 0 0
1793 1 76.82386690431757 8.870488003746265 1.4209637771791455 -1 0 0
1618 4 78.5307327720858 7.88517440701158 0.030727201975885344 -1 0 0
1799 1 80.23824672584057 8.870488003746267 1.4209637771791475 -1 0 0
1791 4 76.8235428613243 10.842114070619584 0.030727201975885184 -1 0 0
1794 1 78.5310568150791 11.827427667354266 1.4209637771791468 -1 0 0
1797 4 80.2379226828473 10.842114070619582 0.030727201975884327 -1 0 0
1616 3 76.82479849838778 6.898232996156642 2.810669600750846 -1 0 0
1622 3 80.23917831991078 6.898232996156643 2.810669600750847 -1 0 0
1789 3 78.53198840914898 9.85517265976464 2.810669600750847 -1 0 0
1624 4 81.9451125936088 7.88517440701158 0.030727201975886007 -1 0 0
1805 1 83.65262654736357 8.870488003746265 1.4209637771791463 -1 0 0
1630 4 85.3594924151318 7.885174407011579 0.03072720197588479 -1 0 0
1811 1 87.06700636888657 8.870488003746265 1.4209637771791455 -1 0 0
1800 1 81.94543663660211 11.827427667354264 1.4209637771791457 -1 0 0
1803 4 83.6523025043703 10.842114070619582 0.030727201975884754 -1 0 0
1806 1 85.35981645812511 11.827427667354266 1.4209637771791481 -1 0 0
1809 4 87.0666823258933 10.842114070619584 0.030727201975886312 -1 0 0
1628 3 83.65355814143376 6.898232996156642 2.8106696007508463 -1 0 0
1634 3 87.06793796295678 6.898232996156641 2.8106696007508445 -1 0 0
1795 3 81.94636823067198 9.85517265976464 2.8106696007508476 -1 0 0
1801 3 85.36074805219498 9.855172659764639 2.8106696007508467 -1 0 0
1636 4 88.7738722366548 7.88517440701158 0.03072720197588592 -1 0 0
1817 1 90.48138619040957 8.870488003746265 1.4209637771791466 -1 0 0
1642 4 92.18825205817781 7.88517440701158 0.03072720197588532 -1 0 0
1812 1 88.77419627964811 11.827427667354264 1.4209637771791457 -1 0 0
1815 4 90.48106214741631 10.842114070619582 0.03072720197588453 -1 0 0
1818 1 92.18857610117111 11.827427667354266 1.420963777179147 -1 0 0
1640 3 90.48231778447978 6.898232996156642 2.8106696007508467 -1 0 0
1807 3 88.77512787371798 9.855172659764639 2.8106696007508454 -1 0 0
1813 3 92.18950769524098 9.85517265976464 2.810669600750847 -1 0 0
1654 4 99.01701170122381 7.88517440701158 0.03072720197588541 -1 0 0
1823 1 93.89576601193257 8.870488003746265 1.4209637771791466 -1 0 0
1648 4 95.60263187970081 7.885174407011581 0.030727201975887186 -1 0 0
1829 1 97.31014583345556 8.870488003746265 1.4209637771791452 -1 0 0
1821 4 93.89544196893931 10.842114070619582 0.030727201975884567 -1 0 0
1824 1 95.60295592269411 11.827427667354266 1.4209637771791468 -1 0 0
1827 4 97.30982179046231 10.842114070619582 0.030727201975885302 -1 0 0
1646 3 93.89669760600277 6.898232996156642 2.8106696007508467 -1 0 0
1652 3 97.31107742752577 6.898232996156641 2.8106696007508454 -1 0 0
1819 3 95.60388751676398 9.855172659764639 2.8106696007508454 -1 0 0
1834 4 3.4143766985798023 13.799053734227583 0.030727201975885483 0 0 0
2009 1 1.7075108308115625 14.784367330962267 1.420963777179148 0 0 0
2015 1 5.121890652334564 14.784367330962267 1.4209637771791466 0 0 0
2007 4 1.707186787818307 16.75599339783558 0.030727201975886496 0 0 0
2013 4 5.121566609341306 16.75599339783558 0.03072720197588625 0 0 0
1832 3 1.7084424248817736 12.812112323372641 2.810669600750848 0 0 0
1838 3 5.122822246404773 12.812112323372641 2.810669600750847 0 0 0
2005 3 3.4156323356429774 15.769051986980642 2.8106696007508467 0 0 0
1999 3 0.0012525141199688505 15.769051986980642 2.8106696007508467 0 0 0
2004 1 0.00032092005010373527 17.741306994570266 1.420963777179148 0 0 0
2010 1 3.414700741573105 17.741306994570266 1.4209637771791468 0 0 0
1840 4 6.828756520102802 13.799053734227583 0.030727201975885708 0 0 0
1846 4 10.243136341625801 13.799053734227583 0.030727201975885663 0 0 0
2021 1 8.536270473857565 14.784367330962267 1.4209637771791472 0 0 0
2019 4 8.535946430864305 16.75599339783558 0.03072720197588634 0 0 0
1844 3 8.537202067927772 12.812112323372641 2.8106696007508476 0 0 0
2011 3 6.830012157165977 15.769051986980642 2.8106696007508467 0 0 0
2017 3 10.244391978688979 15.769051986980642 2.8106696007508467 0 0 0
2016 1 6.829080563096104 17.741306994570266 1.4209637771791468 0 0 0
2022 1 10.243460384619103 17.741306994570266 1.4209637771791468 0 0 0
1852 4 13.6575161631488 13.799053734227583 0.030727201975885243 0 0 0
1858 4 17.0718959846718 13.799053734227583 0.030727201975885084 0 0 0
2027 1 11.950650295380564 14.784367330962267 1.4209637771791466 0 0 0
2033 1 15.365030116903563 14.784367330962267 1.4209637771791466 0 0 0
2025 4 11.950326252387304 16.75599339783558 0.030727201975886322 0 0 0
2031 4 15.364706073910304 16.75599339783558 0.03072720197588649 0 0 0
1850 3 11.951581889450772 12.812112323372641 2.8106696007508476 0 0 0
1856 3 15.365961710973771 12.812112323372641 2.8106696007508476 0 0 0
2023 3 13.658771800211978 15.769051986980642 2.8106696007508467 0 0 0
2029 3 17.073151621734976 15.769051986980642 2.8106696007508467 0 0 0
2028 1 13.657840206142103 17.741306994570266 1.4209637771791468 0 0 0
2034 1 17.072220027665104 17.741306994570266 1.4209637771791466 0 0 0
1864 4 20.4862758061948 13.799053734227583 0.030727201975885257 0 0 0
2039 1 18.77940993842656 14.784367330962267 1.4209637771791466 0 0 0
2045 1 22.19378975994956 14.784367330962267 1.4209637771791466 0 0 0
2037 4 18.779085895433305 16.75599339783558 0.03072720197588632 0 0 0
2043 4 22.193465716956304 16.75599339783558 0.03072720197588632 0 0 0
1862 3 18.78034153249677 12.812112323372641 2.8106696007508476 0 0 0
1868 3 22.19472135401977 12.812112323372641 2.8106696007508476 0 0 0
2035 3 20.487531443257975 15.769051986980642 2.8106696007508467 0 0 0
2040 1 20.486599849188103 17.741306994570266 1.4209637771791468 0 0 0
1870 4 23.9006556277178 13.799053734227583 0.030727201975885257 0 0 0
1876 4 27.3150354492408 13.799053734227583 0.03072720197588526 0 0 0
2051 1 25.60816958147256 14.784367330962267 1.4209637771791466 0 0 0
2057 1 29.02254940299556 14.784367330962267 1.4209637771791466 0 0 0
2049 4 25.607845538479303 16.75599339783558 0.030727201975886322 0 0 0
2055 4 29.022225360002302 16.75599339783558 0.030727201975886246 0 0 0
1874 3 25.60910117554277 12.812112323372641 2.8106696007508476 0 0 0
1880 3 29.023480997065768 12.812112323372641 2.8106696007508476 0 0 0
2041 3 23.901911264780974 15.769051986980642 2.8106696007508463 0 0 0
2047 3 27.316291086303973 15.769051986980642 2.8106696007508463 0 0 0
2046 1 23.900979670711102 17.741306994570266 1.4209637771791468 0 0 0
2052 1 27.3153594922341 17.741306994570266 1.4209637771791468 0 0 0
1882 4 30.7294152707638 13.799053734227583 0.030727201975885153 0 0 0
1888 4 34.1437950922868 13.799053734227583 0.03072720197588455 0 0 0
2063 1 32.436929224518565 14.784367330962265 1.420963777179145 0 0 0
2061 4 32.43660518152531 16.755993397835585 0.030727201975887512 0 0 0
1886 3 32.43786081858877 12.812112323372641 2.810669600750846 0 0 0
2053 3 30.730670907826976 15.76905198698064 2.810669600750845 0 0 0
2059 3 34.145050729349975 15.76905198698064 2.810669600750846 0 0 0
2058 1 30.7297393137571 17.741306994570266 1.4209637771791468 0 0 0
2064 1 34.1441191352801 17.741306994570266 1.4209637771791477 0 0 0
1894 4 37.5581749138098 13.799053734227583 0.030727201975885143 0 0 0
2069 1 35.851309046041564 14.784367330962267 1.4209637771791468 0 0 0
2075 1 39.26568886756456 14.784367330962267 1.4209637771791468 0 0 0
2067 4 35.8509850030483 16.75599339783558 0.030727201975886256 0 0 0
2073 4 39.2653648245713 16.75599339783558 0.030727201975886288 0 0 0
1892 3 35.85224064011177 12.812112323372641 2.8106696007508476 0 0 0
1898 3 39.26662046163477 12.812112323372641 2.8106696007508476 0 0 0
2065 3 37.559430550872975 15.769051986980642 2.8106696007508463 0 0 0
2070 1 37.5584989568031 17.741306994570266 1.4209637771791468 0 0 0
1900 4 40.9725547353328 13.799053734227583 0.030727201975885073 0 0 0
1906 4 44.386934556855806 13.799053734227583 0.03072720197588683 0 0 0
2081 1 42.68006868908756 14.784367330962267 1.4209637771791466 0 0 0
2087 1 46.09444851061057 14.784367330962267 1.420963777179146 0 0 0
2079 4 42.679744646094306 16.75599339783558 0.03072720197588669 0 0 0
2085 4 46.09412446761731 16.75599339783558 0.030727201975886693 0 0 0
1904 3 42.68100028315777 12.812112323372641 2.810669600750847 0 0 0
1910 3 46.09538010468078 12.812112323372641 2.810669600750847 0 0 0
2071 3 40.973810372395974 15.769051986980642 2.8106696007508463 0 0 0
2077 3 44.38819019391898 15.76905198698064 2.8106696007508445 0 0 0