LAMMPS data file via write_data, version 29 Aug 2024, timestep = 0, units = metal

2958 atoms
3 atom types

0 99.017014824167 xlo xhi
0 100.535948562672 ylo yhi
0 17.847430100482 zlo zhi

Masses

1 47.867
2 32.06
3 32.06

Atoms # atomic

1482 1 4.973799150320701e-13 0 1.4227780465180002 0 0 0
1488 1 3.4143798215234966 0 1.4227780465180002 0 0 0
1494 1 6.828759643046496 0 1.4227780465180002 0 0 0
1500 1 10.243139464569495 0 1.4227780465180002 0 0 0
1506 1 13.657519286092494 0 1.4227780465180002 0 0 0
1512 1 17.071899107615494 0 1.4227780465180002 0 0 0
1518 1 20.486278929138493 0 1.4227780465180002 0 0 0
1524 1 23.900658750661492 0 1.4227780465180002 0 0 0
1530 1 27.31503857218449 0 1.4227780465180002 0 0 0
1536 1 30.72941839370749 0 1.4227780465180002 0 0 0
1542 1 34.143798215230504 0 1.4227780465180002 0 0 0
1548 1 37.5581780367535 0 1.4227780465180002 0 0 0
1554 1 40.9725578582765 0 1.4227780465180002 0 0 0
1560 1 44.3869376797995 0 1.4227780465180002 0 0 0
1566 1 47.8013175013225 0 1.4227780465180002 0 0 0
1398 1 51.2156973228455 0 1.4227780465180002 -1 0 0
1404 1 54.6300771443685 0 1.4227780465180002 -1 0 0
1410 1 58.044456965891506 0 1.4227780465180002 -1 0 0
1416 1 61.458836787414505 0 1.4227780465180002 -1 0 0
1422 1 64.8732166089375 0 1.4227780465180002 -1 0 0
1428 1 68.2875964304605 0 1.4227780465180002 -1 0 0
1434 1 71.7019762519835 0 1.4227780465180002 -1 0 0
1440 1 75.1163560735065 0 1.4227780465180002 -1 0 0
1446 1 78.53073589502951 0 1.4227780465180002 -1 0 0
1452 1 81.9451157165525 0 1.4227780465180002 -1 0 0
1458 1 85.35949553807549 0 1.4227780465180002 -1 0 0
1464 1 88.7738753595985 0 1.4227780465180002 -1 0 0
1470 1 92.1882551811215 0 1.4227780465180002 -1 0 0
1476 1 95.6026350026445 0 1.4227780465180002 -1 0 0
1480 3 4.973799150320701e-13 1.9712931090720005 0 0 0 0
1661 1 1.7071899107614996 2.956939663607997 1.4227780465180002 0 0 0
1486 3 3.4143798215234966 1.9712931090720005 0 0 0 0
1667 1 5.121569732284499 2.956939663607997 1.4227780465180002 0 0 0
1492 3 6.828759643046496 1.9712931090720005 0 0 0 0
1673 1 8.535949553807498 2.956939663607997 1.4227780465180002 0 0 0
1498 3 10.243139464569495 1.9712931090720005 0 0 0 0
1679 1 11.950329375330497 2.956939663607997 1.4227780465180002 0 0 0
1504 3 13.657519286092494 1.9712931090720005 0 0 0 0
1685 1 15.364709196853497 2.956939663607997 1.4227780465180002 0 0 0
1510 3 17.071899107615494 1.9712931090720005 0 0 0 0
1691 1 18.779089018376496 2.956939663607997 1.4227780465180002 0 0 0
1516 3 20.486278929138493 1.9712931090720005 0 0 0 0
1697 1 22.193468839899495 2.956939663607997 1.4227780465180002 0 0 0
1522 3 23.900658750661492 1.9712931090720005 0 0 0 0
1703 1 25.607848661422494 2.956939663607997 1.4227780465180002 0 0 0
1528 3 27.31503857218449 1.9712931090720005 0 0 0 0
1709 1 29.022228482945494 2.956939663607997 1.4227780465180002 0 0 0
1534 3 30.72941839370749 1.9712931090720005 0 0 0 0
1715 1 32.43660830446849 2.956939663607997 1.4227780465180002 0 0 0
1540 3 34.143798215230504 1.9712931090720005 0 0 0 0
1721 1 35.85098812599149 2.956939663607997 1.4227780465180002 0 0 0
1546 3 37.5581780367535 1.9712931090720005 0 0 0 0
1727 1 39.26536794751449 2.956939663607997 1.4227780465180002 0 0 0
1552 3 40.9725578582765 1.9712931090720005 0 0 0 0
1733 1 42.67974776903749 2.956939663607997 1.4227780465180002 0 0 0
1558 3 44.3869376797995 1.9712931090720005 0 0 0 0
1739 1 46.094127590560504 2.956939663607997 1.4227780465180002 0 0 0
1564 3 47.8013175013225 1.9712931090720005 0 0 0 0
1571 1 49.5085074120835 2.956939663607997 1.4227780465180002 -1 0 0
1396 3 51.2156973228455 1.9712931090720005 0 -1 0 0
1577 1 52.9228872336065 2.956939663607997 1.4227780465180002 -1 0 0
1402 3 54.6300771443685 1.9712931090720005 0 -1 0 0
1583 1 56.3372670551295 2.956939663607997 1.4227780465180002 -1 0 0
1408 3 58.044456965891506 1.9712931090720005 0 -1 0 0
1589 1 59.7516468766525 2.956939663607997 1.4227780465180002 -1 0 0
1414 3 61.458836787414505 1.9712931090720005 0 -1 0 0
1595 1 63.1660266981755 2.956939663607997 1.4227780465180002 -1 0 0
1420 3 64.8732166089375 1.9712931090720005 0 -1 0 0
1601 1 66.5804065196985 2.956939663607997 1.4227780465180002 -1 0 0
1426 3 68.2875964304605 1.9712931090720005 0 -1 0 0
1607 1 69.9947863412215 2.956939663607997 1.4227780465180002 -1 0 0
1432 3 71.7019762519835 1.9712931090720005 0 -1 0 0
1613 1 73.4091661627445 2.956939663607997 1.4227780465180002 -1 0 0
1438 3 75.1163560735065 1.9712931090720005 0 -1 0 0
1619 1 76.8235459842675 2.956939663607997 1.4227780465180002 -1 0 0
1444 3 78.53073589502951 1.9712931090720005 0 -1 0 0
1625 1 80.2379258057905 2.956939663607997 1.4227780465180002 -1 0 0
1450 3 81.9451157165525 1.9712931090720005 0 -1 0 0
1631 1 83.6523056273135 2.956939663607997 1.4227780465180002 -1 0 0
1456 3 85.35949553807549 1.9712931090720005 0 -1 0 0
1637 1 87.0666854488365 2.956939663607997 1.4227780465180002 -1 0 0
1462 3 88.7738753595985 1.9712931090720005 0 -1 0 0
1643 1 90.4810652703595 2.956939663607997 1.4227780465180002 -1 0 0
1468 3 92.1882551811215 1.9712931090720005 0 -1 0 0
1649 1 93.8954450918825 2.956939663607997 1.4227780465180002 -1 0 0
1474 3 95.6026350026445 1.9712931090720005 0 -1 0 0
1655 1 97.3098249134055 2.956939663607997 1.4227780465180002 -1 0 0
1659 3 1.7071899107614996 4.928232772679998 0 0 0 0
1665 3 5.121569732284499 4.928232772679998 0 0 0 0
1671 3 8.535949553807498 4.928232772679998 0 0 0 0
1677 3 11.950329375330497 4.928232772679998 0 0 0 0
1683 3 15.364709196853497 4.928232772679998 0 0 0 0
1689 3 18.779089018376496 4.928232772679998 0 0 0 0
1695 3 22.193468839899495 4.928232772679998 0 0 0 0
1701 3 25.607848661422494 4.928232772679998 0 0 0 0
1707 3 29.022228482945494 4.928232772679998 0 0 0 0
1713 3 32.43660830446849 4.928232772679998 0 0 0 0
1719 3 35.85098812599149 4.928232772679998 0 0 0 0
1725 3 39.26536794751449 4.928232772679998 0 0 0 0
1731 3 42.67974776903749 4.928232772679998 0 0 0 0
1737 3 46.094127590560504 4.928232772679998 0 0 0 0
1569 3 49.5085074120835 4.928232772679998 0 -1 0 0
1575 3 52.9228872336065 4.928232772679998 0 -1 0 0
1581 3 56.3372670551295 4.928232772679998 0 -1 0 0
1587 3 59.7516468766525 4.928232772679998 0 -1 0 0
1593 3 63.1660266981755 4.928232772679998 0 -1 0 0
1599 3 66.5804065196985 4.928232772679998 0 -1 0 0
1605 3 69.9947863412215 4.928232772679998 0 -1 0 0
1611 3 73.4091661627445 4.928232772679998 0 -1 0 0
1617 3 76.8235459842675 4.928232772679998 0 -1 0 0
1623 3 80.2379258057905 4.928232772679998 0 -1 0 0
1629 3 83.6523056273135 4.928232772679998 0 -1 0 0
1635 3 87.0666854488365 4.928232772679998 0 -1 0 0
1641 3 90.4810652703595 4.928232772679998 0 -1 0 0
1647 3 93.8954450918825 4.928232772679998 0 -1 0 0
1653 3 97.3098249134055 4.928232772679998 0 -1 0 0
1656 1 4.973799150320701e-13 5.913879327215994 1.4227780465180002 0 0 0
1662 1 3.4143798215234966 5.913879327215994 1.4227780465180002 0 0 0
1668 1 6.828759643046496 5.913879327215994 1.4227780465180002 0 0 0
1674 1 10.243139464569495 5.913879327215994 1.4227780465180002 0 0 0
1680 1 13.657519286092494 5.913879327215994 1.4227780465180002 0 0 0
1686 1 17.071899107615494 5.913879327215994 1.4227780465180002 0 0 0
1692 1 20.486278929138493 5.913879327215994 1.4227780465180002 0 0 0
1698 1 23.900658750661492 5.913879327215994 1.4227780465180002 0 0 0
1704 1 27.31503857218449 5.913879327215994 1.4227780465180002 0 0 0
1710 1 30.72941839370749 5.913879327215994 1.4227780465180002 0 0 0
1716 1 34.143798215230504 5.913879327215994 1.4227780465180002 0 0 0
1722 1 37.5581780367535 5.913879327215994 1.4227780465180002 0 0 0
1728 1 40.9725578582765 5.913879327215994 1.4227780465180002 0 0 0
1734 1 44.3869376797995 5.913879327215994 1.4227780465180002 0 0 0
1740 1 47.8013175013225 5.913879327215994 1.4227780465180002 0 0 0
1572 1 51.2156973228455 5.913879327215994 1.4227780465180002 -1 0 0
1578 1 54.6300771443685 5.913879327215994 1.4227780465180002 -1 0 0
1584 1 58.044456965891506 5.913879327215994 1.4227780465180002 -1 0 0
1590 1 61.458836787414505 5.913879327215994 1.4227780465180002 -1 0 0
1596 1 64.8732166089375 5.913879327215994 1.4227780465180002 -1 0 0
1602 1 68.2875964304605 5.913879327215994 1.4227780465180002 -1 0 0
1608 1 71.7019762519835 5.913879327215994 1.4227780465180002 -1 0 0
1614 1 75.1163560735065 5.913879327215994 1.4227780465180002 -1 0 0
1620 1 78.53073589502951 5.913879327215994 1.4227780465180002 -1 0 0
1626 1 81.9451157165525 5.913879327215994 1.4227780465180002 -1 0 0
1632 1 85.35949553807549 5.913879327215994 1.4227780465180002 -1 0 0
1638 1 88.7738753595985 5.913879327215994 1.4227780465180002 -1 0 0
1644 1 92.1882551811215 5.913879327215994 1.4227780465180002 -1 0 0
1650 1 95.6026350026445 5.913879327215994 1.4227780465180002 -1 0 0
1654 3 4.973799150320701e-13 7.885172436287995 0 0 0 0
1835 1 1.7071899107614996 8.870818990823999 1.4227780465180002 0 0 0
1660 3 3.4143798215234966 7.885172436287995 0 0 0 0
1841 1 5.121569732284499 8.870818990823999 1.4227780465180002 0 0 0
1666 3 6.828759643046496 7.885172436287995 0 0 0 0
1847 1 8.535949553807498 8.870818990823999 1.4227780465180002 0 0 0
1672 3 10.243139464569495 7.885172436287995 0 0 0 0
1853 1 11.950329375330497 8.870818990823999 1.4227780465180002 0 0 0
1678 3 13.657519286092494 7.885172436287995 0 0 0 0
1859 1 15.364709196853497 8.870818990823999 1.4227780465180002 0 0 0
1684 3 17.071899107615494 7.885172436287995 0 0 0 0
1865 1 18.779089018376496 8.870818990823999 1.4227780465180002 0 0 0
1690 3 20.486278929138493 7.885172436287995 0 0 0 0
1871 1 22.193468839899495 8.870818990823999 1.4227780465180002 0 0 0
1696 3 23.900658750661492 7.885172436287995 0 0 0 0
1877 1 25.607848661422494 8.870818990823999 1.4227780465180002 0 0 0
1702 3 27.31503857218449 7.885172436287995 0 0 0 0
1883 1 29.022228482945494 8.870818990823999 1.4227780465180002 0 0 0
1708 3 30.72941839370749 7.885172436287995 0 0 0 0
1889 1 32.43660830446849 8.870818990823999 1.4227780465180002 0 0 0
1714 3 34.143798215230504 7.885172436287995 0 0 0 0
1895 1 35.85098812599149 8.870818990823999 1.4227780465180002 0 0 0
1720 3 37.5581780367535 7.885172436287995 0 0 0 0
1901 1 39.26536794751449 8.870818990823999 1.4227780465180002 0 0 0
1726 3 40.9725578582765 7.885172436287995 0 0 0 0
1907 1 42.67974776903749 8.870818990823999 1.4227780465180002 0 0 0
1732 3 44.3869376797995 7.885172436287995 0 0 0 0
1913 1 46.094127590560504 8.870818990823999 1.4227780465180002 0 0 0
1738 3 47.8013175013225 7.885172436287995 0 0 0 0
1745 1 49.5085074120835 8.870818990823999 1.4227780465180002 -1 0 0
1570 3 51.2156973228455 7.885172436287995 0 -1 0 0
1751 1 52.9228872336065 8.870818990823999 1.4227780465180002 -1 0 0
1576 3 54.6300771443685 7.885172436287995 0 -1 0 0
1757 1 56.3372670551295 8.870818990823999 1.4227780465180002 -1 0 0
1582 3 58.044456965891506 7.885172436287995 0 -1 0 0
1763 1 59.7516468766525 8.870818990823999 1.4227780465180002 -1 0 0
1588 3 61.458836787414505 7.885172436287995 0 -1 0 0
1769 1 63.1660266981755 8.870818990823999 1.4227780465180002 -1 0 0
1594 3 64.8732166089375 7.885172436287995 0 -1 0 0
1775 1 66.5804065196985 8.870818990823999 1.4227780465180002 -1 0 0
1600 3 68.2875964304605 7.885172436287995 0 -1 0 0
1781 1 69.9947863412215 8.870818990823999 1.4227780465180002 -1 0 0
1606 3 71.7019762519835 7.885172436287995 0 -1 0 0
1787 1 73.4091661627445 8.870818990823999 1.4227780465180002 -1 0 0
1612 3 75.1163560735065 7.885172436287995 0 -1 0 0
1793 1 76.8235459842675 8.870818990823999 1.4227780465180002 -1 0 0
1618 3 78.53073589502951 7.885172436287995 0 -1 0 0
1799 1 80.2379258057905 8.870818990823999 1.4227780465180002 -1 0 0
1624 3 81.9451157165525 7.885172436287995 0 -1 0 0
1805 1 83.6523056273135 8.870818990823999 1.4227780465180002 -1 0 0
1630 3 85.35949553807549 7.885172436287995 0 -1 0 0
1811 1 87.0666854488365 8.870818990823999 1.4227780465180002 -1 0 0
1636 3 88.7738753595985 7.885172436287995 0 -1 0 0
1817 1 90.4810652703595 8.870818990823999 1.4227780465180002 -1 0 0
1642 3 92.1882551811215 7.885172436287995 0 -1 0 0
1823 1 93.8954450918825 8.870818990823999 1.4227780465180002 -1 0 0
1648 3 95.6026350026445 7.885172436287995 0 -1 0 0
1829 1 97.3098249134055 8.870818990823999 1.4227780465180002 -1 0 0
1830 1 4.973799150320701e-13 11.827758654431996 1.4227780465180002 0 0 0
1833 3 1.7071899107614996 10.842112099896 0 0 0 0
1836 1 3.4143798215234966 11.827758654431996 1.4227780465180002 0 0 0
1839 3 5.121569732284499 10.842112099896 0 0 0 0
1842 1 6.828759643046496 11.827758654431996 1.4227780465180002 0 0 0
1845 3 8.535949553807498 10.842112099896 0 0 0 0
1848 1 10.243139464569495 11.827758654431996 1.4227780465180002 0 0 0
1851 3 11.950329375330497 10.842112099896 0 0 0 0
1854 1 13.657519286092494 11.827758654431996 1.4227780465180002 0 0 0
1857 3 15.364709196853497 10.842112099896 0 0 0 0
1860 1 17.071899107615494 11.827758654431996 1.4227780465180002 0 0 0
1863 3 18.779089018376496 10.842112099896 0 0 0 0
1866 1 20.486278929138493 11.827758654431996 1.4227780465180002 0 0 0
1869 3 22.193468839899495 10.842112099896 0 0 0 0
1872 1 23.900658750661492 11.827758654431996 1.4227780465180002 0 0 0
1875 3 25.607848661422494 10.842112099896 0 0 0 0
1878 1 27.31503857218449 11.827758654431996 1.4227780465180002 0 0 0
1881 3 29.022228482945494 10.842112099896 0 0 0 0
1884 1 30.72941839370749 11.827758654431996 1.4227780465180002 0 0 0
1887 3 32.43660830446849 10.842112099896 0 0 0 0
1890 1 34.143798215230504 11.827758654431996 1.4227780465180002 0 0 0
1893 3 35.85098812599149 10.842112099896 0 0 0 0
1896 1 37.5581780367535 11.827758654431996 1.4227780465180002 0 0 0
1899 3 39.26536794751449 10.842112099896 0 0 0 0
1902 1 40.9725578582765 11.827758654431996 1.4227780465180002 0 0 0
1905 3 42.67974776903749 10.842112099896 0 0 0 0
1908 1 44.3869376797995 11.827758654431996 1.4227780465180002 0 0 0
1911 3 46.094127590560504 10.842112099896 0 0 0 0
1914 1 47.8013175013225 11.827758654431996 1.4227780465180002 0 0 0
1743 3 49.5085074120835 10.842112099896 0 -1 0 0
1746 1 51.2156973228455 11.827758654431996 1.4227780465180002 -1 0 0
1749 3 52.9228872336065 10.842112099896 0 -1 0 0
1752 1 54.6300771443685 11.827758654431996 1.4227780465180002 -1 0 0
1755 3 56.3372670551295 10.842112099896 0 -1 0 0
1758 1 58.044456965891506 11.827758654431996 1.4227780465180002 -1 0 0
1761 3 59.7516468766525 10.842112099896 0 -1 0 0
1764 1 61.458836787414505 11.827758654431996 1.4227780465180002 -1 0 0
1767 3 63.1660266981755 10.842112099896 0 -1 0 0
1770 1 64.8732166089375 11.827758654431996 1.4227780465180002 -1 0 0
1773 3 66.5804065196985 10.842112099896 0 -1 0 0
1776 1 68.2875964304605 11.827758654431996 1.4227780465180002 -1 0 0
1779 3 69.9947863412215 10.842112099896 0 -1 0 0
1782 1 71.7019762519835 11.827758654431996 1.4227780465180002 -1 0 0
1785 3 73.4091661627445 10.842112099896 0 -1 0 0
1788 1 75.1163560735065 11.827758654431996 1.4227780465180002 -1 0 0
1791 3 76.8235459842675 10.842112099896 0 -1 0 0
1794 1 78.53073589502951 11.827758654431996 1.4227780465180002 -1 0 0
1797 3 80.2379258057905 10.842112099896 0 -1 0 0
1800 1 81.9451157165525 11.827758654431996 1.4227780465180002 -1 0 0
1803 3 83.6523056273135 10.842112099896 0 -1 0 0
1806 1 85.35949553807549 11.827758654431996 1.4227780465180002 -1 0 0
1809 3 87.0666854488365 10.842112099896 0 -1 0 0
1812 1 88.7738753595985 11.827758654431996 1.4227780465180002 -1 0 0
1815 3 90.4810652703595 10.842112099896 0 -1 0 0
1818 1 92.1882551811215 11.827758654431996 1.4227780465180002 -1 0 0
1821 3 93.8954450918825 10.842112099896 0 -1 0 0
1824 1 95.6026350026445 11.827758654431996 1.4227780465180002 -1 0 0
1827 3 97.3098249134055 10.842112099896 0 -1 0 0
1828 3 4.973799150320701e-13 13.799051763504004 0 0 0 0
1834 3 3.4143798215234966 13.799051763504004 0 0 0 0
1840 3 6.828759643046496 13.799051763504004 0 0 0 0
1846 3 10.243139464569495 13.799051763504004 0 0 0 0
1852 3 13.657519286092494 13.799051763504004 0 0 0 0
1858 3 17.071899107615494 13.799051763504004 0 0 0 0
1864 3 20.486278929138493 13.799051763504004 0 0 0 0
1870 3 23.900658750661492 13.799051763504004 0 0 0 0
1876 3 27.31503857218449 13.799051763504004 0 0 0 0
1882 3 30.72941839370749 13.799051763504004 0 0 0 0
1888 3 34.143798215230504 13.799051763504004 0 0 0 0
1894 3 37.5581780367535 13.799051763504004 0 0 0 0
1900 3 40.9725578582765 13.799051763504004 0 0 0 0
1906 3 44.3869376797995 13.799051763504004 0 0 0 0
1912 3 47.8013175013225 13.799051763504004 0 0 0 0
1744 3 51.2156973228455 13.799051763504004 0 -1 0 0
1750 3 54.6300771443685 13.799051763504004 0 -1 0 0
1756 3 58.044456965891506 13.799051763504004 0 -1 0 0
1762 3 61.458836787414505 13.799051763504004 0 -1 0 0
1768 3 64.8732166089375 13.799051763504004 0 -1 0 0
1774 3 68.2875964304605 13.799051763504004 0 -1 0 0
1780 3 71.7019762519835 13.799051763504004 0 -1 0 0
1786 3 75.1163560735065 13.799051763504004 0 -1 0 0
1792 3 78.53073589502951 13.799051763504004 0 -1 0 0
1798 3 81.9451157165525 13.799051763504004 0 -1 0 0
1804 3 85.35949553807549 13.799051763504004 0 -1 0 0
1810 3 88.7738753595985 13.799051763504004 0 -1 0 0
1816 3 92.1882551811215 13.799051763504004 0 -1 0 0
1822 3 95.6026350026445 13.799051763504004 0 -1 0 0
2009 1 1.7071899107614996 14.784698318039993 1.4227780465180002 0 0 0
2015 1 5.121569732284499 14.784698318039993 1.4227780465180002 0 0 0
2021 1 8.535949553807498 14.784698318039993 1.4227780465180002 0 0 0
2027 1 11.950329375330497 14.784698318039993 1.4227780465180002 0 0 0
2033 1 15.364709196853497 14.784698318039993 1.4227780465180002 0 0 0
2039 1 18.779089018376496 14.784698318039993 1.4227780465180002 0 0 0
2045 1 22.193468839899495 14.784698318039993 1.4227780465180002 0 0 0
2051 1 25.607848661422494 14.784698318039993 1.4227780465180002 0 0 0
2057 1 29.022228482945494 14.784698318039993 1.4227780465180002 0 0 0
2063 1 32.43660830446849 14.784698318039993 1.4227780465180002 0 0 0
2069 1 35.85098812599149 14.784698318039993 1.4227780465180002 0 0 0
2075 1 39.26536794751449 14.784698318039993 1.4227780465180002 0 0 0
2081 1 42.67974776903749 14.784698318039993 1.4227780465180002 0 0 0
2087 1 46.094127590560504 14.784698318039993 1.4227780465180002 0 0 0
1919 1 49.5085074120835 14.784698318039993 1.4227780465180002 -1 0 0
1925 1 52.9228872336065 14.784698318039993 1.4227780465180002 -1 0 0
1931 1 56.3372670551295 14.784698318039993 1.4227780465180002 -1 0 0
1937 1 59.7516468766525 14.784698318039993 1.4227780465180002 -1 0 0
1943 1 63.1660266981755 14.784698318039993 1.4227780465180002 -1 0 0
1949 1 66.5804065196985 14.784698318039993 1.4227780465180002 -1 0 0
1955 1 69.9947863412215 14.784698318039993 1.4227780465180002 -1 0 0
1961 1 73.4091661627445 14.784698318039993 1.4227780465180002 -1 0 0
1967 1 76.8235459842675 14.784698318039993 1.4227780465180002 -1 0 0
1973 1 80.2379258057905 14.784698318039993 1.4227780465180002 -1 0 0
1979 1 83.6523056273135 14.784698318039993 1.4227780465180002 -1 0 0
1985 1 87.0666854488365 14.784698318039993 1.4227780465180002 -1 0 0
1991 1 90.4810652703595 14.784698318039993 1.4227780465180002 -1 0 0
1997 1 93.8954450918825 14.784698318039993 1.4227780465180002 -1 0 0
2003 1 97.3098249134055 14.784698318039993 1.4227780465180002 -1 0 0
2004 1 4.973799150320701e-13 17.741637981648005 1.4227780465180002 0 0 0
2007 3 1.7071899107614996 16.755991427112 0 0 0 0
2010 1 3.4143798215234966 17.741637981648005 1.4227780465180002 0 0 0
2013 3 5.121569732284499 16.755991427112 0 0 0 0
2016 1 6.828759643046496 17.741637981648005 1.4227780465180002 0 0 0
2019 3 8.535949553807498 16.755991427112 0 0 0 0
2022 1 10.243139464569495 17.741637981648005 1.4227780465180002 0 0 0
2025 3 11.950329375330497 16.755991427112 0 0 0 0
2028 1 13.657519286092494 17.741637981648005 1.4227780465180002 0 0 0
2031 3 15.364709196853497 16.755991427112 0 0 0 0
2034 1 17.071899107615494 17.741637981648005 1.4227780465180002 0 0 0
2037 3 18.779089018376496 16.755991427112 0 0 0 0
2040 1 20.486278929138493 17.741637981648005 1.4227780465180002 0 0 0
2043 3 22.193468839899495 16.755991427112 0 0 0 0
2046 1 23.900658750661492 17.741637981648005 1.4227780465180002 0 0 0
2049 3 25.607848661422494 16.755991427112 0 0 0 0
2052 1 27.31503857218449 17.741637981648005 1.4227780465180002 0 0 0
2055 3 29.022228482945494 16.755991427112 0 0 0 0
2058 1 30.72941839370749 17.741637981648005 1.4227780465180002 0 0 0
2061 3 32.43660830446849 16.755991427112 0 0 0 0
2064 1 34.143798215230504 17.741637981648005 1.4227780465180002 0 0 0
2067 3 35.85098812599149 16.755991427112 0 0 0 0
2070 1 37.5581780367535 17.741637981648005 1.4227780465180002 0 0 0
2073 3 39.26536794751449 16.755991427112 0 0 0 0
2076 1 40.9725578582765 17.741637981648005 1.4227780465180002 0 0 0
2079 3 42.67974776903749 16.755991427112 0 0 0 0
2082 1 44.3869376797995 17.741637981648005 1.4227780465180002 0 0 0
2085 3 46.094127590560504 16.755991427112 0 0 0 0
2088 1 47.8013175013225 17.741637981648005 1.4227780465180002 0 0 0
1917 3 49.5085074120835 16.755991427112 0 -1 0 0
1920 1 51.2156973228455 17.741637981648005 1.4227780465180002 -1 0 0
1923 3 52.9228872336065 16.755991427112 0 -1 0 0
1926 1 54.6300771443685 17.741637981648005 1.4227780465180002 -1 0 0
1929 3 56.3372670551295 16.755991427112 0 -1 0 0
1932 1 58.044456965891506 17.741637981648005 1.4227780465180002 -1 0 0
1935 3 59.7516468766525 16.755991427112 0 -1 0 0
1938 1 61.458836787414505 17.741637981648005 1.4227780465180002 -1 0 0
1941 3 63.1660266981755 16.755991427112 0 -1 0 0
1944 1 64.8732166089375 17.741637981648005 1.4227780465180002 -1 0 0
1947 3 66.5804065196985 16.755991427112 0 -1 0 0
1950 1 68.2875964304605 17.741637981648005 1.4227780465180002 -1 0 0
1953 3 69.9947863412215 16.755991427112 0 -1 0 0
1956 1 71.7019762519835 17.741637981648005 1.4227780465180002 -1 0 0
1959 3 73.4091661627445 16.755991427112 0 -1 0 0
1962 1 75.1163560735065 17.741637981648005 1.4227780465180002 -1 0 0
1965 3 76.8235459842675 16.755991427112 0 -1 0 0
1968 1 78.53073589502951 17.741637981648005 1.4227780465180002 -1 0 0
1971 3 80.2379258057905 16.755991427112 0 -1 0 0
1974 1 81.9451157165525 17.741637981648005 1.4227780465180002 -1 0 0
1977 3 83.6523056273135 16.755991427112 0 -1 0 0
1980 1 85.35949553807549 17.741637981648005 1.4227780465180002 -1 0 0
1983 3 87.0666854488365 16.755991427112 0 -1 0 0
1986 1 88.7738753595985 17.741637981648005 1.4227780465180002 -1 0 0
1989 3 90.4810652703595 16.755991427112 0 -1 0 0
1992 1 92.1882551811215 17.741637981648005 1.4227780465180002 -1 0 0
1995 3 93.8954450918825 16.755991427112 0 -1 0 0
1998 1 95.6026350026445 17.741637981648005 1.4227780465180002 -1 0 0
2001 3 97.3098249134055 16.755991427112 0 -1 0 0
2002 3 4.973799150320701e-13 19.712931090719998 0 0 0 0
2008 3 3.4143798215234966 19.712931090719998 0 0 0 0
2014 3 6.828759643046496 19.712931090719998 0 0 0 0
2020 3 10.243139464569495 19.712931090719998 0 0 0 0
2026 3 13.657519286092494 19.712931090719998 0 0 0 0
2032 3 17.071899107615494 19.712931090719998 0 0 0 0
2038 3 20.486278929138493 19.712931090719998 0 0 0 0
2044 3 23.900658750661492 19.712931090719998 0 0 0 0
2050 3 27.31503857218449 19.712931090719998 0 0 0 0
2056 3 30.72941839370749 19.712931090719998 0 0 0 0
2062 3 34.143798215230504 19.712931090719998 0 0 0 0
2068 3 37.5581780367535 19.712931090719998 0 0 0 0
2074 3 40.9725578582765 19.712931090719998 0 0 0 0
2080 3 44.3869376797995 19.712931090719998 0 0 0 0
2086 3 47.8013175013225 19.712931090719998 0 0 0 0
1918 3 51.2156973228455 19.712931090719998 0 -1 0 0
1924 3 54.6300771443685 19.712931090719998 0 -1 0 0
1930 3 58.044456965891506 19.712931090719998 0 -1 0 0
1936 3 61.458836787414505 19.712931090719998 0 -1 0 0
1942 3 64.8732166089375 19.712931090719998 0 -1 0 0
1948 3 68.2875964304605 19.712931090719998 0 -1 0 0
1954 3 71.7019762519835 19.712931090719998 0 -1 0 0
1960 3 75.1163560735065 19.712931090719998 0 -1 0 0
1966 3 78.53073589502951 19.712931090719998 0 -1 0 0
1972 3 81.9451157165525 19.712931090719998 0 -1 0 0
1978 3 85.35949553807549 19.712931090719998 0 -1 0 0
1984 3 88.7738753595985 19.712931090719998 0 -1 0 0
1990 3 92.1882551811215 19.712931090719998 0 -1 0 0
1996 3 95.6026350026445 19.712931090719998 0 -1 0 0
2183 1 1.7071899107614996 20.698577645256 1.4227780465180002 0 0 0
2189 1 5.121569732284499 20.698577645256 1.4227780465180002 0 0 0
2195 1 8.535949553807498 20.698577645256 1.4227780465180002 0 0 0
2201 1 11.950329375330497 20.698577645256 1.4227780465180002 0 0 0
2207 1 15.364709196853497 20.698577645256 1.4227780465180002 0 0 0
2213 1 18.779089018376496 20.698577645256 1.4227780465180002 0 0 0
2219 1 22.193468839899495 20.698577645256 1.4227780465180002 0 0 0
2225 1 25.607848661422494 20.698577645256 1.4227780465180002 0 0 0
2231 1 29.022228482945494 20.698577645256 1.4227780465180002 0 0 0
2237 1 32.43660830446849 20.698577645256 1.4227780465180002 0 0 0
2243 1 35.85098812599149 20.698577645256 1.4227780465180002 0 0 0
2249 1 39.26536794751449 20.698577645256 1.4227780465180002 0 0 0
2255 1 42.67974776903749 20.698577645256 1.4227780465180002 0 0 0
2261 1 46.094127590560504 20.698577645256 1.4227780465180002 0 0 0
2093 1 49.5085074120835 20.698577645256 1.4227780465180002 -1 0 0
2099 1 52.9228872336065 20.698577645256 1.4227780465180002 -1 0 0
2105 1 56.3372670551295 20.698577645256 1.4227780465180002 -1 0 0
2111 1 59.7516468766525 20.698577645256 1.4227780465180002 -1 0 0
2117 1 63.1660266981755 20.698577645256 1.4227780465180002 -1 0 0
2123 1 66.5804065196985 20.698577645256 1.4227780465180002 -1 0 0
2129 1 69.9947863412215 20.698577645256 1.4227780465180002 -1 0 0
2135 1 73.4091661627445 20.698577645256 1.4227780465180002 -1 0 0
2141 1 76.8235459842675 20.698577645256 1.4227780465180002 -1 0 0
2147 1 80.2379258057905 20.698577645256 1.4227780465180002 -1 0 0
2153 1 83.6523056273135 20.698577645256 1.4227780465180002 -1 0 0
2159 1 87.0666854488365 20.698577645256 1.4227780465180002 -1 0 0
2165 1 90.4810652703595 20.698577645256 1.4227780465180002 -1 0 0
2171 1 93.8954450918825 20.698577645256 1.4227780465180002 -1 0 0
2177 1 97.3098249134055 20.698577645256 1.4227780465180002 -1 0 0
2181 3 1.7071899107614996 22.669870754327995 0 0 0 0
2187 3 5.121569732284499 22.669870754327995 0 0 0 0
2193 3 8.535949553807498 22.669870754327995 0 0 0 0
2199 3 11.950329375330497 22.669870754327995 0 0 0 0
2205 3 15.364709196853497 22.669870754327995 0 0 0 0
2211 3 18.779089018376496 22.669870754327995 0 0 0 0
2217 3 22.193468839899495 22.669870754327995 0 0 0 0
2223 3 25.607848661422494 22.669870754327995 0 0 0 0
2229 3 29.022228482945494 22.669870754327995 0 0 0 0
2235 3 32.43660830446849 22.669870754327995 0 0 0 0
2241 3 35.85098812599149 22.669870754327995 0 0 0 0
2247 3 39.26536794751449 22.669870754327995 0 0 0 0
2253 3 42.67974776903749 22.669870754327995 0 0 0 0
2259 3 46.094127590560504 22.669870754327995 0 0 0 0
2091 3 49.5085074120835 22.669870754327995 0 -1 0 0
2097 3 52.9228872336065 22.669870754327995 0 -1 0 0
2103 3 56.3372670551295 22.669870754327995 0 -1 0 0
2109 3 59.7516468766525 22.669870754327995 0 -1 0 0
2115 3 63.1660266981755 22.669870754327995 0 -1 0 0
2121 3 66.5804065196985 22.669870754327995 0 -1 0 0
2127 3 69.9947863412215 22.669870754327995 0 -1 0 0
2133 3 73.4091661627445 22.669870754327995 0 -1 0 0
2139 3 76.8235459842675 22.669870754327995 0 -1 0 0
2145 3 80.2379258057905 22.669870754327995 0 -1 0 0
2151 3 83.6523056273135 22.669870754327995 0 -1 0 0
2157 3 87.0666854488365 22.669870754327995 0 -1 0 0
2163 3 90.4810652703595 22.669870754327995 0 -1 0 0
2169 3 93.8954450918825 22.669870754327995 0 -1 0 0
2175 3 97.3098249134055 22.669870754327995 0 -1 0 0
2178 1 4.973799150320701e-13 23.655517308864 1.4227780465180002 0 0 0
2184 1 3.4143798215234966 23.655517308864 1.4227780465180002 0 0 0
2190 1 6.828759643046496 23.655517308864 1.4227780465180002 0 0 0
2196 1 10.243139464569495 23.655517308864 1.4227780465180002 0 0 0
2202 1 13.657519286092494 23.655517308864 1.4227780465180002 0 0 0
2208 1 17.071899107615494 23.655517308864 1.4227780465180002 0 0 0
2214 1 20.486278929138493 23.655517308864 1.4227780465180002 0 0 0
2220 1 23.900658750661492 23.655517308864 1.4227780465180002 0 0 0
2226 1 27.31503857218449 23.655517308864 1.4227780465180002 0 0 0
2232 1 30.72941839370749 23.655517308864 1.4227780465180002 0 0 0
2238 1 34.143798215230504 23.655517308864 1.4227780465180002 0 0 0
2244 1 37.5581780367535 23.655517308864 1.4227780465180002 0 0 0
2250 1 40.9725578582765 23.655517308864 1.4227780465180002 0 0 0
2256 1 44.3869376797995 23.655517308864 1.4227780465180002 0 0 0
2262 1 47.8013175013225 23.655517308864 1.4227780465180002 0 0 0
2094 1 51.2156973228455 23.655517308864 1.4227780465180002 -1 0 0
2100 1 54.6300771443685 23.655517308864 1.4227780465180002 -1 0 0
2106 1 58.044456965891506 23.655517308864 1.4227780465180002 -1 0 0
2112 1 61.458836787414505 23.655517308864 1.4227780465180002 -1 0 0
2118 1 64.8732166089375 23.655517308864 1.4227780465180002 -1 0 0
2124 1 68.2875964304605 23.655517308864 1.4227780465180002 -1 0 0
2130 1 71.7019762519835 23.655517308864 1.4227780465180002 -1 0 0
2136 1 75.1163560735065 23.655517308864 1.4227780465180002 -1 0 0
2142 1 78.53073589502951 23.655517308864 1.4227780465180002 -1 0 0
2148 1 81.9451157165525 23.655517308864 1.4227780465180002 -1 0 0
2154 1 85.35949553807549 23.655517308864 1.4227780465180002 -1 0 0
2160 1 88.7738753595985 23.655517308864 1.4227780465180002 -1 0 0
2166 1 92.1882551811215 23.655517308864 1.4227780465180002 -1 0 0
2172 1 95.6026350026445 23.655517308864 1.4227780465180002 -1 0 0
2176 3 4.973799150320701e-13 25.626810417935992 0 0 0 0
2357 1 1.7071899107614996 26.612456972471996 1.4227780465180002 0 0 0
2182 3 3.4143798215234966 25.626810417935992 0 0 0 0
2363 1 5.121569732284499 26.612456972471996 1.4227780465180002 0 0 0
2188 3 6.828759643046496 25.626810417935992 0 0 0 0
2369 1 8.535949553807498 26.612456972471996 1.4227780465180002 0 0 0
2194 3 10.243139464569495 25.626810417935992 0 0 0 0
2375 1 11.950329375330497 26.612456972471996 1.4227780465180002 0 0 0