LAMMPS data file via write_data, version 29 Aug 2024, timestep = 7, units = metal

10368 atoms
9 atom types

0 100.9376 xlo xhi
0 98.341341521652 ylo yhi
-50 120.34974422974231 zlo zhi

Masses

1 97.90721000000001
2 97.90721000000001
3 97.90721000000001
4 78.971
5 78.971
6 78.971
7 78.971
8 78.971
9 78.971

Atoms # atomic

1833 5 3.1542999999999917 1.8211359541024987 -0.2043106425437963 0 0 0
1828 5 1.577150000000007 4.5528398852595 -0.2043106425437949 0 0 0
1834 5 4.731450000000009 4.5528398852595 -0.20431064254379264 0 0 0
1839 5 6.308599999999998 1.8211359541024992 -0.2043106425437941 0 0 0
1845 5 9.462900000000008 1.8211359541024998 -0.20431064254379677 0 0 0
1840 5 7.8857499999999865 4.5528398852595 -0.20431064254379272 0 0 0
1846 5 11.040049999999981 4.552839885259502 -0.2043106425437938 0 0 0
1851 5 12.617200000000006 1.8211359541025045 -0.20431064254379036 0 0 0
1857 5 15.77149999999998 1.821135954102504 -0.20431064254379824 0 0 0
1852 5 14.194349999999982 4.55283988525949 -0.20431064254379624 0 0 0
1858 5 17.34865000000004 4.5528398852595 -0.20431064254379844 0 0 0
1863 5 18.92580000000002 1.821135954102498 -0.20431064254379044 0 0 0
1869 5 22.080099999999977 1.8211359541024974 -0.20431064254379208 0 0 0
1864 5 20.502949999999995 4.552839885259507 -0.2043106425437832 0 0 0
1870 5 23.657249999999955 4.5528398852595 -0.20431064254380052 0 0 0
1875 5 25.234400000000036 1.8211359541025056 -0.2043106425437999 0 0 0
1881 5 28.38869999999999 1.8211359541024987 -0.20431064254378842 0 0 0
1876 5 26.811550000000008 4.552839885259498 -0.20431064254378906 0 0 0
1887 5 31.543000000000045 1.821135954102504 -0.20431064254380016 0 0 0
1893 5 34.6973 1.8211359541025076 -0.20431064254378398 0 0 0
1882 5 29.96584999999996 4.552839885259503 -0.20431064254379872 0 0 0
1888 5 33.120150000000024 4.552839885259496 -0.2043106425437922 0 0 0
1899 5 37.85159999999995 1.8211359541024985 -0.20431064254379985 0 0 0
1905 5 41.00590000000001 1.8211359541025023 -0.20431064254379044 0 0 0
1894 5 36.274449999999966 4.552839885259499 -0.20431064254379372 0 0 0
1900 5 39.428750000000036 4.552839885259498 -0.20431064254379785 0 0 0
1911 5 44.16019999999996 1.8211359541025005 -0.2043106425437981 0 0 0
1917 5 47.31450000000004 1.8211359541024985 -0.20431064254379408 0 0 0
1906 5 42.583049999999986 4.552839885259502 -0.20431064254379075 0 0 0
1912 5 45.73735000000005 4.5528398852594965 -0.2043106425437998 0 0 0
1731 5 50.46879999999999 1.8211359541025007 -0.2043106425437932 -1 0 0
1918 5 48.89165000000001 4.552839885259504 -0.2043106425437858 0 0 0
1732 5 52.04594999999997 4.552839885259499 -0.20431064254379425 -1 0 0
1737 5 53.62310000000001 1.8211359541024983 -0.20431064254379774 -1 0 0
1743 5 56.77740000000002 1.8211359541025005 -0.2043106425437945 -1 0 0
1738 5 55.200249999999976 4.552839885259498 -0.20431064254379397 -1 0 0
1744 5 58.35454999999998 4.552839885259499 -0.20431064254379394 -1 0 0
1749 5 59.93170000000002 1.8211359541024994 -0.20431064254379505 -1 0 0
1755 5 63.08600000000003 1.8211359541025018 -0.20431064254379222 -1 0 0
1750 5 61.508849999999995 4.552839885259498 -0.204310642543797 -1 0 0
1756 5 64.66315 4.5528398852595 -0.20431064254378856 -1 0 0
1761 5 66.24029999999998 1.8211359541024994 -0.2043106425437931 -1 0 0
1767 5 69.39460000000005 1.8211359541025 -0.20431064254380144 -1 0 0
1762 5 67.81744999999995 4.552839885259498 -0.2043106425438014 -1 0 0
1768 5 70.97175000000003 4.552839885259499 -0.20431064254379253 -1 0 0
1773 5 72.5489 1.8211359541025065 -0.20431064254378162 -1 0 0
1779 5 75.70319999999995 1.8211359541025025 -0.20431064254379944 -1 0 0
1774 5 74.12604999999998 4.552839885259498 -0.20431064254379255 -1 0 0
1785 5 78.85750000000002 1.821135954102495 -0.2043106425438023 -1 0 0
1791 5 82.01180000000008 1.8211359541025 -0.2043106425437952 -1 0 0
1780 5 77.28035000000004 4.5528398852595 -0.20431064254379802 -1 0 0
1786 5 80.43464999999999 4.552839885259509 -0.20431064254378814 -1 0 0
1797 5 85.16610000000003 1.821135954102509 -0.20431064254378645 -1 0 0
1803 5 88.32039999999996 1.8211359541025025 -0.2043106425437963 -1 0 0
1792 5 83.58894999999994 4.5528398852595 -0.20431064254379286 -1 0 0
1798 5 86.74324999999999 4.552839885259491 -0.20431064254380044 -1 0 0
1809 5 91.47470000000003 1.8211359541024994 -0.20431064254379228 -1 0 0
1815 5 94.62899999999998 1.8211359541024992 -0.2043106425437926 -1 0 0
1804 5 89.89755000000005 4.5528398852595 -0.20431064254379966 -1 0 0
1810 5 93.05185 4.552839885259505 -0.20431064254378126 -1 0 0
1827 5 100.93759999999999 1.8211359541025052 -0.20431064254378878 -1 0 0
1821 5 97.78330000000004 1.8211359541025025 -0.20431064254379838 -1 0 0
1816 5 96.20614999999995 4.5528398852595 -0.2043106425438004 -1 0 0
1822 5 99.36045000000001 4.552839885259492 -0.20431064254379505 -1 0 0
2025 5 3.1542999999999917 7.284543816416497 -0.204310642543789 0 0 0
2020 5 1.577150000000005 10.016247747573496 -0.20431064254378997 0 0 0
2026 5 4.7314500000000095 10.016247747573496 -0.20431064254378756 0 0 0
2031 5 6.308599999999998 7.284543816416497 -0.20431064254378745 0 0 0
2037 5 9.462900000000008 7.284543816416497 -0.20431064254378895 0 0 0
2032 5 7.885749999999986 10.016247747573496 -0.2043106425437881 0 0 0
2038 5 11.04004999999998 10.016247747573496 -0.2043106425437903 0 0 0
2043 5 12.617200000000006 7.2845438164165 -0.20431064254378375 0 0 0
2049 5 15.77149999999998 7.284543816416502 -0.20431064254379325 0 0 0
2044 5 14.194349999999982 10.016247747573491 -0.20431064254379136 0 0 0
2050 5 17.34865000000004 10.016247747573496 -0.20431064254379536 0 0 0
2055 5 18.925800000000017 7.284543816416496 -0.2043106425437845 0 0 0
2061 5 22.080099999999977 7.284543816416495 -0.2043106425437861 0 0 0
2056 5 20.502949999999995 10.016247747573498 -0.20431064254377912 0 0 0
2062 5 23.657249999999955 10.016247747573498 -0.20431064254379683 0 0 0
2067 5 25.234400000000036 7.284543816416503 -0.2043106425437925 0 0 0
2073 5 28.38869999999999 7.284543816416498 -0.2043106425437832 0 0 0
2068 5 26.811550000000004 10.016247747573495 -0.20431064254378467 0 0 0
2079 5 31.543000000000042 7.2845438164165 -0.2043106425437954 0 0 0
2085 5 34.6973 7.284543816416502 -0.2043106425437761 0 0 0
2074 5 29.96584999999996 10.016247747573498 -0.20431064254379552 0 0 0
2080 5 33.120150000000024 10.016247747573491 -0.20431064254378808 0 0 0
2091 5 37.85159999999995 7.284543816416497 -0.2043106425437931 0 0 0
2097 5 41.00590000000001 7.2845438164165 -0.20431064254378384 0 0 0
2086 5 36.274449999999966 10.016247747573493 -0.20431064254378944 0 0 0
2092 5 39.428750000000036 10.016247747573496 -0.2043106425437938 0 0 0
2103 5 44.16019999999996 7.284543816416499 -0.20431064254379136 0 0 0
2109 5 47.31450000000003 7.284543816416496 -0.20431064254378759 0 0 0
2098 5 42.583049999999986 10.016247747573498 -0.2043106425437862 0 0 0
2104 5 45.73735000000005 10.016247747573495 -0.20431064254379536 0 0 0
1923 5 50.46879999999999 7.284543816416497 -0.2043106425437854 -1 0 0
2110 5 48.89165000000001 10.016247747573496 -0.2043106425437814 0 0 0
1924 5 52.04594999999997 10.016247747573495 -0.20431064254379064 -1 0 0
1929 5 53.62310000000001 7.284543816416496 -0.20431064254379053 -1 0 0
1935 5 56.77740000000002 7.284543816416499 -0.20431064254378745 -1 0 0
1930 5 55.20024999999998 10.016247747573495 -0.20431064254379128 -1 0 0
1936 5 58.35454999999998 10.016247747573496 -0.20431064254379036 -1 0 0
1941 5 59.93170000000002 7.284543816416498 -0.2043106425437878 -1 0 0
1947 5 63.08600000000003 7.2845438164165 -0.2043106425437842 -1 0 0
1942 5 61.508849999999995 10.016247747573493 -0.20431064254379225 -1 0 0
1948 5 64.66315 10.016247747573496 -0.20431064254378353 -1 0 0
1953 5 66.24029999999998 7.284543816416498 -0.2043106425437868 -1 0 0
1959 5 69.39460000000005 7.284543816416498 -0.204310642543795 -1 0 0
1954 5 67.81744999999995 10.016247747573496 -0.20431064254379705 -1 0 0
1960 5 70.97175000000003 10.016247747573495 -0.20431064254378895 -1 0 0
1965 5 72.5489 7.2845438164165 -0.2043106425437747 -1 0 0
1971 5 75.70319999999995 7.2845438164165 -0.20431064254379366 -1 0 0
1966 5 74.12604999999998 10.016247747573493 -0.20431064254378825 -1 0 0
1977 5 78.85750000000002 7.284543816416488 -0.2043106425437951 -1 0 0
1983 5 82.01180000000006 7.284543816416501 -0.20431064254378775 -1 0 0
1972 5 77.28035000000004 10.016247747573495 -0.20431064254379247 -1 0 0
1978 5 80.43464999999998 10.016247747573498 -0.20431064254378373 -1 0 0
1989 5 85.16610000000003 7.284543816416503 -0.2043106425437808 -1 0 0
1995 5 88.32039999999996 7.284543816416501 -0.20431064254379097 -1 0 0
1984 5 83.58894999999994 10.016247747573496 -0.20431064254379064 -1 0 0
1990 5 86.74324999999999 10.016247747573491 -0.20431064254379597 -1 0 0
2001 5 91.47470000000003 7.284543816416497 -0.20431064254378603 -1 0 0
2007 5 94.62899999999998 7.284543816416497 -0.20431064254378545 -1 0 0
1996 5 89.89755000000005 10.016247747573496 -0.20431064254379475 -1 0 0
2002 5 93.05185 10.016247747573498 -0.2043106425437764 -1 0 0
2019 5 100.93759999999999 7.284543816416502 -0.20431064254378287 -1 0 0
2013 5 97.78330000000004 7.284543816416499 -0.2043106425437929 -1 0 0
2008 5 96.20614999999995 10.016247747573496 -0.20431064254379608 -1 0 0
2014 5 99.36045000000001 10.016247747573493 -0.20431064254379153 -1 0 0
2217 5 3.154299999999992 12.747951678730491 -0.20431064254379197 0 0 0
2212 5 1.5771500000000043 15.479655609887491 -0.2043106425437913 0 0 0
2218 5 4.731450000000009 15.47965560988749 -0.20431064254378986 0 0 0
2223 5 6.3085999999999975 12.74795167873049 -0.20431064254379078 0 0 0
2229 5 9.462900000000008 12.747951678730491 -0.20431064254379291 0 0 0
2224 5 7.885749999999987 15.47965560988749 -0.2043106425437899 0 0 0
2230 5 11.040049999999983 15.479655609887493 -0.20431064254379064 0 0 0
2235 5 12.617200000000008 12.747951678730493 -0.20431064254378664 0 0 0
2241 5 15.77149999999998 12.747951678730493 -0.2043106425437959 0 0 0
2236 5 14.194349999999984 15.479655609887486 -0.20431064254379244 0 0 0
2242 5 17.348650000000042 15.47965560988749 -0.20431064254379552 0 0 0
2247 5 18.92580000000002 12.747951678730487 -0.20431064254378767 0 0 0
2253 5 22.080099999999973 12.747951678730486 -0.2043106425437887 0 0 0
2248 5 20.502949999999995 15.479655609887491 -0.20431064254377937 0 0 0
2254 5 23.65724999999995 15.47965560988749 -0.20431064254379872 0 0 0
2259 5 25.234400000000036 12.747951678730495 -0.2043106425437965 0 0 0
2265 5 28.38869999999999 12.74795167873049 -0.2043106425437855 0 0 0
2260 5 26.811550000000008 15.479655609887487 -0.20431064254378695 0 0 0
2271 5 31.543000000000045 12.747951678730493 -0.20431064254379752 0 0 0
2277 5 34.6973 12.747951678730495 -0.20431064254377962 0 0 0
2266 5 29.96584999999996 15.479655609887493 -0.20431064254379683 0 0 0
2272 5 33.120150000000024 15.479655609887487 -0.2043106425437896 0 0 0
2283 5 37.85159999999995 12.747951678730491 -0.2043106425437963 0 0 0
2289 5 41.00590000000001 12.747951678730493 -0.2043106425437877 0 0 0
2278 5 36.274449999999966 15.479655609887491 -0.20431064254379058 0 0 0
2284 5 39.428750000000036 15.47965560988749 -0.20431064254379497 0 0 0
2295 5 44.16019999999996 12.747951678730493 -0.2043106425437955 0 0 0
2301 5 47.31450000000004 12.74795167873049 -0.20431064254379103 0 0 0
2290 5 42.583049999999986 15.479655609887493 -0.2043106425437877 0 0 0
2296 5 45.73735000000005 15.479655609887486 -0.2043106425437968 0 0 0
2115 5 50.46879999999999 12.74795167873049 -0.20431064254378925 -1 0 0
2302 5 48.89165000000001 15.47965560988749 -0.2043106425437814 0 0 0
2116 5 52.04594999999996 15.47965560988749 -0.2043106425437911 -1 0 0
2121 5 53.62310000000001 12.747951678730491 -0.20431064254379502 -1 0 0
2127 5 56.777400000000014 12.747951678730495 -0.20431064254379233 -1 0 0
2122 5 55.200249999999976 15.47965560988749 -0.2043106425437912 -1 0 0
2128 5 58.35454999999998 15.479655609887491 -0.20431064254379053 -1 0 0
2133 5 59.93170000000002 12.747951678730493 -0.2043106425437916 -1 0 0
2139 5 63.08600000000003 12.747951678730491 -0.20431064254378795 -1 0 0
2134 5 61.508849999999995 15.47965560988749 -0.2043106425437927 -1 0 0
2140 5 64.66315 15.47965560988749 -0.20431064254378387 -1 0 0
2145 5 66.24029999999998 12.74795167873049 -0.20431064254378997 -1 0 0
2151 5 69.39460000000005 12.747951678730491 -0.20431064254379788 -1 0 0
2146 5 67.81744999999997 15.479655609887487 -0.20431064254379772 -1 0 0
2152 5 70.97175000000003 15.479655609887491 -0.20431064254378922 -1 0 0
2157 5 72.5489 12.747951678730495 -0.2043106425437781 -1 0 0
2163 5 75.70319999999995 12.747951678730493 -0.20431064254379536 -1 0 0
2158 5 74.12604999999998 15.47965560988749 -0.20431064254378942 -1 0 0
2169 5 78.85750000000002 12.74795167873049 -0.20431064254379647 -1 0 0
2175 5 82.01180000000006 12.747951678730491 -0.2043106425437915 -1 0 0
2164 5 77.28035000000004 15.479655609887491 -0.20431064254379294 -1 0 0
2170 5 80.43464999999998 15.479655609887494 -0.204310642543784 -1 0 0
2181 5 85.16610000000003 12.747951678730493 -0.2043106425437834 -1 0 0
2187 5 88.32039999999996 12.747951678730493 -0.20431064254379325 -1 0 0
2176 5 83.58894999999994 15.479655609887491 -0.20431064254379228 -1 0 0
2182 5 86.74324999999999 15.47965560988749 -0.2043106425437976 -1 0 0
2193 5 91.47470000000003 12.74795167873049 -0.20431064254378908 -1 0 0
2199 5 94.62899999999998 12.74795167873049 -0.2043106425437887 -1 0 0
2188 5 89.89755000000005 15.47965560988749 -0.20431064254379608 -1 0 0
2194 5 93.05185 15.479655609887491 -0.2043106425437766 -1 0 0
2211 5 100.93759999999999 12.747951678730495 -0.20431064254378586 -1 0 0
2205 5 97.78330000000004 12.747951678730493 -0.204310642543796 -1 0 0
2200 5 96.20614999999995 15.47965560988749 -0.20431064254379638 -1 0 0
2206 5 99.36045000000001 15.479655609887486 -0.20431064254379092 -1 0 0
2409 5 3.154299999999991 18.21135954104448 -0.20431064254379228 0 0 0
2404 5 1.5771500000000045 20.943063472201484 -0.20431064254378883 0 0 0
2410 5 4.731450000000008 20.94306347220148 -0.2043106425437879 0 0 0
2415 5 6.308599999999998 18.21135954104448 -0.20431064254379047 0 0 0
2421 5 9.462900000000007 18.211359541044484 -0.2043106425437911 0 0 0
2416 5 7.885749999999987 20.94306347220148 -0.20431064254378736 0 0 0
2422 5 11.040049999999981 20.943063472201484 -0.20431064254378958 0 0 0
2427 5 12.617200000000006 18.211359541044487 -0.20431064254378586 0 0 0
2433 5 15.771499999999982 18.211359541044484 -0.20431064254379544 0 0 0
2428 5 14.194349999999982 20.943063472201477 -0.2043106425437914 0 0 0
2434 5 17.34865000000004 20.943063472201477 -0.20431064254379525 0 0 0
2439 5 18.92580000000002 18.21135954104448 -0.20431064254378792 0 0 0
2445 5 22.080099999999977 18.21135954104448 -0.20431064254378908 0 0 0
2440 5 20.502949999999995 20.943063472201484 -0.20431064254378 0 0 0
2446 5 23.657249999999955 20.943063472201477 -0.2043106425437965 0 0 0
2451 5 25.234400000000036 18.211359541044484 -0.20431064254379627 0 0 0
2457 5 28.38869999999999 18.211359541044484 -0.20431064254378628 0 0 0
2452 5 26.811550000000008 20.94306347220148 -0.20431064254378486 0 0 0
2463 5 31.543000000000045 18.211359541044484 -0.20431064254379772 0 0 0
2469 5 34.6973 18.21135954104449 -0.20431064254377987 0 0 0
2458 5 29.96584999999996 20.94306347220148 -0.20431064254379538 0 0 0
2464 5 33.120150000000024 20.943063472201477 -0.20431064254378797 0 0 0
2475 5 37.851599999999955 18.21135954104448 -0.20431064254379624 0 0 0
2481 5 41.00590000000001 18.211359541044487 -0.20431064254378642 0 0 0
2470 5 36.274449999999966 20.943063472201484 -0.20431064254378842 0 0 0
2476 5 39.428750000000036 20.94306347220148 -0.20431064254379258 0 0 0
2487 5 44.16019999999996 18.211359541044484 -0.20431064254379475 0 0 0
2493 5 47.31450000000003 18.211359541044484 -0.20431064254378994 0 0 0
2482 5 42.583049999999986 20.943063472201484 -0.20431064254378536 0 0 0
2488 5 45.73735000000005 20.94306347220148 -0.2043106425437946 0 0 0
2307 5 50.46879999999998 18.211359541044484 -0.20431064254378767 -1 0 0
2494 5 48.89165000000001 20.943063472201484 -0.20431064254377942 0 0 0
2308 5 52.04594999999996 20.94306347220148 -0.20431064254378872 -1 0 0
2313 5 53.62310000000001 18.211359541044484 -0.20431064254379278 -1 0 0
2319 5 56.777400000000014 18.211359541044484 -0.20431064254378983 -1 0 0
2314 5 55.200249999999976 20.94306347220148 -0.20431064254379064 -1 0 0
2320 5 58.35454999999998 20.94306347220148 -0.20431064254378928 -1 0 0
2325 5 59.93170000000002 18.211359541044484 -0.2043106425437906 -1 0 0
2331 5 63.08600000000003 18.211359541044484 -0.20431064254378695 -1 0 0
2326 5 61.508849999999995 20.94306347220148 -0.20431064254379208 -1 0 0
2332 5 64.66315 20.943063472201484 -0.2043106425437832 -1 0 0
2337 5 66.24029999999998 18.211359541044487 -0.20431064254378795 -1 0 0
2343 5 69.39460000000005 18.211359541044484 -0.20431064254379738 -1 0 0
2338 5 67.81744999999995 20.94306347220148 -0.20431064254379627 -1 0 0
2344 5 70.97175000000003 20.943063472201484 -0.2043106425437883 -1 0 0
2349 5 72.5489 18.211359541044487 -0.2043106425437778 -1 0 0
2355 5 75.70319999999995 18.211359541044484 -0.20431064254379563 -1 0 0
2350 5 74.12604999999998 20.943063472201484 -0.20431064254378736 -1 0 0
2361 5 78.85750000000002 18.211359541044484 -0.20431064254379697 -1 0 0
2367 5 82.01180000000006 18.211359541044487 -0.2043106425437914 -1 0 0
2356 5 77.28035000000004 20.94306347220148 -0.20431064254379086 -1 0 0
2362 5 80.43464999999998 20.943063472201487 -0.20431064254378173 -1 0 0
2373 5 85.16610000000003 18.21135954104449 -0.20431064254378353 -1 0 0
2379 5 88.32039999999996 18.211359541044487 -0.20431064254379236 -1 0 0
2368 5 83.58894999999994 20.943063472201484 -0.20431064254378983 -1 0 0
2374 5 86.74324999999999 20.943063472201477 -0.20431064254379616 -1 0 0
2385 5 91.47470000000003 18.211359541044484 -0.2043106425437882 -1 0 0
2391 5 94.62899999999998 18.211359541044484 -0.20431064254378803 -1 0 0
2380 5 89.89755000000007 20.943063472201484 -0.2043106425437941 -1 0 0
2386 5 93.05185 20.943063472201487 -0.2043106425437757 -1 0 0
2403 5 100.93759999999999 18.211359541044487 -0.20431064254378467 -1 0 0
2397 5 97.78330000000004 18.211359541044484 -0.20431064254379427 -1 0 0
2392 5 96.20614999999995 20.94306347220148 -0.2043106425437956 -1 0 0
2398 5 99.36045000000001 20.94306347220148 -0.20431064254379122 -1 0 0
2601 5 3.1542999999999926 23.67476740335848 -0.20431064254378908 0 0 0
2596 5 1.5771500000000065 26.40647133451548 -0.2043106425437892 0 0 0
2602 5 4.731450000000008 26.40647133451548 -0.20431064254378692 0 0 0
2607 5 6.308599999999998 23.67476740335848 -0.20431064254378847 0 0 0
2613 5 9.462900000000007 23.67476740335848 -0.2043106425437902 0 0 0
2608 5 7.885749999999987 26.40647133451548 -0.2043106425437872 0 0 0
2614 5 11.040049999999983 26.406471334515484 -0.20431064254378853 0 0 0
2619 5 12.617200000000006 23.674767403358484 -0.2043106425437845 0 0 0
2625 5 15.771499999999982 23.67476740335848 -0.20431064254379394 0 0 0
2620 5 14.194349999999982 26.406471334515476 -0.2043106425437904 0 0 0
2626 5 17.34865000000004 26.406471334515476 -0.20431064254379377 0 0 0
2631 5 18.92580000000002 23.674767403358477 -0.20431064254378503 0 0 0
2637 5 22.080099999999973 23.674767403358473 -0.2043106425437868 0 0 0
2632 5 20.502949999999995 26.40647133451548 -0.20431064254377804 0 0 0
2638 5 23.657249999999955 26.40647133451548 -0.2043106425437957 0 0 0
2643 5 25.234400000000036 23.67476740335848 -0.20431064254379358 0 0 0
2649 5 28.38869999999999 23.674767403358477 -0.20431064254378334 0 0 0
2644 5 26.811550000000008 26.406471334515476 -0.20431064254378273 0 0 0
2655 5 31.543000000000042 23.67476740335848 -0.20431064254379588 0 0 0
2661 5 34.6973 23.674767403358484 -0.2043106425437776 0 0 0
2650 5 29.96584999999996 26.40647133451548 -0.20431064254379358 0 0 0
2656 5 33.120150000000024 26.406471334515473 -0.20431064254378667 0 0 0
2667 5 37.851599999999955 23.67476740335848 -0.20431064254379344 0 0 0
2673 5 41.00590000000001 23.674767403358484 -0.2043106425437846 0 0 0
2662 5 36.274449999999966 26.406471334515484 -0.20431064254378756 0 0 0
2668 5 39.428750000000036 26.406471334515484 -0.20431064254379214 0 0 0
2679 5 44.16019999999996 23.67476740335848 -0.2043106425437923 0 0 0
2685 5 47.31450000000003 23.674767403358484 -0.20431064254378772 0 0 0
2674 5 42.583049999999986 26.406471334515484 -0.20431064254378456 0 0 0
2680 5 45.73735000000005 26.40647133451548 -0.2043106425437942 0 0 0
2499 5 50.46879999999998 23.67476740335848 -0.20431064254378564 -1 0 0
2686 5 48.89165000000001 26.406471334515484 -0.20431064254377979 0 0 0
2500 5 52.04594999999997 26.40647133451548 -0.20431064254378892 -1 0 0
2505 5 53.62310000000001 23.67476740335848 -0.20431064254379225 -1 0 0
2511 5 56.77740000000002 23.67476740335848 -0.2043106425437892 -1 0 0
2506 5 55.200249999999976 26.40647133451548 -0.2043106425437892 -1 0 0
2512 5 58.35454999999998 26.40647133451548 -0.20431064254378908 -1 0 0
2517 5 59.93170000000002 23.67476740335848 -0.204310642543789 -1 0 0
2523 5 63.08600000000003 23.67476740335848 -0.20431064254378525 -1 0 0
2518 5 61.508849999999995 26.40647133451548 -0.20431064254379122 -1 0 0
2524 5 64.66315 26.406471334515484 -0.20431064254378237 -1 0 0
2529 5 66.24029999999998 23.674767403358484 -0.20431064254378783 -1 0 0
2535 5 69.39460000000005 23.67476740335848 -0.20431064254379624 -1 0 0
2530 5 67.81744999999995 26.40647133451548 -0.2043106425437959 -1 0 0
2536 5 70.97175000000003 26.406471334515484 -0.20431064254378756 -1 0 0
2541 5 72.5489 23.674767403358484 -0.2043106425437757 -1 0 0
2547 5 75.70319999999995 23.67476740335848 -0.20431064254379339 -1 0 0
2542 5 74.12604999999998 26.406471334515484 -0.20431064254378703 -1 0 0
2553 5 78.85750000000002 23.674767403358477 -0.20431064254379538 -1 0 0
2559 5 82.01180000000006 23.674767403358484 -0.20431064254378914 -1 0 0
2548 5 77.28035000000004 26.40647133451548 -0.20431064254379075 -1 0 0
2554 5 80.43464999999998 26.406471334515484 -0.20431064254378142 -1 0 0
2565 5 85.16610000000003 23.674767403358484 -0.20431064254378162 -1 0 0
2571 5 88.32039999999998 23.67476740335848 -0.20431064254379103 -1 0 0
2560 5 83.58894999999994 26.406471334515484 -0.20431064254378933 -1 0 0
2566 5 86.74324999999999 26.406471334515476 -0.2043106425437958 -1 0 0
2577 5 91.47470000000003 23.674767403358484 -0.20431064254378686 -1 0 0
2583 5 94.62899999999998 23.674767403358484 -0.20431064254378647 -1 0 0
2572 5 89.89755000000005 26.40647133451548 -0.2043106425437939 -1 0 0
2578 5 93.05185 26.406471334515487 -0.2043106425437745 -1 0 0
2595 5 100.93759999999999 23.674767403358484 -0.20431064254378375 -1 0 0
2589 5 97.78330000000004 23.67476740335848 -0.20431064254379414 -1 0 0
2584 5 96.20614999999995 26.40647133451548 -0.20431064254379502 -1 0 0
2590 5 99.36045000000001 26.40647133451548 -0.20431064254379033 -1 0 0
2793 5 3.154299999999992 29.13817526567248 -0.2043106425437894 0 0 0
2788 5 1.5771500000000054 31.86987919682948 -0.204310642543789 0 0 0
2794 5 4.731450000000008 31.86987919682948 -0.20431064254378656 0 0 0
2985 5 3.154299999999993 34.60158312798648 -0.20431064254378975 0 0 0
2799 5 6.308599999999998 29.13817526567248 -0.2043106425437885 0 0 0
2805 5 9.462900000000007 29.13817526567248 -0.20431064254378983 0 0 0
2800 5 7.885749999999987 31.86987919682948 -0.20431064254378706 0 0 0
2806 5 11.040049999999981 31.86987919682948 -0.2043106425437884 0 0 0
2991 5 6.308599999999998 34.60158312798648 -0.20431064254378833 0 0 0
2997 5 9.462900000000007 34.60158312798648 -0.20431064254378942 0 0 0
2811 5 12.617200000000006 29.138175265672484 -0.20431064254378292 0 0 0
2817 5 15.771499999999982 29.13817526567248 -0.2043106425437927 0 0 0
2812 5 14.194349999999982 31.869879196829476 -0.20431064254378997 0 0 0
2818 5 17.34865000000004 31.869879196829476 -0.20431064254379247 0 0 0
3003 5 12.617200000000006 34.60158312798649 -0.20431064254378412 0 0 0
3009 5 15.771499999999982 34.60158312798649 -0.20431064254379336 0 0 0
2823 5 18.92580000000002 29.138175265672476 -0.20431064254378373 0 0 0
2829 5 22.080099999999973 29.138175265672473 -0.20431064254378592 0 0 0
2824 5 20.502949999999995 31.86987919682948 -0.20431064254377634 0 0 0
2830 5 23.657249999999955 31.86987919682948 -0.20431064254379466 0 0 0
3015 5 18.92580000000002 34.60158312798648 -0.20431064254378506 0 0 0
3021 5 22.080099999999973 34.60158312798648 -0.20431064254378667 0 0 0
2835 5 25.234400000000036 29.138175265672484 -0.20431064254379191 0 0 0
2841 5 28.38869999999999 29.13817526567248 -0.20431064254378142 0 0 0
2836 5 26.811550000000008 31.86987919682948 -0.2043106425437818 0 0 0
3027 5 25.234400000000036 34.60158312798649 -0.20431064254379247 0 0 0
3033 5 28.38869999999999 34.60158312798649 -0.2043106425437824 0 0 0
2847 5 31.543000000000042 29.13817526567248 -0.20431064254379408 0 0 0
2853 5 34.6973 29.138175265672484 -0.20431064254377654 0 0 0
2842 5 29.96584999999996 31.869879196829483 -0.20431064254379316 0 0 0
2848 5 33.120150000000024 31.869879196829476 -0.2043106425437862 0 0 0
3039 5 31.543000000000042 34.60158312798649 -0.2043106425437947 0 0 0
3045 5 34.6973 34.601583127986494 -0.20431064254377715 0 0 0
2859 5 37.85159999999995 29.13817526567248 -0.2043106425437934 0 0 0
2865 5 41.00590000000001 29.138175265672487 -0.20431064254378478 0 0 0
2854 5 36.274449999999966 31.869879196829483 -0.2043106425437876 0 0 0
2860 5 39.428750000000036 31.86987919682948 -0.20431064254379275 0 0 0
3051 5 37.851599999999955 34.60158312798649 -0.20431064254379405 0 0 0
3057 5 41.00590000000001 34.60158312798649 -0.2043106425437841 0 0 0
2871 5 44.16019999999996 29.13817526567248 -0.2043106425437927 0 0 0
2877 5 47.31450000000003 29.138175265672484 -0.20431064254378892 0 0 0
2866 5 42.583049999999986 31.869879196829483 -0.20431064254378506 0 0 0
2872 5 45.73735000000005 31.869879196829476 -0.20431064254379427 0 0 0
3063 5 44.16019999999996 34.60158312798649 -0.20431064254379258 0 0 0
3069 5 47.31450000000004 34.60158312798649 -0.20431064254378828 0 0 0
2691 5 50.46879999999998 29.13817526567248 -0.20431064254378642 -1 0 0
2878 5 48.89165000000001 31.86987919682948 -0.20431064254377893 0 0 0
2692 5 52.04594999999996 31.869879196829476 -0.20431064254378922 -1 0 0
2883 5 50.46879999999999 34.60158312798648 -0.2043106425437875 -1 0 0
2697 5 53.6231 29.13817526567248 -0.20431064254379158 -1 0 0
2703 5 56.77740000000002 29.138175265672484 -0.20431064254378878 -1 0 0
2698 5 55.200249999999976 31.869879196829476 -0.20431064254378944 -1 0 0
2704 5 58.35454999999998 31.86987919682948 -0.20431064254378883 -1 0 0
2889 5 53.62310000000001 34.60158312798648 -0.20431064254379158 -1 0 0
2895 5 56.777400000000014 34.60158312798649 -0.20431064254378759 -1 0 0
2709 5 59.93170000000003 29.13817526567248 -0.20431064254378825 -1 0 0
2715 5 63.08600000000003 29.138175265672484 -0.2043106425437852 -1 0 0
2710 5 61.508849999999995 31.869879196829476 -0.20431064254379175 -1 0 0
2716 5 64.66315 31.86987919682948 -0.20431064254378314 -1 0 0
2901 5 59.93170000000002 34.60158312798648 -0.20431064254378933 -1 0 0
2907 5 63.08600000000003 34.60158312798649 -0.2043106425437851 -1 0 0
2721 5 66.24029999999998 29.138175265672484 -0.20431064254378747 -1 0 0
2727 5 69.39460000000005 29.13817526567248 -0.2043106425437954 -1 0 0
2722 5 67.81744999999995 31.869879196829476 -0.20431064254379666 -1 0 0
2728 5 70.97175000000003 31.86987919682948 -0.20431064254378672 -1 0 0
2913 5 66.24029999999998 34.60158312798649 -0.20431064254378753 -1 0 0
2919 5 69.39460000000005 34.60158312798649 -0.20431064254379566 -1 0 0
2733 5 72.5489 29.138175265672484 -0.20431064254377498 -1 0 0
2739 5 75.70319999999995 29.13817526567248 -0.20431064254379305 -1 0 0
2734 5 74.12604999999998 31.869879196829483 -0.2043106425437867 -1 0 0
2925 5 72.5489 34.60158312798649 -0.2043106425437755 -1 0 0
2931 5 75.70319999999995 34.60158312798649 -0.2043106425437931 -1 0 0
2745 5 78.85750000000002 29.138175265672476 -0.20431064254379533 -1 0 0
2751 5 82.01180000000006 29.138175265672484 -0.2043106425437888 -1 0 0
2740 5 77.28035000000004 31.86987919682948 -0.20431064254378992 -1 0 0
2746 5 80.43464999999998 31.869879196829483 -0.20431064254378092 -1 0 0
2937 5 78.85750000000002 34.60158312798648 -0.20431064254379425 -1 0 0
2943 5 82.01180000000006 34.60158312798649 -0.20431064254378675 -1 0 0
2757 5 85.16610000000003 29.138175265672484 -0.20431064254378045 -1 0 0
2763 5 88.32039999999996 29.138175265672484 -0.2043106425437903 -1 0 0
2752 5 83.58894999999994 31.86987919682948 -0.2043106425437881 -1 0 0
2758 5 86.74324999999999 31.86987919682948 -0.20431064254379433 -1 0 0
2949 5 85.16610000000001 34.601583127986494 -0.20431064254378165 -1 0 0
2955 5 88.32039999999996 34.60158312798649 -0.2043106425437913 -1 0 0
2769 5 91.47470000000003 29.138175265672484 -0.20431064254378684 -1 0 0
2775 5 94.62899999999998 29.138175265672484 -0.20431064254378659 -1 0 0
2764 5 89.89755000000005 31.86987919682948 -0.2043106425437937 -1 0 0
2770 5 93.05185 31.86987919682948 -0.20431064254377576 -1 0 0
2961 5 91.47470000000003 34.60158312798649 -0.20431064254378675 -1 0 0
2967 5 94.62899999999998 34.60158312798649 -0.20431064254378634 -1 0 0
2787 5 100.93759999999999 29.138175265672487 -0.2043106425437831 -1 0 0
2979 5 100.93759999999999 34.60158312798649 -0.204310642543783 -1 0 0
2781 5 97.78330000000004 29.138175265672484 -0.2043106425437936 -1 0 0
2776 5 96.20614999999995 31.86987919682948 -0.2043106425437948 -1 0 0
2782 5 99.36045000000001 31.86987919682948 -0.20431064254378967 -1 0 0
2973 5 97.78330000000004 34.60158312798649 -0.2043106425437928 -1 0 0
2980 5 1.5771500000000072 37.33328705914349 -0.2043106425437884 0 0 0
2986 5 4.731450000000008 37.33328705914349 -0.20431064254378617 0 0 0
3177 5 3.154299999999991 40.06499099030048 -0.20431064254378986 0 0 0
2992 5 7.8857499999999865 37.33328705914349 -0.20431064254378573 0 0 0
2998 5 11.040049999999981 37.33328705914349 -0.20431064254378786 0 0 0
3183 5 6.3085999999999975 40.06499099030048 -0.20431064254378864 0 0 0