LAMMPS data file via write_data, version 29 Aug 2024, timestep = 0, units = metal

3456 atoms
3 atom types

0 100.9376 xlo xhi
0 98.341341521652 ylo yhi
0 106 zlo zhi

Masses

1 97.90721000000001
2 78.95999999999999
3 78.971

Atoms # atomic

1825 1 0 0 1.7216000000000022 0 0 0
1831 1 3.154299999999999 0 1.7216000000000022 0 0 0
1837 1 6.308599999999998 0 1.7216000000000022 0 0 0
1843 1 9.462899999999998 0 1.7216000000000022 0 0 0
1849 1 12.617199999999997 0 1.7216000000000022 0 0 0
1855 1 15.771500000000003 0 1.7216000000000022 0 0 0
1861 1 18.925799999999995 0 1.7216000000000022 0 0 0
1867 1 22.0801 0 1.7216000000000022 0 0 0
1873 1 25.234399999999994 0 1.7216000000000022 0 0 0
1879 1 28.3887 0 1.7216000000000022 0 0 0
1885 1 31.542999999999992 0 1.7216000000000022 0 0 0
1891 1 34.6973 0 1.7216000000000022 0 0 0
1897 1 37.851600000000005 0 1.7216000000000022 0 0 0
1903 1 41.0059 0 1.7216000000000022 0 0 0
1909 1 44.1602 0 1.7216000000000022 0 0 0
1915 1 47.314499999999995 0 1.7216000000000022 0 0 0
1729 1 50.4688 0 1.7216000000000022 -1 0 0
1735 1 53.6231 0 1.7216000000000022 -1 0 0
1741 1 56.7774 0 1.7216000000000022 -1 0 0
1747 1 59.9317 0 1.7216000000000022 -1 0 0
1753 1 63.086 0 1.7216000000000022 -1 0 0
1759 1 66.2403 0 1.7216000000000022 -1 0 0
1765 1 69.3946 0 1.7216000000000022 -1 0 0
1771 1 72.5489 0 1.7216000000000022 -1 0 0
1777 1 75.70320000000001 0 1.7216000000000022 -1 0 0
1783 1 78.8575 0 1.7216000000000022 -1 0 0
1789 1 82.0118 0 1.7216000000000022 -1 0 0
1795 1 85.1661 0 1.7216000000000022 -1 0 0
1801 1 88.3204 0 1.7216000000000022 -1 0 0
1807 1 91.4747 0 1.7216000000000022 -1 0 0
1813 1 94.629 0 1.7216000000000022 -1 0 0
1819 1 97.7833 0 1.7216000000000022 -1 0 0
1827 3 0 1.821135954105003 0 0 0 0
1826 1 1.577149999999996 2.731703931157 1.7216000000000022 0 0 0
1833 3 3.154299999999999 1.821135954105003 0 0 0 0
1832 1 4.731449999999995 2.731703931157 1.7216000000000022 0 0 0
1839 3 6.308599999999998 1.821135954105003 0 0 0 0
1838 1 7.885750000000002 2.731703931157 1.7216000000000022 0 0 0
1845 3 9.462899999999998 1.821135954105003 0 0 0 0
1851 3 12.617199999999997 1.821135954105003 0 0 0 0
1844 1 11.04005 2.731703931157 1.7216000000000022 0 0 0
1850 1 14.19435 2.731703931157 1.7216000000000022 0 0 0
1857 3 15.771500000000003 1.821135954105003 0 0 0 0
1856 1 17.348649999999992 2.731703931157 1.7216000000000022 0 0 0
1863 3 18.925799999999995 1.821135954105003 0 0 0 0
1862 1 20.50295 2.731703931157 1.7216000000000022 0 0 0
1869 3 22.0801 1.821135954105003 0 0 0 0
1875 3 25.234399999999994 1.821135954105003 0 0 0 0
1868 1 23.657250000000005 2.731703931157 1.7216000000000022 0 0 0
1874 1 26.811549999999997 2.731703931157 1.7216000000000022 0 0 0
1881 3 28.3887 1.821135954105003 0 0 0 0
1880 1 29.965850000000003 2.731703931157 1.7216000000000022 0 0 0
1887 3 31.542999999999992 1.821135954105003 0 0 0 0
1886 1 33.120149999999995 2.731703931157 1.7216000000000022 0 0 0
1893 3 34.6973 1.821135954105003 0 0 0 0
1892 1 36.27445 2.731703931157 1.7216000000000022 0 0 0
1899 3 37.851600000000005 1.821135954105003 0 0 0 0
1898 1 39.428749999999994 2.731703931157 1.7216000000000022 0 0 0
1905 3 41.0059 1.821135954105003 0 0 0 0
1904 1 42.58305 2.731703931157 1.7216000000000022 0 0 0
1911 3 44.1602 1.821135954105003 0 0 0 0
1910 1 45.73734999999999 2.731703931157 1.7216000000000022 0 0 0
1917 3 47.314499999999995 1.821135954105003 0 0 0 0
1916 1 48.89165 2.731703931157 1.7216000000000022 0 0 0
1731 3 50.4688 1.821135954105003 0 -1 0 0
1730 1 52.045950000000005 2.731703931157 1.7216000000000022 -1 0 0
1737 3 53.6231 1.821135954105003 0 -1 0 0
1736 1 55.200250000000004 2.731703931157 1.7216000000000022 -1 0 0
1743 3 56.7774 1.821135954105003 0 -1 0 0
1742 1 58.35455 2.731703931157 1.7216000000000022 -1 0 0
1749 3 59.9317 1.821135954105003 0 -1 0 0
1748 1 61.50885 2.731703931157 1.7216000000000022 -1 0 0
1755 3 63.086 1.821135954105003 0 -1 0 0
1754 1 64.66315 2.731703931157 1.7216000000000022 -1 0 0
1761 3 66.2403 1.821135954105003 0 -1 0 0
1760 1 67.81745000000001 2.731703931157 1.7216000000000022 -1 0 0
1767 3 69.3946 1.821135954105003 0 -1 0 0
1766 1 70.97175 2.731703931157 1.7216000000000022 -1 0 0
1773 3 72.5489 1.821135954105003 0 -1 0 0
1772 1 74.12605 2.731703931157 1.7216000000000022 -1 0 0
1779 3 75.70320000000001 1.821135954105003 0 -1 0 0
1778 1 77.28035 2.731703931157 1.7216000000000022 -1 0 0
1785 3 78.8575 1.821135954105003 0 -1 0 0
1784 1 80.43465 2.731703931157 1.7216000000000022 -1 0 0
1791 3 82.0118 1.821135954105003 0 -1 0 0
1790 1 83.58895000000001 2.731703931157 1.7216000000000022 -1 0 0
1797 3 85.1661 1.821135954105003 0 -1 0 0
1796 1 86.74325 2.731703931157 1.7216000000000022 -1 0 0
1803 3 88.3204 1.821135954105003 0 -1 0 0
1802 1 89.89755 2.731703931157 1.7216000000000022 -1 0 0
1809 3 91.4747 1.821135954105003 0 -1 0 0
1808 1 93.05185 2.731703931157 1.7216000000000022 -1 0 0
1815 3 94.629 1.821135954105003 0 -1 0 0
1814 1 96.20615000000001 2.731703931157 1.7216000000000022 -1 0 0
1821 3 97.7833 1.821135954105003 0 -1 0 0
1820 1 99.36045 2.731703931157 1.7216000000000022 -1 0 0
1828 3 1.577149999999996 4.552839885262003 0 0 0 0
1834 3 4.731449999999995 4.552839885262003 0 0 0 0
1840 3 7.885750000000002 4.552839885262003 0 0 0 0
1846 3 11.04005 4.552839885262003 0 0 0 0
1852 3 14.19435 4.552839885262003 0 0 0 0
1858 3 17.348649999999992 4.552839885262003 0 0 0 0
1864 3 20.50295 4.552839885262003 0 0 0 0
1870 3 23.657250000000005 4.552839885262003 0 0 0 0
1876 3 26.811549999999997 4.552839885262003 0 0 0 0
1882 3 29.965850000000003 4.552839885262003 0 0 0 0
1888 3 33.120149999999995 4.552839885262003 0 0 0 0
1894 3 36.27445 4.552839885262003 0 0 0 0
1900 3 39.428749999999994 4.552839885262003 0 0 0 0
1906 3 42.58305 4.552839885262003 0 0 0 0
1912 3 45.73734999999999 4.552839885262003 0 0 0 0
1918 3 48.89165 4.552839885262003 0 0 0 0
1732 3 52.045950000000005 4.552839885262003 0 -1 0 0
1738 3 55.200250000000004 4.552839885262003 0 -1 0 0
1744 3 58.35455 4.552839885262003 0 -1 0 0
1750 3 61.50885 4.552839885262003 0 -1 0 0
1756 3 64.66315 4.552839885262003 0 -1 0 0
1762 3 67.81745000000001 4.552839885262003 0 -1 0 0
1768 3 70.97175 4.552839885262003 0 -1 0 0
1774 3 74.12605 4.552839885262003 0 -1 0 0
1780 3 77.28035 4.552839885262003 0 -1 0 0
1786 3 80.43465 4.552839885262003 0 -1 0 0
1792 3 83.58895000000001 4.552839885262003 0 -1 0 0
1798 3 86.74325 4.552839885262003 0 -1 0 0
1804 3 89.89755 4.552839885262003 0 -1 0 0
1810 3 93.05185 4.552839885262003 0 -1 0 0
1816 3 96.20615000000001 4.552839885262003 0 -1 0 0
1822 3 99.36045 4.552839885262003 0 -1 0 0
2017 1 0 5.463407862314 1.7216000000000022 0 0 0
2023 1 3.154299999999999 5.463407862314 1.7216000000000022 0 0 0
2029 1 6.308599999999998 5.463407862314 1.7216000000000022 0 0 0
2035 1 9.462899999999998 5.463407862314 1.7216000000000022 0 0 0
2041 1 12.617199999999997 5.463407862314 1.7216000000000022 0 0 0
2047 1 15.771500000000003 5.463407862314 1.7216000000000022 0 0 0
2053 1 18.925799999999995 5.463407862314 1.7216000000000022 0 0 0
2059 1 22.0801 5.463407862314 1.7216000000000022 0 0 0
2065 1 25.234399999999994 5.463407862314 1.7216000000000022 0 0 0
2071 1 28.3887 5.463407862314 1.7216000000000022 0 0 0
2077 1 31.542999999999992 5.463407862314 1.7216000000000022 0 0 0
2083 1 34.6973 5.463407862314 1.7216000000000022 0 0 0
2089 1 37.851600000000005 5.463407862314 1.7216000000000022 0 0 0
2095 1 41.0059 5.463407862314 1.7216000000000022 0 0 0
2101 1 44.1602 5.463407862314 1.7216000000000022 0 0 0
2107 1 47.314499999999995 5.463407862314 1.7216000000000022 0 0 0
1921 1 50.4688 5.463407862314 1.7216000000000022 -1 0 0
1927 1 53.6231 5.463407862314 1.7216000000000022 -1 0 0
1933 1 56.7774 5.463407862314 1.7216000000000022 -1 0 0
1939 1 59.9317 5.463407862314 1.7216000000000022 -1 0 0
1945 1 63.086 5.463407862314 1.7216000000000022 -1 0 0
1951 1 66.2403 5.463407862314 1.7216000000000022 -1 0 0
1957 1 69.3946 5.463407862314 1.7216000000000022 -1 0 0
1963 1 72.5489 5.463407862314 1.7216000000000022 -1 0 0
1969 1 75.70320000000001 5.463407862314 1.7216000000000022 -1 0 0
1975 1 78.8575 5.463407862314 1.7216000000000022 -1 0 0
1981 1 82.0118 5.463407862314 1.7216000000000022 -1 0 0
1987 1 85.1661 5.463407862314 1.7216000000000022 -1 0 0
1993 1 88.3204 5.463407862314 1.7216000000000022 -1 0 0
1999 1 91.4747 5.463407862314 1.7216000000000022 -1 0 0
2005 1 94.629 5.463407862314 1.7216000000000022 -1 0 0
2011 1 97.7833 5.463407862314 1.7216000000000022 -1 0 0
2019 3 0 7.284543816419003 0 0 0 0
2018 1 1.577149999999996 8.195111793471 1.7216000000000022 0 0 0
2025 3 3.154299999999999 7.284543816419003 0 0 0 0
2024 1 4.731449999999995 8.195111793471 1.7216000000000022 0 0 0
2031 3 6.308599999999998 7.284543816419003 0 0 0 0
2030 1 7.885750000000002 8.195111793471 1.7216000000000022 0 0 0
2037 3 9.462899999999998 7.284543816419003 0 0 0 0
2043 3 12.617199999999997 7.284543816419003 0 0 0 0
2036 1 11.04005 8.195111793471 1.7216000000000022 0 0 0
2042 1 14.19435 8.195111793471 1.7216000000000022 0 0 0
2049 3 15.771500000000003 7.284543816419003 0 0 0 0
2048 1 17.348649999999992 8.195111793471 1.7216000000000022 0 0 0
2055 3 18.925799999999995 7.284543816419003 0 0 0 0
2054 1 20.50295 8.195111793471 1.7216000000000022 0 0 0
2061 3 22.0801 7.284543816419003 0 0 0 0
2067 3 25.234399999999994 7.284543816419003 0 0 0 0
2060 1 23.657250000000005 8.195111793471 1.7216000000000022 0 0 0
2066 1 26.811549999999997 8.195111793471 1.7216000000000022 0 0 0
2073 3 28.3887 7.284543816419003 0 0 0 0
2072 1 29.965850000000003 8.195111793471 1.7216000000000022 0 0 0
2079 3 31.542999999999992 7.284543816419003 0 0 0 0
2078 1 33.120149999999995 8.195111793471 1.7216000000000022 0 0 0
2085 3 34.6973 7.284543816419003 0 0 0 0
2084 1 36.27445 8.195111793471 1.7216000000000022 0 0 0
2091 3 37.851600000000005 7.284543816419003 0 0 0 0
2090 1 39.428749999999994 8.195111793471 1.7216000000000022 0 0 0
2097 3 41.0059 7.284543816419003 0 0 0 0
2096 1 42.58305 8.195111793471 1.7216000000000022 0 0 0
2103 3 44.1602 7.284543816419003 0 0 0 0
2102 1 45.73734999999999 8.195111793471 1.7216000000000022 0 0 0
2109 3 47.314499999999995 7.284543816419003 0 0 0 0
2108 1 48.89165 8.195111793471 1.7216000000000022 0 0 0
1923 3 50.4688 7.284543816419003 0 -1 0 0
1922 1 52.045950000000005 8.195111793471 1.7216000000000022 -1 0 0
1929 3 53.6231 7.284543816419003 0 -1 0 0
1928 1 55.200250000000004 8.195111793471 1.7216000000000022 -1 0 0
1935 3 56.7774 7.284543816419003 0 -1 0 0
1934 1 58.35455 8.195111793471 1.7216000000000022 -1 0 0
1941 3 59.9317 7.284543816419003 0 -1 0 0
1940 1 61.50885 8.195111793471 1.7216000000000022 -1 0 0
1947 3 63.086 7.284543816419003 0 -1 0 0
1946 1 64.66315 8.195111793471 1.7216000000000022 -1 0 0
1953 3 66.2403 7.284543816419003 0 -1 0 0
1952 1 67.81745000000001 8.195111793471 1.7216000000000022 -1 0 0
1959 3 69.3946 7.284543816419003 0 -1 0 0
1958 1 70.97175 8.195111793471 1.7216000000000022 -1 0 0
1965 3 72.5489 7.284543816419003 0 -1 0 0
1964 1 74.12605 8.195111793471 1.7216000000000022 -1 0 0
1971 3 75.70320000000001 7.284543816419003 0 -1 0 0
1970 1 77.28035 8.195111793471 1.7216000000000022 -1 0 0
1977 3 78.8575 7.284543816419003 0 -1 0 0
1976 1 80.43465 8.195111793471 1.7216000000000022 -1 0 0
1983 3 82.0118 7.284543816419003 0 -1 0 0
1982 1 83.58895000000001 8.195111793471 1.7216000000000022 -1 0 0
1989 3 85.1661 7.284543816419003 0 -1 0 0
1988 1 86.74325 8.195111793471 1.7216000000000022 -1 0 0
1995 3 88.3204 7.284543816419003 0 -1 0 0
1994 1 89.89755 8.195111793471 1.7216000000000022 -1 0 0
2001 3 91.4747 7.284543816419003 0 -1 0 0
2000 1 93.05185 8.195111793471 1.7216000000000022 -1 0 0
2007 3 94.629 7.284543816419003 0 -1 0 0
2006 1 96.20615000000001 8.195111793471 1.7216000000000022 -1 0 0
2013 3 97.7833 7.284543816419003 0 -1 0 0
2012 1 99.36045 8.195111793471 1.7216000000000022 -1 0 0
2020 3 1.577149999999996 10.016247747576003 0 0 0 0
2026 3 4.731449999999995 10.016247747576003 0 0 0 0
2032 3 7.885750000000002 10.016247747576003 0 0 0 0
2038 3 11.04005 10.016247747576003 0 0 0 0
2044 3 14.19435 10.016247747576003 0 0 0 0
2050 3 17.348649999999992 10.016247747576003 0 0 0 0
2056 3 20.50295 10.016247747576003 0 0 0 0
2062 3 23.657250000000005 10.016247747576003 0 0 0 0
2068 3 26.811549999999997 10.016247747576003 0 0 0 0
2074 3 29.965850000000003 10.016247747576003 0 0 0 0
2080 3 33.120149999999995 10.016247747576003 0 0 0 0
2086 3 36.27445 10.016247747576003 0 0 0 0
2092 3 39.428749999999994 10.016247747576003 0 0 0 0
2098 3 42.58305 10.016247747576003 0 0 0 0
2104 3 45.73734999999999 10.016247747576003 0 0 0 0
2110 3 48.89165 10.016247747576003 0 0 0 0
1924 3 52.045950000000005 10.016247747576003 0 -1 0 0
1930 3 55.200250000000004 10.016247747576003 0 -1 0 0
1936 3 58.35455 10.016247747576003 0 -1 0 0
1942 3 61.50885 10.016247747576003 0 -1 0 0
1948 3 64.66315 10.016247747576003 0 -1 0 0
1954 3 67.81745000000001 10.016247747576003 0 -1 0 0
1960 3 70.97175 10.016247747576003 0 -1 0 0
1966 3 74.12605 10.016247747576003 0 -1 0 0
1972 3 77.28035 10.016247747576003 0 -1 0 0
1978 3 80.43465 10.016247747576003 0 -1 0 0
1984 3 83.58895000000001 10.016247747576003 0 -1 0 0
1990 3 86.74325 10.016247747576003 0 -1 0 0
1996 3 89.89755 10.016247747576003 0 -1 0 0
2002 3 93.05185 10.016247747576003 0 -1 0 0
2008 3 96.20615000000001 10.016247747576003 0 -1 0 0
2014 3 99.36045 10.016247747576003 0 -1 0 0
2209 1 0 10.926815724628 1.7216000000000022 0 0 0
2215 1 3.154299999999999 10.926815724628 1.7216000000000022 0 0 0
2221 1 6.308599999999998 10.926815724628 1.7216000000000022 0 0 0
2227 1 9.462899999999998 10.926815724628 1.7216000000000022 0 0 0
2233 1 12.617199999999997 10.926815724628 1.7216000000000022 0 0 0
2239 1 15.771500000000003 10.926815724628 1.7216000000000022 0 0 0
2245 1 18.925799999999995 10.926815724628 1.7216000000000022 0 0 0
2251 1 22.0801 10.926815724628 1.7216000000000022 0 0 0
2257 1 25.234399999999994 10.926815724628 1.7216000000000022 0 0 0
2263 1 28.3887 10.926815724628 1.7216000000000022 0 0 0
2269 1 31.542999999999992 10.926815724628 1.7216000000000022 0 0 0
2275 1 34.6973 10.926815724628 1.7216000000000022 0 0 0
2281 1 37.851600000000005 10.926815724628 1.7216000000000022 0 0 0
2287 1 41.0059 10.926815724628 1.7216000000000022 0 0 0
2293 1 44.1602 10.926815724628 1.7216000000000022 0 0 0
2299 1 47.314499999999995 10.926815724628 1.7216000000000022 0 0 0
2113 1 50.4688 10.926815724628 1.7216000000000022 -1 0 0
2119 1 53.6231 10.926815724628 1.7216000000000022 -1 0 0
2125 1 56.7774 10.926815724628 1.7216000000000022 -1 0 0
2131 1 59.9317 10.926815724628 1.7216000000000022 -1 0 0
2137 1 63.086 10.926815724628 1.7216000000000022 -1 0 0
2143 1 66.2403 10.926815724628 1.7216000000000022 -1 0 0
2149 1 69.3946 10.926815724628 1.7216000000000022 -1 0 0
2155 1 72.5489 10.926815724628 1.7216000000000022 -1 0 0
2161 1 75.70320000000001 10.926815724628 1.7216000000000022 -1 0 0
2167 1 78.8575 10.926815724628 1.7216000000000022 -1 0 0
2173 1 82.0118 10.926815724628 1.7216000000000022 -1 0 0
2179 1 85.1661 10.926815724628 1.7216000000000022 -1 0 0
2185 1 88.3204 10.926815724628 1.7216000000000022 -1 0 0
2191 1 91.4747 10.926815724628 1.7216000000000022 -1 0 0
2197 1 94.629 10.926815724628 1.7216000000000022 -1 0 0
2203 1 97.7833 10.926815724628 1.7216000000000022 -1 0 0
2211 3 0 12.747951678733003 0 0 0 0
2210 1 1.577149999999996 13.658519655785 1.7216000000000022 0 0 0
2217 3 3.154299999999999 12.747951678733003 0 0 0 0
2216 1 4.731449999999995 13.658519655785 1.7216000000000022 0 0 0
2223 3 6.308599999999998 12.747951678733003 0 0 0 0
2222 1 7.885750000000002 13.658519655785 1.7216000000000022 0 0 0
2229 3 9.462899999999998 12.747951678733003 0 0 0 0
2235 3 12.617199999999997 12.747951678733003 0 0 0 0
2228 1 11.04005 13.658519655785 1.7216000000000022 0 0 0
2234 1 14.19435 13.658519655785 1.7216000000000022 0 0 0
2241 3 15.771500000000003 12.747951678733003 0 0 0 0
2240 1 17.348649999999992 13.658519655785 1.7216000000000022 0 0 0
2247 3 18.925799999999995 12.747951678733003 0 0 0 0
2246 1 20.50295 13.658519655785 1.7216000000000022 0 0 0
2253 3 22.0801 12.747951678733003 0 0 0 0
2259 3 25.234399999999994 12.747951678733003 0 0 0 0
2252 1 23.657250000000005 13.658519655785 1.7216000000000022 0 0 0
2258 1 26.811549999999997 13.658519655785 1.7216000000000022 0 0 0
2265 3 28.3887 12.747951678733003 0 0 0 0
2264 1 29.965850000000003 13.658519655785 1.7216000000000022 0 0 0
2271 3 31.542999999999992 12.747951678733003 0 0 0 0
2270 1 33.120149999999995 13.658519655785 1.7216000000000022 0 0 0
2277 3 34.6973 12.747951678733003 0 0 0 0
2276 1 36.27445 13.658519655785 1.7216000000000022 0 0 0
2283 3 37.851600000000005 12.747951678733003 0 0 0 0
2282 1 39.428749999999994 13.658519655785 1.7216000000000022 0 0 0
2289 3 41.0059 12.747951678733003 0 0 0 0
2288 1 42.58305 13.658519655785 1.7216000000000022 0 0 0
2295 3 44.1602 12.747951678733003 0 0 0 0
2294 1 45.73734999999999 13.658519655785 1.7216000000000022 0 0 0
2301 3 47.314499999999995 12.747951678733003 0 0 0 0
2300 1 48.89165 13.658519655785 1.7216000000000022 0 0 0
2115 3 50.4688 12.747951678733003 0 -1 0 0
2114 1 52.045950000000005 13.658519655785 1.7216000000000022 -1 0 0
2121 3 53.6231 12.747951678733003 0 -1 0 0
2120 1 55.200250000000004 13.658519655785 1.7216000000000022 -1 0 0
2127 3 56.7774 12.747951678733003 0 -1 0 0
2126 1 58.35455 13.658519655785 1.7216000000000022 -1 0 0
2133 3 59.9317 12.747951678733003 0 -1 0 0
2132 1 61.50885 13.658519655785 1.7216000000000022 -1 0 0
2139 3 63.086 12.747951678733003 0 -1 0 0
2138 1 64.66315 13.658519655785 1.7216000000000022 -1 0 0
2145 3 66.2403 12.747951678733003 0 -1 0 0
2144 1 67.81745000000001 13.658519655785 1.7216000000000022 -1 0 0
2151 3 69.3946 12.747951678733003 0 -1 0 0
2150 1 70.97175 13.658519655785 1.7216000000000022 -1 0 0
2157 3 72.5489 12.747951678733003 0 -1 0 0
2156 1 74.12605 13.658519655785 1.7216000000000022 -1 0 0
2163 3 75.70320000000001 12.747951678733003 0 -1 0 0
2162 1 77.28035 13.658519655785 1.7216000000000022 -1 0 0
2169 3 78.8575 12.747951678733003 0 -1 0 0
2168 1 80.43465 13.658519655785 1.7216000000000022 -1 0 0
2175 3 82.0118 12.747951678733003 0 -1 0 0
2174 1 83.58895000000001 13.658519655785 1.7216000000000022 -1 0 0
2181 3 85.1661 12.747951678733003 0 -1 0 0
2180 1 86.74325 13.658519655785 1.7216000000000022 -1 0 0
2187 3 88.3204 12.747951678733003 0 -1 0 0
2186 1 89.89755 13.658519655785 1.7216000000000022 -1 0 0
2193 3 91.4747 12.747951678733003 0 -1 0 0
2192 1 93.05185 13.658519655785 1.7216000000000022 -1 0 0
2199 3 94.629 12.747951678733003 0 -1 0 0
2198 1 96.20615000000001 13.658519655785 1.7216000000000022 -1 0 0
2205 3 97.7833 12.747951678733003 0 -1 0 0
2204 1 99.36045 13.658519655785 1.7216000000000022 -1 0 0
2212 3 1.577149999999996 15.479655609890003 0 0 0 0
2218 3 4.731449999999995 15.479655609890003 0 0 0 0
2224 3 7.885750000000002 15.479655609890003 0 0 0 0
2230 3 11.04005 15.479655609890003 0 0 0 0
2236 3 14.19435 15.479655609890003 0 0 0 0
2242 3 17.348649999999992 15.479655609890003 0 0 0 0
2248 3 20.50295 15.479655609890003 0 0 0 0
2254 3 23.657250000000005 15.479655609890003 0 0 0 0
2260 3 26.811549999999997 15.479655609890003 0 0 0 0
2266 3 29.965850000000003 15.479655609890003 0 0 0 0
2272 3 33.120149999999995 15.479655609890003 0 0 0 0
2278 3 36.27445 15.479655609890003 0 0 0 0
2284 3 39.428749999999994 15.479655609890003 0 0 0 0
2290 3 42.58305 15.479655609890003 0 0 0 0
2296 3 45.73734999999999 15.479655609890003 0 0 0 0
2302 3 48.89165 15.479655609890003 0 0 0 0
2116 3 52.045950000000005 15.479655609890003 0 -1 0 0
2122 3 55.200250000000004 15.479655609890003 0 -1 0 0
2128 3 58.35455 15.479655609890003 0 -1 0 0
2134 3 61.50885 15.479655609890003 0 -1 0 0
2140 3 64.66315 15.479655609890003 0 -1 0 0
2146 3 67.81745000000001 15.479655609890003 0 -1 0 0
2152 3 70.97175 15.479655609890003 0 -1 0 0
2158 3 74.12605 15.479655609890003 0 -1 0 0
2164 3 77.28035 15.479655609890003 0 -1 0 0
2170 3 80.43465 15.479655609890003 0 -1 0 0
2176 3 83.58895000000001 15.479655609890003 0 -1 0 0
2182 3 86.74325 15.479655609890003 0 -1 0 0
2188 3 89.89755 15.479655609890003 0 -1 0 0
2194 3 93.05185 15.479655609890003 0 -1 0 0
2200 3 96.20615000000001 15.479655609890003 0 -1 0 0
2206 3 99.36045 15.479655609890003 0 -1 0 0
2401 1 0 16.390223586942 1.7216000000000022 0 0 0
2407 1 3.154299999999999 16.390223586942 1.7216000000000022 0 0 0
2413 1 6.308599999999998 16.390223586942 1.7216000000000022 0 0 0
2419 1 9.462899999999998 16.390223586942 1.7216000000000022 0 0 0
2425 1 12.617199999999997 16.390223586942 1.7216000000000022 0 0 0
2431 1 15.771500000000003 16.390223586942 1.7216000000000022 0 0 0
2437 1 18.925799999999995 16.390223586942 1.7216000000000022 0 0 0
2443 1 22.0801 16.390223586942 1.7216000000000022 0 0 0
2449 1 25.234399999999994 16.390223586942 1.7216000000000022 0 0 0
2455 1 28.3887 16.390223586942 1.7216000000000022 0 0 0
2461 1 31.542999999999992 16.390223586942 1.7216000000000022 0 0 0
2467 1 34.6973 16.390223586942 1.7216000000000022 0 0 0
2473 1 37.851600000000005 16.390223586942 1.7216000000000022 0 0 0
2479 1 41.0059 16.390223586942 1.7216000000000022 0 0 0
2485 1 44.1602 16.390223586942 1.7216000000000022 0 0 0
2491 1 47.314499999999995 16.390223586942 1.7216000000000022 0 0 0
2305 1 50.4688 16.390223586942 1.7216000000000022 -1 0 0
2311 1 53.6231 16.390223586942 1.7216000000000022 -1 0 0
2317 1 56.7774 16.390223586942 1.7216000000000022 -1 0 0
2323 1 59.9317 16.390223586942 1.7216000000000022 -1 0 0
2329 1 63.086 16.390223586942 1.7216000000000022 -1 0 0
2335 1 66.2403 16.390223586942 1.7216000000000022 -1 0 0
2341 1 69.3946 16.390223586942 1.7216000000000022 -1 0 0
2347 1 72.5489 16.390223586942 1.7216000000000022 -1 0 0
2353 1 75.70320000000001 16.390223586942 1.7216000000000022 -1 0 0
2359 1 78.8575 16.390223586942 1.7216000000000022 -1 0 0
2365 1 82.0118 16.390223586942 1.7216000000000022 -1 0 0
2371 1 85.1661 16.390223586942 1.7216000000000022 -1 0 0
2377 1 88.3204 16.390223586942 1.7216000000000022 -1 0 0
2383 1 91.4747 16.390223586942 1.7216000000000022 -1 0 0
2389 1 94.629 16.390223586942 1.7216000000000022 -1 0 0
2395 1 97.7833 16.390223586942 1.7216000000000022 -1 0 0
2403 3 0 18.211359541047003 0 0 0 0
2402 1 1.577149999999996 19.121927518099 1.7216000000000022 0 0 0
2409 3 3.154299999999999 18.211359541047003 0 0 0 0
2408 1 4.731449999999995 19.121927518099 1.7216000000000022 0 0 0
2415 3 6.308599999999998 18.211359541047003 0 0 0 0
2414 1 7.885750000000002 19.121927518099 1.7216000000000022 0 0 0
2421 3 9.462899999999998 18.211359541047003 0 0 0 0
2427 3 12.617199999999997 18.211359541047003 0 0 0 0
2420 1 11.04005 19.121927518099 1.7216000000000022 0 0 0
2426 1 14.19435 19.121927518099 1.7216000000000022 0 0 0
2433 3 15.771500000000003 18.211359541047003 0 0 0 0
2432 1 17.348649999999992 19.121927518099 1.7216000000000022 0 0 0
2439 3 18.925799999999995 18.211359541047003 0 0 0 0
2438 1 20.50295 19.121927518099 1.7216000000000022 0 0 0
2445 3 22.0801 18.211359541047003 0 0 0 0
2451 3 25.234399999999994 18.211359541047003 0 0 0 0
2444 1 23.657250000000005 19.121927518099 1.7216000000000022 0 0 0
2450 1 26.811549999999997 19.121927518099 1.7216000000000022 0 0 0
2457 3 28.3887 18.211359541047003 0 0 0 0
2456 1 29.965850000000003 19.121927518099 1.7216000000000022 0 0 0
2463 3 31.542999999999992 18.211359541047003 0 0 0 0
2462 1 33.120149999999995 19.121927518099 1.7216000000000022 0 0 0
2469 3 34.6973 18.211359541047003 0 0 0 0
2468 1 36.27445 19.121927518099 1.7216000000000022 0 0 0
2475 3 37.851600000000005 18.211359541047003 0 0 0 0
2474 1 39.428749999999994 19.121927518099 1.7216000000000022 0 0 0
2481 3 41.0059 18.211359541047003 0 0 0 0
2480 1 42.58305 19.121927518099 1.7216000000000022 0 0 0
2487 3 44.1602 18.211359541047003 0 0 0 0
2486 1 45.73734999999999 19.121927518099 1.7216000000000022 0 0 0
2493 3 47.314499999999995 18.211359541047003 0 0 0 0
2492 1 48.89165 19.121927518099 1.7216000000000022 0 0 0
2307 3 50.4688 18.211359541047003 0 -1 0 0
2306 1 52.045950000000005 19.121927518099 1.7216000000000022 -1 0 0
2313 3 53.6231 18.211359541047003 0 -1 0 0
2312 1 55.200250000000004 19.121927518099 1.7216000000000022 -1 0 0
2319 3 56.7774 18.211359541047003 0 -1 0 0
2318 1 58.35455 19.121927518099 1.7216000000000022 -1 0 0
2325 3 59.9317 18.211359541047003 0 -1 0 0
2324 1 61.50885 19.121927518099 1.7216000000000022 -1 0 0
2331 3 63.086 18.211359541047003 0 -1 0 0
2330 1 64.66315 19.121927518099 1.7216000000000022 -1 0 0
2337 3 66.2403 18.211359541047003 0 -1 0 0
2336 1 67.81745000000001 19.121927518099 1.7216000000000022 -1 0 0
2343 3 69.3946 18.211359541047003 0 -1 0 0
2342 1 70.97175 19.121927518099 1.7216000000000022 -1 0 0
2349 3 72.5489 18.211359541047003 0 -1 0 0
2348 1 74.12605 19.121927518099 1.7216000000000022 -1 0 0
2355 3 75.70320000000001 18.211359541047003 0 -1 0 0
2354 1 77.28035 19.121927518099 1.7216000000000022 -1 0 0
2361 3 78.8575 18.211359541047003 0 -1 0 0
2360 1 80.43465 19.121927518099 1.7216000000000022 -1 0 0
2367 3 82.0118 18.211359541047003 0 -1 0 0
2366 1 83.58895000000001 19.121927518099 1.7216000000000022 -1 0 0
2373 3 85.1661 18.211359541047003 0 -1 0 0
2372 1 86.74325 19.121927518099 1.7216000000000022 -1 0 0
2379 3 88.3204 18.211359541047003 0 -1 0 0
2378 1 89.89755 19.121927518099 1.7216000000000022 -1 0 0
2385 3 91.4747 18.211359541047003 0 -1 0 0
2384 1 93.05185 19.121927518099 1.7216000000000022 -1 0 0
2391 3 94.629 18.211359541047003 0 -1 0 0
2390 1 96.20615000000001 19.121927518099 1.7216000000000022 -1 0 0
2397 3 97.7833 18.211359541047003 0 -1 0 0
2396 1 99.36045 19.121927518099 1.7216000000000022 -1 0 0
2404 3 1.577149999999996 20.943063472204003 0 0 0 0
2410 3 4.731449999999995 20.943063472204003 0 0 0 0
2416 3 7.885750000000002 20.943063472204003 0 0 0 0
2422 3 11.04005 20.943063472204003 0 0 0 0
2428 3 14.19435 20.943063472204003 0 0 0 0
2434 3 17.348649999999992 20.943063472204003 0 0 0 0
2440 3 20.50295 20.943063472204003 0 0 0 0
2446 3 23.657250000000005 20.943063472204003 0 0 0 0
2452 3 26.811549999999997 20.943063472204003 0 0 0 0
2458 3 29.965850000000003 20.943063472204003 0 0 0 0
2464 3 33.120149999999995 20.943063472204003 0 0 0 0
2470 3 36.27445 20.943063472204003 0 0 0 0
2476 3 39.428749999999994 20.943063472204003 0 0 0 0
2482 3 42.58305 20.943063472204003 0 0 0 0
2488 3 45.73734999999999 20.943063472204003 0 0 0 0
2494 3 48.89165 20.943063472204003 0 0 0 0
2308 3 52.045950000000005 20.943063472204003 0 -1 0 0
2314 3 55.200250000000004 20.943063472204003 0 -1 0 0
2320 3 58.35455 20.943063472204003 0 -1 0 0
2326 3 61.50885 20.943063472204003 0 -1 0 0
2332 3 64.66315 20.943063472204003 0 -1 0 0
2338 3 67.81745000000001 20.943063472204003 0 -1 0 0
2344 3 70.97175 20.943063472204003 0 -1 0 0
2350 3 74.12605 20.943063472204003 0 -1 0 0
2356 3 77.28035 20.943063472204003 0 -1 0 0
2362 3 80.43465 20.943063472204003 0 -1 0 0
2368 3 83.58895000000001 20.943063472204003 0 -1 0 0
2374 3 86.74325 20.943063472204003 0 -1 0 0
2380 3 89.89755 20.943063472204003 0 -1 0 0
2386 3 93.05185 20.943063472204003 0 -1 0 0
2392 3 96.20615000000001 20.943063472204003 0 -1 0 0
2398 3 99.36045 20.943063472204003 0 -1 0 0
2593 1 0 21.853631449256 1.7216000000000022 0 0 0
2599 1 3.154299999999999 21.853631449256 1.7216000000000022 0 0 0
2605 1 6.308599999999998 21.853631449256 1.7216000000000022 0 0 0
2611 1 9.462899999999998 21.853631449256 1.7216000000000022 0 0 0
2617 1 12.617199999999997 21.853631449256 1.7216000000000022 0 0 0
2623 1 15.771500000000003 21.853631449256 1.7216000000000022 0 0 0
2629 1 18.925799999999995 21.853631449256 1.7216000000000022 0 0 0
2635 1 22.0801 21.853631449256 1.7216000000000022 0 0 0
2641 1 25.234399999999994 21.853631449256 1.7216000000000022 0 0 0
2647 1 28.3887 21.853631449256 1.7216000000000022 0 0 0
2653 1 31.542999999999992 21.853631449256 1.7216000000000022 0 0 0
2659 1 34.6973 21.853631449256 1.7216000000000022 0 0 0
2665 1 37.851600000000005 21.853631449256 1.7216000000000022 0 0 0
2671 1 41.0059 21.853631449256 1.7216000000000022 0 0 0
2677 1 44.1602 21.853631449256 1.7216000000000022 0 0 0
2683 1 47.314499999999995 21.853631449256 1.7216000000000022 0 0 0
2497 1 50.4688 21.853631449256 1.7216000000000022 -1 0 0
2503 1 53.6231 21.853631449256 1.7216000000000022 -1 0 0
2509 1 56.7774 21.853631449256 1.7216000000000022 -1 0 0
2515 1 59.9317 21.853631449256 1.7216000000000022 -1 0 0
2521 1 63.086 21.853631449256 1.7216000000000022 -1 0 0
2527 1 66.2403 21.853631449256 1.7216000000000022 -1 0 0
2533 1 69.3946 21.853631449256 1.7216000000000022 -1 0 0
2539 1 72.5489 21.853631449256 1.7216000000000022 -1 0 0
2545 1 75.70320000000001 21.853631449256 1.7216000000000022 -1 0 0
2551 1 78.8575 21.853631449256 1.7216000000000022 -1 0 0
2557 1 82.0118 21.853631449256 1.7216000000000022 -1 0 0
2563 1 85.1661 21.853631449256 1.7216000000000022 -1 0 0
2569 1 88.3204 21.853631449256 1.7216000000000022 -1 0 0
2575 1 91.4747 21.853631449256 1.7216000000000022 -1 0 0
2581 1 94.629 21.853631449256 1.7216000000000022 -1 0 0
2587 1 97.7833 21.853631449256 1.7216000000000022 -1 0 0
2595 3 0 23.674767403361002 0 0 0 0
2594 1 1.577149999999996 24.585335380413 1.7216000000000022 0 0 0
2601 3 3.154299999999999 23.674767403361002 0 0 0 0
2600 1 4.731449999999995 24.585335380413 1.7216000000000022 0 0 0
2607 3 6.308599999999998 23.674767403361002 0 0 0 0
2606 1 7.885750000000002 24.585335380413 1.7216000000000022 0 0 0
2613 3 9.462899999999998 23.674767403361002 0 0 0 0
2619 3 12.617199999999997 23.674767403361002 0 0 0 0
2612 1 11.04005 24.585335380413 1.7216000000000022 0 0 0
2618 1 14.19435 24.585335380413 1.7216000000000022 0 0 0
2625 3 15.771500000000003 23.674767403361002 0 0 0 0
2624 1 17.348649999999992 24.585335380413 1.7216000000000022 0 0 0
2631 3 18.925799999999995 23.674767403361002 0 0 0 0
2630 1 20.50295 24.585335380413 1.7216000000000022 0 0 0
2637 3 22.0801 23.674767403361002 0 0 0 0