LAMMPS data file via write_data, version 29 Aug 2024, timestep = 6, units = metal

6912 atoms
6 atom types

0 100.9376 xlo xhi
0 98.341341521652 ylo yhi
-50 113.17487211487116 zlo zhi

Masses

1 97.90721000000001
2 97.90721000000001
3 78.971
4 78.971
5 78.971
6 78.971

Atoms # atomic

1825 1 4.238155825943312e-15 4.6128951889438217e-14 1.5785080535969953 0 0 0
1831 1 3.1542999999999974 4.349602695819268e-14 1.5785080535969962 0 0 0
1826 1 1.577149999999999 2.7317039311570297 1.578508053596998 0 0 0
1833 4 3.154299999999993 1.8211359541029657 -0.14510816456115527 0 0 0
1832 1 4.7314500000000015 2.7317039311570284 1.5785080535969975 0 0 0
1828 4 1.5771500000000038 4.552839885259969 -0.14510816456115286 0 0 0
1834 4 4.7314500000000095 4.552839885259968 -0.1451081645611511 0 0 0
2017 1 4.7409001827557705e-15 5.463407862314028 1.5785080535970013 0 0 0
2023 1 3.1542999999999974 5.463407862314029 1.5785080535970013 0 0 0
1837 1 6.308599999999998 4.38521051447768e-14 1.5785080535969966 0 0 0
1843 1 9.4629 4.455223265638976e-14 1.5785080535969953 0 0 0
1839 4 6.308599999999998 1.8211359541029652 -0.1451081645611538 0 0 0
1838 1 7.885749999999996 2.7317039311570293 1.5785080535969982 0 0 0
1845 4 9.462900000000007 1.8211359541029661 -0.14510816456115513 0 0 0
1844 1 11.040049999999992 2.73170393115703 1.578508053596997 0 0 0
1840 4 7.8857499999999865 4.552839885259969 -0.14510816456115136 0 0 0
1846 4 11.040049999999988 4.552839885259968 -0.145108164561152 0 0 0
2029 1 6.3085999999999975 5.463407862314027 1.578508053597003 0 0 0
2035 1 9.4629 5.463407862314028 1.5785080535970015 0 0 0
1849 1 12.617199999999997 4.6589659567276445e-14 1.5785080535969969 0 0 0
1855 1 15.771499999999998 4.715237942467326e-14 1.5785080535969969 0 0 0
1851 4 12.617200000000006 1.8211359541029701 -0.14510816456115008 0 0 0
1850 1 14.194349999999993 2.73170393115703 1.5785080535969984 0 0 0
1857 4 15.771499999999984 1.821135954102968 -0.14510816456115522 0 0 0
1856 1 17.34865000000001 2.7317039311570297 1.5785080535969969 0 0 0
1852 4 14.194349999999986 4.552839885259964 -0.145108164561153 0 0 0
1858 4 17.348650000000024 4.552839885259967 -0.14510816456115547 0 0 0
2041 1 12.617199999999995 5.463407862314027 1.578508053597001 0 0 0
2047 1 15.771499999999998 5.463407862314027 1.578508053597002 0 0 0
1861 1 18.92580000000001 4.4642470448940195e-14 1.5785080535969973 0 0 0
1867 1 22.08009999999999 4.4640424889311946e-14 1.5785080535969955 0 0 0
1863 4 18.92580000000002 1.8211359541029655 -0.14510816456115325 0 0 0
1862 1 20.50295 2.731703931157029 1.5785080535969975 0 0 0
1869 4 22.080099999999977 1.8211359541029661 -0.1451081645611531 0 0 0
1868 1 23.65724999999999 2.73170393115703 1.5785080535969975 0 0 0
1864 4 20.50295 4.552839885259971 -0.145108164561146 0 0 0
1870 4 23.657249999999973 4.552839885259967 -0.1451081645611556 0 0 0
2053 1 18.925800000000006 5.463407862314028 1.5785080535970009 0 0 0
2059 1 22.08009999999999 5.463407862314028 1.5785080535970009 0 0 0
1873 1 25.2344 4.673084600268974e-14 1.5785080535969975 0 0 0
1879 1 28.388699999999996 4.563738678506609e-14 1.5785080535969958 0 0 0
1875 4 25.234400000000022 1.8211359541029672 -0.14510816456115558 0 0 0
1874 1 26.81155 2.73170393115703 1.5785080535969978 0 0 0
1881 4 28.388699999999986 1.8211359541029681 -0.14510816456115036 0 0 0
1876 4 26.81155000000001 4.552839885259965 -0.14510816456114972 0 0 0
2065 1 25.2344 5.463407862314027 1.5785080535970006 0 0 0
2071 1 28.388699999999996 5.463407862314027 1.5785080535970017 0 0 0
1885 1 31.543000000000006 4.4424030322014595e-14 1.5785080535969966 0 0 0
1891 1 34.697300000000006 4.595460239297375e-14 1.578508053596996 0 0 0
1880 1 29.965849999999996 2.73170393115703 1.5785080535969973 0 0 0
1887 4 31.543000000000024 1.821135954102965 -0.1451081645611576 0 0 0
1886 1 33.12015000000001 2.7317039311570293 1.5785080535969975 0 0 0
1893 4 34.6973 1.8211359541029686 -0.14510816456114442 0 0 0
1882 4 29.965849999999975 4.552839885259968 -0.14510816456115455 0 0 0
1888 4 33.12015000000002 4.552839885259964 -0.14510816456115064 0 0 0
2077 1 31.543000000000006 5.463407862314027 1.5785080535970015 0 0 0
2083 1 34.6973 5.463407862314026 1.5785080535970004 0 0 0
1897 1 37.85159999999998 4.519499074362222e-14 1.578508053596997 0 0 0
1903 1 41.005900000000004 4.4652906315565376e-14 1.5785080535969958 0 0 0
1892 1 36.27444999999999 2.73170393115703 1.5785080535969975 0 0 0
1899 4 37.85159999999996 1.8211359541029677 -0.14510816456115883 0 0 0
1898 1 39.42875000000001 2.7317039311570306 1.578508053596998 0 0 0
1905 4 41.005900000000004 1.8211359541029652 -0.1451081645611485 0 0 0
1894 4 36.27444999999998 4.552839885259962 -0.14510816456115103 0 0 0
1900 4 39.42875000000003 4.552839885259971 -0.14510816456115672 0 0 0
2089 1 37.85159999999998 5.463407862314028 1.5785080535970006 0 0 0
2095 1 41.005900000000004 5.463407862314027 1.578508053597001 0 0 0
1909 1 44.16019999999999 4.4129899942137295e-14 1.5785080535969984 0 0 0
1915 1 47.31450000000002 4.448026547401593e-14 1.5785080535969964 0 0 0
1904 1 42.58304999999999 2.7317039311570297 1.578508053596998 0 0 0
1911 4 44.16019999999997 1.8211359541029688 -0.14510816456115722 0 0 0
1910 1 45.73735000000001 2.7317039311570297 1.5785080535969969 0 0 0
1917 4 47.31450000000002 1.8211359541029626 -0.14510816456115272 0 0 0
1906 4 42.58304999999999 4.552839885259964 -0.14510816456114764 0 0 0
1912 4 45.737350000000035 4.552839885259968 -0.14510816456115755 0 0 0
2101 1 44.160199999999996 5.463407862314028 1.578508053597001 0 0 0
2107 1 47.31450000000002 5.463407862314028 1.5785080535970017 0 0 0
1729 1 50.468799999999995 4.4666301002421573e-14 1.5785080535969964 -1 0 0
1916 1 48.89165 2.731703931157029 1.5785080535969973 0 0 0
1731 4 50.46879999999999 1.8211359541029657 -0.14510816456115266 -1 0 0
1730 1 52.04594999999998 2.7317039311570293 1.5785080535969966 -1 0 0
1918 4 48.891650000000006 4.552839885259968 -0.14510816456114634 0 0 0
1732 4 52.04594999999997 4.552839885259966 -0.1451081645611529 -1 0 0
1921 1 50.468799999999995 5.463407862314028 1.5785080535970024 -1 0 0
1735 1 53.623099999999994 4.362345756162349e-14 1.5785080535969949 -1 0 0
1741 1 56.77740000000001 4.230459042652426e-14 1.5785080535969982 -1 0 0
1737 4 53.62310000000001 1.821135954102965 -0.1451081645611564 -1 0 0
1736 1 55.20024999999999 2.731703931157029 1.5785080535969975 -1 0 0
1743 4 56.777400000000014 1.8211359541029661 -0.14510816456115397 -1 0 0
1742 1 58.354549999999996 2.7317039311570284 1.5785080535969966 -1 0 0
1738 4 55.20024999999998 4.552839885259968 -0.14510816456115275 -1 0 0
1744 4 58.35454999999999 4.552839885259968 -0.1451081645611525 -1 0 0
1927 1 53.623099999999994 5.463407862314028 1.5785080535970009 -1 0 0
1933 1 56.77740000000001 5.463407862314028 1.5785080535970013 -1 0 0
1747 1 59.93170000000001 4.3542392410350147e-14 1.5785080535969958 -1 0 0
1753 1 63.08600000000001 4.405693267361034e-14 1.5785080535969966 -1 0 0
1749 4 59.93170000000002 1.8211359541029661 -0.14510816456115427 -1 0 0
1748 1 61.50885 2.731703931157029 1.578508053596997 -1 0 0
1755 4 63.08600000000002 1.8211359541029664 -0.14510816456115266 -1 0 0
1754 1 64.66314999999999 2.7317039311570297 1.5785080535969969 -1 0 0
1750 4 61.508849999999995 4.552839885259967 -0.14510816456115458 -1 0 0
1756 4 64.66315 4.55283988525997 -0.14510816456114892 -1 0 0
1939 1 59.93170000000001 5.463407862314029 1.5785080535970015 -1 0 0
1945 1 63.08600000000001 5.463407862314029 1.5785080535970026 -1 0 0
1759 1 66.2403 4.300822920373843e-14 1.5785080535969953 -1 0 0
1765 1 69.39460000000001 4.5972326537646285e-14 1.5785080535969978 -1 0 0
1761 4 66.24029999999998 1.8211359541029672 -0.14510816456115344 -1 0 0
1760 1 67.81745 2.7317039311570297 1.5785080535969973 -1 0 0
1767 4 69.39460000000004 1.8211359541029652 -0.14510816456115755 -1 0 0
1766 1 70.97175000000001 2.73170393115703 1.5785080535969984 -1 0 0
1762 4 67.81744999999997 4.552839885259965 -0.14510816456115552 -1 0 0
1768 4 70.97175000000003 4.552839885259966 -0.14510816456115222 -1 0 0
1951 1 66.2403 5.463407862314027 1.578508053597001 -1 0 0
1957 1 69.39460000000001 5.463407862314029 1.578508053597001 -1 0 0
1771 1 72.5489 4.7043042345734765e-14 1.5785080535969973 -1 0 0
1777 1 75.70319999999998 4.153391583287839e-14 1.5785080535969975 -1 0 0
1773 4 72.5489 1.8211359541029692 -0.14510816456114198 -1 0 0
1772 1 74.12604999999999 2.7317039311570297 1.5785080535969982 -1 0 0
1779 4 75.70319999999997 1.8211359541029657 -0.14510816456115372 -1 0 0
1774 4 74.12604999999996 4.552839885259966 -0.14510816456115186 -1 0 0
1963 1 72.5489 5.463407862314025 1.578508053597001 -1 0 0
1969 1 75.70319999999998 5.463407862314029 1.5785080535970015 -1 0 0
1783 1 78.85750000000002 4.094993667382876e-14 1.5785080535969942 -1 0 0
1789 1 82.01180000000001 3.744157822660738e-14 1.578508053596997 -1 0 0
1778 1 77.28035 2.7317039311570275 1.5785080535969982 -1 0 0
1785 4 78.8575 1.8211359541029637 -0.14510816456115916 -1 0 0
1784 1 80.43465 2.7317039311570275 1.578508053596999 -1 0 0
1791 4 82.01180000000006 1.8211359541029646 -0.14510816456115347 -1 0 0
1780 4 77.28035000000003 4.552839885259967 -0.14510816456115233 -1 0 0
1786 4 80.43464999999999 4.552839885259968 -0.14510816456114528 -1 0 0
1975 1 78.85750000000002 5.463407862314029 1.5785080535970029 -1 0 0
1981 1 82.01180000000002 5.463407862314027 1.5785080535970013 -1 0 0
1795 1 85.1661 4.5252476700296986e-14 1.5785080535969978 -1 0 0
1801 1 88.3204 4.509367206360359e-14 1.5785080535969973 -1 0 0
1790 1 83.58894999999998 2.731703931157029 1.5785080535969969 -1 0 0
1797 4 85.16610000000001 1.8211359541029672 -0.1451081645611461 -1 0 0
1796 1 86.74324999999999 2.7317039311570297 1.5785080535969975 -1 0 0
1803 4 88.32039999999998 1.8211359541029655 -0.14510816456115383 -1 0 0
1792 4 83.58894999999994 4.5528398852599645 -0.14510816456115314 -1 0 0
1798 4 86.74325 4.552839885259966 -0.14510816456115821 -1 0 0
1987 1 85.1661 5.4634078623140265 1.5785080535970004 -1 0 0
1993 1 88.3204 5.463407862314028 1.5785080535970022 -1 0 0
1807 1 91.47470000000001 4.368811010744127e-14 1.5785080535969964 -1 0 0
1813 1 94.62899999999999 4.364394386867795e-14 1.5785080535969975 -1 0 0
1802 1 89.89755000000002 2.73170393115703 1.5785080535969962 -1 0 0
1809 4 91.47470000000004 1.8211359541029684 -0.1451081645611538 -1 0 0
1808 1 93.05185 2.7317039311570275 1.5785080535969973 -1 0 0
1815 4 94.62899999999996 1.8211359541029681 -0.1451081645611538 -1 0 0
1804 4 89.89755000000004 4.552839885259968 -0.1451081645611553 -1 0 0
1810 4 93.05185 4.552839885259969 -0.14510816456114298 -1 0 0
1999 1 91.47470000000001 5.463407862314029 1.5785080535970013 -1 0 0
2005 1 94.62899999999999 5.463407862314029 1.578508053597002 -1 0 0
1827 4 100.93759999999999 1.82113595410297 -0.14510816456114858 -1 0 0
1819 1 97.78330000000001 4.5461832935363906e-14 1.5785080535969966 -1 0 0
1814 1 96.20614999999998 2.7317039311570297 1.5785080535969966 -1 0 0
1821 4 97.78330000000003 1.8211359541029641 -0.14510816456115566 -1 0 0
1820 1 99.36045 2.7317039311570306 1.5785080535969982 -1 0 0
1816 4 96.20614999999997 4.552839885259968 -0.14510816456115577 -1 0 0
1822 4 99.36045000000001 4.5528398852599645 -0.1451081645611534 -1 0 0
2011 1 97.7833 5.463407862314027 1.5785080535970013 -1 0 0
2018 1 1.5771499999999974 8.19511179347103 1.5785080535970049 0 0 0
2025 4 3.154299999999992 7.284543816416966 -0.14510816456115008 0 0 0
2024 1 4.731450000000001 8.19511179347103 1.5785080535970033 0 0 0
2020 4 1.5771500000000032 10.016247747573964 -0.1451081645611494 0 0 0
2026 4 4.7314500000000095 10.016247747573964 -0.14510816456114772 0 0 0
2209 1 4.313880645484375e-15 10.926815724628026 1.578508053597001 0 0 0
2215 1 3.154299999999997 10.926815724628025 1.578508053597002 0 0 0
2031 4 6.308599999999998 7.284543816416962 -0.14510816456114883 0 0 0
2030 1 7.885749999999996 8.19511179347103 1.578508053597003 0 0 0
2037 4 9.462900000000007 7.284543816416965 -0.14510816456114922 0 0 0
2036 1 11.040049999999994 8.19511179347103 1.578508053597005 0 0 0
2032 4 7.885749999999987 10.016247747573964 -0.14510816456114745 0 0 0
2038 4 11.040049999999987 10.016247747573964 -0.14510816456114875 0 0 0
2221 1 6.3085999999999975 10.926815724628025 1.5785080535970004 0 0 0
2227 1 9.4629 10.926815724628025 1.578508053597002 0 0 0
2043 4 12.617200000000004 7.284543816416969 -0.14510816456114597 0 0 0
2042 1 14.194349999999993 8.195111793471032 1.5785080535970046 0 0 0
2049 4 15.771499999999982 7.284543816416966 -0.14510816456115078 0 0 0
2048 1 17.348650000000006 8.19511179347103 1.5785080535970037 0 0 0
2044 4 14.194349999999986 10.016247747573962 -0.14510816456114847 0 0 0
2050 4 17.348650000000024 10.016247747573964 -0.14510816456115164 0 0 0
2233 1 12.617199999999995 10.926815724628026 1.5785080535970015 0 0 0
2239 1 15.771499999999998 10.926815724628026 1.578508053597001 0 0 0
2055 4 18.92580000000002 7.284543816416963 -0.14510816456114756 0 0 0
2054 1 20.50295 8.19511179347103 1.5785080535970046 0 0 0
2061 4 22.080099999999977 7.284543816416962 -0.14510816456114808 0 0 0
2060 1 23.65724999999999 8.19511179347103 1.5785080535970035 0 0 0
2056 4 20.50295 10.016247747573965 -0.14510816456114323 0 0 0
2062 4 23.65724999999997 10.016247747573964 -0.1451081645611524 0 0 0
2245 1 18.925800000000006 10.926815724628025 1.5785080535970015 0 0 0
2251 1 22.08009999999999 10.926815724628026 1.5785080535970006 0 0 0
2067 4 25.234400000000026 7.284543816416967 -0.14510816456115136 0 0 0
2066 1 26.81155 8.19511179347103 1.578508053597004 0 0 0
2073 4 28.388699999999986 7.284543816416964 -0.14510816456114617 0 0 0
2068 4 26.81155000000001 10.016247747573965 -0.1451081645611463 0 0 0
2257 1 25.2344 10.926815724628026 1.5785080535970017 0 0 0
2263 1 28.388699999999996 10.926815724628025 1.5785080535970022 0 0 0
2072 1 29.965849999999996 8.19511179347103 1.5785080535970042 0 0 0
2079 4 31.543000000000024 7.284543816416965 -0.1451081645611512 0 0 0
2078 1 33.12015000000001 8.195111793471032 1.5785080535970042 0 0 0
2085 4 34.6973 7.284543816416968 -0.14510816456114095 0 0 0
2074 4 29.965849999999975 10.016247747573964 -0.14510816456115105 0 0 0
2080 4 33.12015000000002 10.016247747573962 -0.14510816456114736 0 0 0
2269 1 31.543000000000006 10.926815724628026 1.5785080535970024 0 0 0
2275 1 34.697300000000006 10.926815724628025 1.578508053597001 0 0 0
2084 1 36.27444999999999 8.195111793471032 1.5785080535970055 0 0 0
2091 4 37.851599999999955 7.284543816416966 -0.1451081645611536 0 0 0
2090 1 39.42875000000001 8.19511179347103 1.578508053597004 0 0 0
2097 4 41.00590000000001 7.284543816416963 -0.1451081645611444 0 0 0
2086 4 36.27444999999998 10.016247747573962 -0.14510816456114756 0 0 0
2092 4 39.42875000000003 10.016247747573965 -0.14510816456115308 0 0 0
2281 1 37.85159999999998 10.926815724628025 1.5785080535970006 0 0 0
2287 1 41.005900000000004 10.926815724628025 1.578508053597002 0 0 0
2096 1 42.58304999999999 8.19511179347103 1.5785080535970053 0 0 0
2103 4 44.16019999999997 7.284543816416968 -0.14510816456115197 0 0 0
2102 1 45.73735000000001 8.19511179347103 1.5785080535970042 0 0 0
2109 4 47.31450000000002 7.284543816416958 -0.14510816456114822 0 0 0
2098 4 42.58304999999999 10.016247747573962 -0.1451081645611451 0 0 0
2104 4 45.73735000000004 10.016247747573962 -0.14510816456115447 0 0 0
2293 1 44.160199999999996 10.926815724628025 1.5785080535970006 0 0 0
2299 1 47.31450000000002 10.926815724628025 1.5785080535970017 0 0 0
2108 1 48.89165 8.19511179347103 1.5785080535970024 0 0 0
1923 4 50.46879999999999 7.284543816416966 -0.1451081645611475 -1 0 0
1922 1 52.04594999999999 8.19511179347103 1.5785080535970037 -1 0 0
2110 4 48.891650000000006 10.016247747573964 -0.14510816456114248 0 0 0
1924 4 52.045949999999976 10.016247747573962 -0.1451081645611482 -1 0 0
2113 1 50.468799999999995 10.926815724628026 1.5785080535970009 -1 0 0
1929 4 53.62310000000001 7.2845438164169645 -0.14510816456115028 -1 0 0
1928 1 55.20025 8.19511179347103 1.5785080535970042 -1 0 0
1935 4 56.777400000000014 7.284543816416966 -0.14510816456114836 -1 0 0
1934 1 58.354549999999996 8.19511179347103 1.5785080535970042 -1 0 0
1930 4 55.20024999999999 10.016247747573964 -0.14510816456114933 -1 0 0
1936 4 58.35454999999999 10.016247747573964 -0.14510816456114842 -1 0 0
2119 1 53.623099999999994 10.926815724628025 1.5785080535970006 -1 0 0
2125 1 56.77740000000001 10.926815724628025 1.5785080535970009 -1 0 0
1941 4 59.93170000000002 7.284543816416966 -0.14510816456114917 -1 0 0
1940 1 61.50885 8.19511179347103 1.5785080535970046 -1 0 0
1947 4 63.08600000000002 7.284543816416966 -0.14510816456114675 -1 0 0
1946 1 64.66314999999999 8.19511179347103 1.5785080535970037 -1 0 0
1942 4 61.508849999999995 10.016247747573962 -0.1451081645611505 -1 0 0
1948 4 64.66315 10.016247747573965 -0.14510816456114467 -1 0 0
2131 1 59.93170000000001 10.926815724628026 1.5785080535970015 -1 0 0
2137 1 63.08600000000001 10.926815724628026 1.5785080535970015 -1 0 0
1953 4 66.24029999999998 7.2845438164169645 -0.1451081645611477 -1 0 0
1952 1 67.81745 8.19511179347103 1.5785080535970042 -1 0 0
1959 4 69.39460000000004 7.284543816416963 -0.1451081645611522 -1 0 0
1958 1 70.97175000000001 8.195111793471032 1.5785080535970053 -1 0 0
1954 4 67.81744999999997 10.01624774757396 -0.1451081645611517 -1 0 0
1960 4 70.97175000000003 10.016247747573965 -0.14510816456114925 -1 0 0
2143 1 66.2403 10.926815724628026 1.578508053597001 -1 0 0
2149 1 69.39460000000001 10.926815724628025 1.578508053597002 -1 0 0
1965 4 72.5489 7.284543816416969 -0.14510816456114042 -1 0 0
1964 1 74.12604999999999 8.195111793471032 1.5785080535970044 -1 0 0
1971 4 75.70319999999997 7.2845438164169645 -0.14510816456115005 -1 0 0
1966 4 74.12604999999998 10.016247747573965 -0.1451081645611487 -1 0 0
2155 1 72.5489 10.926815724628026 1.5785080535970013 -1 0 0
2161 1 75.70319999999998 10.926815724628026 1.5785080535970015 -1 0 0
1970 1 77.28035 8.19511179347103 1.578508053597005 -1 0 0
1977 4 78.8575 7.284543816416962 -0.14510816456115377 -1 0 0
1976 1 80.43465 8.195111793471028 1.578508053597003 -1 0 0
1983 4 82.01180000000006 7.2845438164169645 -0.1451081645611496 -1 0 0
1972 4 77.28035000000003 10.016247747573962 -0.14510816456114853 -1 0 0
1978 4 80.43464999999999 10.016247747573962 -0.1451081645611421 -1 0 0
2167 1 78.85750000000002 10.926815724628025 1.5785080535970026 -1 0 0
2173 1 82.01180000000002 10.926815724628025 1.578508053597002 -1 0 0
1982 1 83.58894999999998 8.19511179347103 1.5785080535970044 -1 0 0
1989 4 85.16610000000001 7.284543816416966 -0.14510816456114217 -1 0 0
1988 1 86.74324999999999 8.195111793471032 1.5785080535970046 -1 0 0
1995 4 88.32039999999998 7.2845438164169645 -0.14510816456114908 -1 0 0
1984 4 83.58894999999994 10.016247747573965 -0.14510816456114983 -1 0 0
1990 4 86.74325 10.016247747573965 -0.14510816456115433 -1 0 0
2179 1 85.1661 10.926815724628025 1.5785080535970009 -1 0 0
2185 1 88.3204 10.926815724628025 1.5785080535970029 -1 0 0
1994 1 89.89755000000002 8.19511179347103 1.5785080535970042 -1 0 0
2001 4 91.47470000000004 7.2845438164169645 -0.14510816456114797 -1 0 0
2000 1 93.05185 8.195111793471028 1.5785080535970035 -1 0 0
2007 4 94.62899999999996 7.2845438164169645 -0.14510816456114817 -1 0 0
1996 4 89.89755000000004 10.016247747573962 -0.14510816456115108 -1 0 0
2002 4 93.05185 10.016247747573965 -0.145108164561141 -1 0 0
2191 1 91.47470000000001 10.926815724628025 1.5785080535970009 -1 0 0
2197 1 94.62899999999999 10.926815724628025 1.5785080535970013 -1 0 0
2019 4 100.93759999999999 7.284543816416968 -0.14510816456114367 -1 0 0
2006 1 96.20614999999998 8.19511179347103 1.5785080535970037 -1 0 0
2013 4 97.78330000000004 7.2845438164169645 -0.14510816456115072 -1 0 0
2012 1 99.36045 8.195111793471032 1.5785080535970044 -1 0 0
2008 4 96.20614999999997 10.016247747573962 -0.14510816456115203 -1 0 0
2014 4 99.36045000000001 10.016247747573964 -0.14510816456114933 -1 0 0
2203 1 97.78330000000001 10.926815724628025 1.5785080535970013 -1 0 0
2210 1 1.5771499999999967 13.658519655785026 1.5785080535970006 0 0 0
2217 4 3.1542999999999926 12.747951678730956 -0.14510816456115397 0 0 0
2216 1 4.731450000000001 13.658519655785026 1.578508053597001 0 0 0
2212 4 1.5771500000000034 15.479655609887956 -0.14510816456115183 0 0 0
2218 4 4.731450000000009 15.479655609887955 -0.14510816456114953 0 0 0
2401 1 4.689429559544966e-15 16.39022358694203 1.5785080535970009 0 0 0
2407 1 3.154299999999998 16.390223586942035 1.5785080535970002 0 0 0
2223 4 6.3085999999999975 12.747951678730958 -0.14510816456115216 0 0 0
2222 1 7.885749999999996 13.658519655785028 1.5785080535970009 0 0 0
2229 4 9.462900000000005 12.747951678730956 -0.14510816456115314 0 0 0
2228 1 11.040049999999992 13.658519655785025 1.5785080535970002 0 0 0
2224 4 7.8857499999999865 15.479655609887956 -0.14510816456114933 0 0 0
2230 4 11.040049999999987 15.479655609887956 -0.14510816456115178 0 0 0
2413 1 6.308599999999997 16.39022358694203 1.5785080535970002 0 0 0
2419 1 9.4629 16.39022358694203 1.578508053597 0 0 0
2235 4 12.617200000000004 12.747951678730962 -0.1451081645611483 0 0 0
2234 1 14.194349999999993 13.658519655785023 1.5785080535970006 0 0 0
2241 4 15.771499999999982 12.74795167873096 -0.14510816456115322 0 0 0
2240 1 17.34865000000001 13.658519655785026 1.578508053597001 0 0 0
2236 4 14.194349999999988 15.479655609887956 -0.14510816456115255 0 0 0
2242 4 17.348650000000028 15.479655609887956 -0.14510816456115505 0 0 0
2425 1 12.617199999999995 16.39022358694203 1.5785080535970015 0 0 0
2431 1 15.7715 16.39022358694203 1.5785080535970009 0 0 0
2247 4 18.92580000000002 12.747951678730956 -0.1451081645611506 0 0 0
2246 1 20.50295 13.658519655785026 1.5785080535970013 0 0 0
2253 4 22.080099999999977 12.747951678730958 -0.14510816456115058 0 0 0
2252 1 23.65724999999999 13.658519655785023 1.5785080535970017 0 0 0
2248 4 20.50295 15.479655609887958 -0.14510816456114553 0 0 0
2254 4 23.657249999999973 15.479655609887956 -0.1451081645611563 0 0 0
2437 1 18.925800000000006 16.39022358694203 1.5785080535969995 0 0 0
2443 1 22.080099999999987 16.390223586942035 1.5785080535970006 0 0 0
2259 4 25.234400000000022 12.74795167873096 -0.14510816456115405 0 0 0
2258 1 26.81155 13.65851965578503 1.5785080535969997 0 0 0
2265 4 28.388699999999986 12.747951678730962 -0.1451081645611492 0 0 0
2260 4 26.81155000000001 15.479655609887956 -0.14510816456114875 0 0 0
2449 1 25.234400000000004 16.39022358694203 1.5785080535970004 0 0 0
2455 1 28.38869999999999 16.390223586942035 1.5785080535969995 0 0 0
2264 1 29.96585 13.658519655785023 1.5785080535970026 0 0 0
2271 4 31.543000000000024 12.747951678730958 -0.14510816456115475 0 0 0
2270 1 33.12015000000001 13.658519655785026 1.5785080535969993 0 0 0
2277 4 34.6973 12.747951678730962 -0.14510816456114384 0 0 0
2266 4 29.965849999999975 15.479655609887958 -0.14510816456115494 0 0 0
2272 4 33.12015000000002 15.479655609887955 -0.14510816456115044 0 0 0
2461 1 31.54300000000001 16.39022358694203 1.578508053597 0 0 0
2467 1 34.6973 16.390223586942035 1.5785080535970006 0 0 0
2276 1 36.27444999999999 13.658519655785026 1.5785080535970004 0 0 0
2283 4 37.85159999999996 12.747951678730958 -0.14510816456115722 0 0 0
2282 1 39.42875000000001 13.658519655785026 1.578508053597001 0 0 0
2289 4 41.005900000000004 12.747951678730958 -0.14510816456114756 0 0 0
2278 4 36.27444999999998 15.479655609887955 -0.14510816456115078 0 0 0
2284 4 39.42875000000003 15.479655609887958 -0.14510816456115644 0 0 0
2473 1 37.85159999999998 16.390223586942035 1.5785080535969989 0 0 0
2479 1 41.005900000000004 16.390223586942035 1.5785080535970002 0 0 0
2288 1 42.58304999999999 13.658519655785026 1.5785080535970015 0 0 0
2295 4 44.16019999999997 12.747951678730958 -0.1451081645611555 0 0 0
2294 1 45.73735000000001 13.658519655785026 1.578508053597002 0 0 0
2301 4 47.31450000000002 12.747951678730955 -0.14510816456115178 0 0 0
2290 4 42.58304999999999 15.479655609887956 -0.14510816456114672 0 0 0
2296 4 45.737350000000035 15.479655609887956 -0.14510816456115683 0 0 0
2485 1 44.16019999999999 16.39022358694203 1.578508053597 0 0 0
2491 1 47.31450000000002 16.390223586942035 1.5785080535970004 0 0 0
2300 1 48.89165 13.658519655785026 1.5785080535970006 0 0 0
2115 4 50.46879999999999 12.747951678730958 -0.14510816456115053 -1 0 0
2114 1 52.04594999999998 13.658519655785026 1.5785080535970002 -1 0 0
2302 4 48.891650000000006 15.479655609887956 -0.14510816456114461 0 0 0
2116 4 52.045949999999976 15.479655609887955 -0.14510816456115122 -1 0 0
2305 1 50.468799999999995 16.390223586942035 1.5785080535969995 -1 0 0
2121 4 53.62310000000001 12.747951678730956 -0.14510816456115408 -1 0 0
2120 1 55.20024999999999 13.658519655785026 1.578508053597002 -1 0 0
2127 4 56.777400000000014 12.747951678730958 -0.1451081645611517 -1 0 0
2126 1 58.354549999999996 13.658519655785025 1.5785080535970004 -1 0 0
2122 4 55.20024999999999 15.479655609887956 -0.14510816456115216 -1 0 0
2128 4 58.35454999999999 15.479655609887956 -0.1451081645611512 -1 0 0
2311 1 53.6231 16.39022358694203 1.5785080535969997 -1 0 0
2317 1 56.77740000000001 16.39022358694203 1.5785080535970004 -1 0 0
2133 4 59.93170000000001 12.747951678730958 -0.1451081645611519 -1 0 0
2132 1 61.50885 13.658519655785025 1.5785080535969997 -1 0 0
2139 4 63.08600000000002 12.747951678730958 -0.14510816456115003 -1 0 0
2138 1 64.66314999999999 13.658519655785026 1.5785080535970004 -1 0 0
2134 4 61.508849999999995 15.479655609887955 -0.14510816456115347 -1 0 0
2140 4 64.66315 15.479655609887956 -0.14510816456114745 -1 0 0
2323 1 59.93170000000001 16.39022358694203 1.5785080535970013 -1 0 0
2329 1 63.08600000000001 16.39022358694203 1.578508053597 -1 0 0
2145 4 66.24029999999998 12.74795167873096 -0.14510816456115158 -1 0 0
2144 1 67.81745 13.658519655785026 1.578508053597001 -1 0 0
2151 4 69.39460000000004 12.747951678730956 -0.1451081645611557 -1 0 0
2150 1 70.97175000000001 13.658519655785025 1.578508053597001 -1 0 0
2146 4 67.81744999999997 15.479655609887955 -0.14510816456115494 -1 0 0
2152 4 70.97175000000003 15.479655609887958 -0.14510816456115128 -1 0 0
2335 1 66.2403 16.390223586942035 1.5785080535970009 -1 0 0
2341 1 69.39460000000001 16.390223586942035 1.5785080535969989 -1 0 0
2157 4 72.5489 12.74795167873096 -0.14510816456114284 -1 0 0
2156 1 74.12604999999999 13.658519655785025 1.5785080535970009 -1 0 0
2163 4 75.70319999999997 12.747951678730958 -0.14510816456115394 -1 0 0
2158 4 74.12604999999996 15.479655609887958 -0.14510816456115164 -1 0 0
2347 1 72.5489 16.39022358694203 1.5785080535970002 -1 0 0
2353 1 75.70319999999998 16.39022358694203 1.5785080535970006 -1 0 0
2162 1 77.28035 13.658519655785025 1.5785080535970015 -1 0 0
2169 4 78.8575 12.74795167873096 -0.14510816456115824 -1 0 0
2168 1 80.43465 13.658519655785026 1.5785080535970009 -1 0 0
2175 4 82.01180000000006 12.74795167873096 -0.14510816456115247 -1 0 0
2164 4 77.28035000000003 15.479655609887955 -0.14510816456115264 -1 0 0
2170 4 80.43464999999999 15.47965560988796 -0.14510816456114448 -1 0 0
2359 1 78.85750000000002 16.390223586942035 1.5785080535969997 -1 0 0
2365 1 82.01180000000002 16.390223586942035 1.5785080535970013 -1 0 0
2174 1 83.58894999999998 13.658519655785025 1.578508053597001 -1 0 0
2181 4 85.16610000000001 12.747951678730956 -0.145108164561144 -1 0 0
2180 1 86.74324999999999 13.658519655785025 1.5785080535970015 -1 0 0
2187 4 88.32039999999998 12.747951678730958 -0.14510816456115186 -1 0 0
2176 4 83.58894999999994 15.479655609887956 -0.1451081645611521 -1 0 0
2182 4 86.74325 15.479655609887958 -0.1451081645611575 -1 0 0
2371 1 85.1661 16.39022358694203 1.578508053597 -1 0 0
2377 1 88.3204 16.390223586942035 1.578508053596999 -1 0 0
2186 1 89.89755000000002 13.658519655785026 1.5785080535970006 -1 0 0
2193 4 91.47470000000003 12.74795167873096 -0.14510816456115236 -1 0 0
2192 1 93.05185 13.658519655785026 1.5785080535970013 -1 0 0
2199 4 94.62899999999998 12.74795167873096 -0.14510816456115208 -1 0 0
2188 4 89.89755000000004 15.479655609887956 -0.1451081645611542 -1 0 0
2194 4 93.05185 15.47965560988796 -0.14510816456114292 -1 0 0
2383 1 91.47470000000001 16.390223586942035 1.5785080535970002 -1 0 0
2389 1 94.62899999999999 16.390223586942035 1.5785080535970004 -1 0 0
2211 4 100.93759999999999 12.74795167873096 -0.1451081645611467 -1 0 0
2198 1 96.20614999999998 13.658519655785026 1.5785080535970009 -1 0 0
2205 4 97.78330000000004 12.747951678730956 -0.14510816456115294 -1 0 0
2204 1 99.36045 13.658519655785026 1.5785080535970015 -1 0 0
2200 4 96.20614999999997 15.479655609887955 -0.14510816456115447 -1 0 0
2206 4 99.36045000000001 15.479655609887958 -0.14510816456115241 -1 0 0
2395 1 97.78330000000001 16.39022358694203 1.5785080535970004 -1 0 0
2402 1 1.577149999999999 19.12192751809903 1.578508053597001 0 0 0
2409 4 3.1542999999999926 18.211359541044946 -0.14510816456115203 0 0 0
2408 1 4.731450000000001 19.121927518099028 1.5785080535970006 0 0 0
2404 4 1.577150000000003 20.943063472201942 -0.14510816456115067 0 0 0
2410 4 4.731450000000009 20.943063472201942 -0.1451081645611483 0 0 0
2593 1 5.2663464024992864e-15 21.853631449256028 1.578508053597003 0 0 0
2599 1 3.1542999999999974 21.85363144925603 1.578508053597004 0 0 0
2415 4 6.308599999999998 18.211359541044942 -0.14510816456115022 0 0 0
2414 1 7.885749999999996 19.121927518099028 1.5785080535970013 0 0 0
2421 4 9.462900000000005 18.211359541044942 -0.14510816456115044 0 0 0
2420 1 11.040049999999994 19.121927518099028 1.5785080535970013 0 0 0
2416 4 7.885749999999987 20.943063472201942 -0.14510816456114808 0 0 0
2422 4 11.040049999999987 20.94306347220194 -0.14510816456114964 0 0 0
2605 1 6.3085999999999975 21.853631449256028 1.5785080535970024 0 0 0
2611 1 9.4629 21.853631449256028 1.5785080535970033 0 0 0
2427 4 12.617200000000006 18.21135954104495 -0.14510816456114786 0 0 0
2426 1 14.194349999999995 19.12192751809903 1.5785080535970002 0 0 0