LAMMPS data file via write_data, version 29 Aug 2024, timestep = 2, units = metal

7290 atoms
9 atom types

0 100.841154144948 xlo xhi
0 97.03444581828 ylo yhi
-50 50 zlo zhi

Masses

1 106.42
2 106.42
3 106.42
4 78.971
5 78.971
6 78.971
7 78.971
8 78.971
9 78.971

Atoms # atomic

1385 1 1.8667106628630594 3.2337465172384063 1.3110522445853587 0 0 0
1220 5 3.734845400109147 2.1563234768573016 0.036411771016493434 0 0 0
1391 1 5.6015682237870585 3.2337465172384063 1.3110522445853585 0 0 0
1381 5 1.867416619647147 5.390805004133302 0.036411771016495356 0 0 0
1387 5 5.602274180571147 5.390805004133301 0.03641177101649487 0 0 0
1222 4 1.8657601053815702 1.0764399719198652 2.5848640713352853 0 0 0
1228 4 5.60061766630557 1.0764399719198656 2.584864071335286 0 0 0
1383 4 3.7331888858435707 4.3109214991958655 2.5848640713352853 0 0 0
1226 5 7.469702961033146 2.156323476857301 0.03641177101649332 0 0 0
1397 1 9.336425784711057 3.2337465172384063 1.3110522445853587 0 0 0
1232 5 11.204560521957145 2.1563234768573016 0.03641177101649337 0 0 0
1393 5 9.337131741495146 5.390805004133301 0.03641177101649474 0 0 0
1234 4 9.33547522722957 1.0764399719198656 2.584864071335286 0 0 0
1389 4 7.468046446767569 4.310921499195866 2.5848640713352857 0 0 0
1395 4 11.202904007691567 4.3109214991958655 2.5848640713352853 0 0 0
1403 1 13.071283345635056 3.2337465172384063 1.3110522445853585 0 0 0
1238 5 14.939418082881145 2.156323476857302 0.03641177101649437 0 0 0
1409 1 16.806140906559058 3.2337465172384063 1.311052244585359 0 0 0
1399 5 13.071989302419144 5.390805004133302 0.036411771016495585 0 0 0
1405 5 16.806846863343146 5.390805004133302 0.03641177101649521 0 0 0
1240 4 13.070332788153568 1.0764399719198652 2.5848640713352857 0 0 0
1246 4 16.805190349077566 1.0764399719198652 2.5848640713352857 0 0 0
1401 4 14.937761568615569 4.3109214991958655 2.584864071335285 0 0 0
1244 5 18.674275643805146 2.156323476857301 0.03641177101649341 0 0 0
1415 1 20.540998467483057 3.2337465172384063 1.3110522445853585 0 0 0
1250 5 22.409133204729144 2.156323476857301 0.036411771016493434 0 0 0
1411 5 20.541704424267145 5.390805004133302 0.036411771016494926 0 0 0
1252 4 20.54004791000157 1.0764399719198654 2.584864071335286 0 0 0
1407 4 18.67261912953957 4.3109214991958655 2.5848640713352853 0 0 0
1413 4 22.407476690463568 4.3109214991958655 2.5848640713352853 0 0 0
1421 1 24.275856028407055 3.2337465172384063 1.3110522445853585 0 0 0
1256 5 26.143990765653143 2.156323476857302 0.03641177101649453 0 0 0
1427 1 28.010713589331058 3.2337465172384063 1.3110522445853583 0 0 0
1417 5 24.276561985191144 5.390805004133302 0.03641177101649484 0 0 0
1423 5 28.011419546115146 5.390805004133303 0.03641177101649639 0 0 0
1258 4 24.274905470925567 1.0764399719198654 2.584864071335286 0 0 0
1264 4 28.00976303184957 1.0764399719198645 2.5848640713352844 0 0 0
1419 4 26.142334251387567 4.310921499195865 2.5848640713352844 0 0 0
1262 5 29.87884832657715 2.156323476857302 0.03641177101649456 0 0 0
1433 1 31.74557115025506 3.2337465172384063 1.3110522445853583 0 0 0
1268 5 33.61370588750115 2.1563234768573016 0.03641177101649389 0 0 0
1439 1 35.48042871117906 3.2337465172384063 1.3110522445853583 0 0 0
1429 5 31.746277107039145 5.390805004133301 0.03641177101649445 0 0 0
1435 5 35.48113466796315 5.390805004133302 0.03641177101649489 0 0 0
1270 4 31.744620592773572 1.0764399719198656 2.5848640713352866 0 0 0
1276 4 35.47947815369757 1.0764399719198654 2.584864071335286 0 0 0
1425 4 29.87719181231157 4.310921499195865 2.5848640713352844 0 0 0
1431 4 33.61204937323557 4.3109214991958655 2.584864071335285 0 0 0
1274 5 37.348563448425146 2.1563234768573016 0.03641177101649351 0 0 0
1445 1 39.21528627210306 3.2337465172384063 1.3110522445853583 0 0 0
1280 5 41.083421009349145 2.1563234768573016 0.03641177101649351 0 0 0
1441 5 39.215992228887146 5.390805004133302 0.036411771016494905 0 0 0
1282 4 39.21433571462157 1.0764399719198654 2.584864071335286 0 0 0
1437 4 37.34690693415957 4.3109214991958655 2.5848640713352853 0 0 0
1443 4 41.08176449508357 4.3109214991958655 2.5848640713352853 0 0 0
1451 1 42.950143833027056 3.2337465172384063 1.3110522445853583 0 0 0
1286 5 44.818278570273144 2.156323476857301 0.03641177101649344 0 0 0
1457 1 46.685001393951055 3.2337465172384063 1.3110522445853585 0 0 0
1447 5 42.950849789811144 5.390805004133302 0.03641177101649491 0 0 0
1453 5 46.68570735073514 5.390805004133303 0.03641177101649632 0 0 0
1288 4 42.94919327554557 1.0764399719198654 2.584864071335286 0 0 0
1294 4 46.68405083646957 1.0764399719198643 2.5848640713352844 0 0 0
1449 4 44.81662205600757 4.3109214991958655 2.5848640713352857 0 0 0
1292 5 48.55313613119715 2.1563234768573025 0.03641177101649503 0 0 0
1301 1 50.41985895487506 3.2337465172384063 1.3110522445853585 -1 0 0
1136 5 52.28799369212115 2.156323476857302 0.036411771016494156 -1 0 0
1297 5 50.42056491165915 5.390805004133303 0.03641177101649665 -1 0 0
1138 4 50.41890839739357 1.076439971919864 2.5848640713352844 -1 0 0
1455 4 48.55147961693157 4.310921499195865 2.584864071335284 0 0 0
1299 4 52.28633717785557 4.3109214991958655 2.584864071335285 -1 0 0
1307 1 54.154716515799066 3.2337465172384063 1.3110522445853585 -1 0 0
1142 5 56.022851253045154 2.156323476857302 0.0364117710164942 -1 0 0
1313 1 57.889574076723065 3.2337465172384063 1.3110522445853585 -1 0 0
1303 5 54.155422472583155 5.390805004133301 0.03641177101649473 -1 0 0
1309 5 57.890280033507146 5.390805004133302 0.03641177101649515 -1 0 0
1144 4 54.15376595831757 1.0764399719198656 2.584864071335286 -1 0 0
1150 4 57.88862351924157 1.0764399719198652 2.5848640713352857 -1 0 0
1305 4 56.02119473877958 4.3109214991958655 2.584864071335285 -1 0 0
1148 5 59.75770881396915 2.156323476857302 0.03641177101649427 -1 0 0
1319 1 61.624431637647064 3.2337465172384063 1.3110522445853583 -1 0 0
1154 5 63.49256637489315 2.156323476857301 0.03641177101649348 -1 0 0
1315 5 61.62513759443115 5.390805004133302 0.03641177101649487 -1 0 0
1156 4 61.623481080165575 1.0764399719198654 2.584864071335286 -1 0 0
1311 4 59.756052299703576 4.3109214991958655 2.584864071335285 -1 0 0
1317 4 63.490909860627575 4.3109214991958655 2.5848640713352853 -1 0 0
1325 1 65.35928919857106 3.2337465172384063 1.3110522445853594 -1 0 0
1160 5 67.22742393581714 2.1563234768573025 0.03641177101649435 -1 0 0
1331 1 69.09414675949506 3.2337465172384063 1.3110522445853585 -1 0 0
1166 5 70.96228149674114 2.1563234768573007 0.03641177101649282 -1 0 0
1321 5 65.35999515535515 5.390805004133303 0.03641177101649636 -1 0 0
1327 5 69.09485271627915 5.390805004133302 0.03641177101649492 -1 0 0
1162 4 65.35833864108957 1.0764399719198643 2.584864071335285 -1 0 0
1168 4 69.09319620201357 1.0764399719198652 2.584864071335286 -1 0 0
1323 4 67.22576742155158 4.310921499195865 2.584864071335285 -1 0 0
1329 4 70.96062498247558 4.310921499195866 2.584864071335286 -1 0 0
1337 1 72.82900432041906 3.2337465172384063 1.3110522445853583 -1 0 0
1172 5 74.69713905766514 2.156323476857302 0.03641177101649427 -1 0 0
1343 1 76.56386188134306 3.233746517238405 1.311052244585357 -1 0 0
1333 5 72.82971027720315 5.390805004133302 0.03641177101649485 -1 0 0
1339 5 76.56456783812715 5.390805004133303 0.036411771016496286 -1 0 0
1174 4 72.82805376293757 1.0764399719198654 2.584864071335286 -1 0 0
1180 4 76.56291132386158 1.0764399719198645 2.5848640713352844 -1 0 0
1335 4 74.69548254339958 4.310921499195865 2.584864071335285 -1 0 0
1178 5 78.43199661858915 2.156323476857301 0.03641177101649333 -1 0 0
1349 1 80.29871944226706 3.2337465172384063 1.3110522445853585 -1 0 0
1184 5 82.16685417951315 2.1563234768573025 0.03641177101649501 -1 0 0
1345 5 80.29942539905116 5.390805004133302 0.03641177101649489 -1 0 0
1186 4 80.29776888478558 1.0764399719198654 2.584864071335286 -1 0 0
1341 4 78.43034010432358 4.3109214991958655 2.5848640713352853 -1 0 0
1347 4 82.16519766524758 4.310921499195865 2.5848640713352844 -1 0 0
1355 1 84.03357700319107 3.2337465172384077 1.3110522445853603 -1 0 0
1190 5 85.90171174043715 2.156323476857301 0.03641177101649344 -1 0 0
1361 1 87.76843456411507 3.2337465172384054 1.3110522445853567 -1 0 0
1351 5 84.03428295997514 5.390805004133303 0.03641177101649576 -1 0 0
1357 5 87.76914052089914 5.390805004133301 0.03641177101649414 -1 0 0
1192 4 84.03262644570958 1.0764399719198647 2.5848640713352853 -1 0 0
1198 4 87.76748400663358 1.0764399719198663 2.5848640713352866 -1 0 0
1353 4 85.90005522617157 4.3109214991958655 2.5848640713352853 -1 0 0
1196 5 89.63656930136115 2.156323476857301 0.03641177101649343 -1 0 0
1367 1 91.50329212503907 3.2337465172384077 1.3110522445853603 -1 0 0
1202 5 93.37142686228515 2.156323476857301 0.03641177101649344 -1 0 0
1363 5 91.50399808182314 5.390805004133303 0.03641177101649579 -1 0 0
1204 4 91.50234156755758 1.0764399719198647 2.5848640713352853 -1 0 0
1359 4 89.63491278709557 4.3109214991958655 2.5848640713352857 -1 0 0
1365 4 93.36977034801957 4.3109214991958655 2.5848640713352857 -1 0 0
1214 5 100.84114198413316 2.1563234768573025 0.03641177101649506 -1 0 0
1377 4 100.83948546986757 4.310921499195865 2.584864071335284 -1 0 0
1373 1 95.23814968596307 3.2337465172384054 1.311052244585357 -1 0 0
1208 5 97.10628442320915 2.156323476857301 0.03641177101649341 -1 0 0
1379 1 98.97300724688706 3.2337465172384072 1.3110522445853596 -1 0 0
1369 5 95.23885564274714 5.390805004133301 0.03641177101649414 -1 0 0
1375 5 98.97371320367115 5.390805004133303 0.036411771016496494 -1 0 0
1210 4 95.23719912848158 1.0764399719198663 2.5848640713352866 -1 0 0
1216 4 98.97205668940558 1.0764399719198638 2.584864071335284 -1 0 0
1371 4 97.10462790894357 4.3109214991958655 2.5848640713352857 -1 0 0
1386 1 3.734139443325059 6.468228044514407 1.3110522445853594 0 0 0
1382 5 3.734845400109147 8.625286531409301 0.03641177101649329 0 0 0
1547 1 1.8667106628630594 9.702709571790406 1.3110522445853576 0 0 0
1553 1 5.6015682237870585 9.702709571790406 1.3110522445853574 0 0 0
1384 4 1.86576010538157 7.545403026471867 2.5848640713352857 0 0 0
1390 4 5.60061766630557 7.545403026471866 2.584864071335286 0 0 0
1545 4 3.7331888858435707 10.779884553747866 2.5848640713352844 0 0 0
1392 1 7.468997004249058 6.468228044514407 1.3110522445853596 0 0 0
1398 1 11.203854565173057 6.468228044514407 1.3110522445853596 0 0 0
1388 5 7.469702961033146 8.6252865314093 0.0364117710164932 0 0 0
1394 5 11.204560521957145 8.625286531409301 0.036411771016493295 0 0 0
1559 1 9.336425784711057 9.702709571790406 1.3110522445853576 0 0 0
1396 4 9.33547522722957 7.545403026471867 2.5848640713352866 0 0 0
1551 4 7.468046446767569 10.779884553747866 2.584864071335285 0 0 0
1557 4 11.202904007691568 10.779884553747866 2.584864071335285 0 0 0
1404 1 14.938712126097057 6.468228044514407 1.3110522445853594 0 0 0
1400 5 14.939418082881145 8.625286531409301 0.03641177101649403 0 0 0
1565 1 13.071283345635056 9.702709571790406 1.3110522445853576 0 0 0
1571 1 16.806140906559058 9.702709571790406 1.3110522445853579 0 0 0
1402 4 13.070332788153568 7.545403026471866 2.5848640713352857 0 0 0
1408 4 16.80519034907757 7.545403026471867 2.584864071335286 0 0 0
1563 4 14.937761568615569 10.779884553747866 2.584864071335284 0 0 0
1410 1 18.673569687021057 6.468228044514407 1.3110522445853594 0 0 0
1416 1 22.408427247945056 6.468228044514407 1.3110522445853596 0 0 0
1406 5 18.674275643805142 8.625286531409301 0.03641177101649321 0 0 0
1412 5 22.40913320472914 8.625286531409301 0.03641177101649324 0 0 0
1577 1 20.540998467483057 9.702709571790406 1.3110522445853576 0 0 0
1414 4 20.54004791000157 7.545403026471866 2.584864071335286 0 0 0
1569 4 18.67261912953957 10.779884553747866 2.5848640713352844 0 0 0
1575 4 22.407476690463568 10.779884553747866 2.584864071335285 0 0 0
1422 1 26.143284808869055 6.468228044514407 1.3110522445853596 0 0 0
1418 5 26.143990765653143 8.625286531409301 0.036411771016494295 0 0 0
1583 1 24.275856028407055 9.702709571790406 1.3110522445853576 0 0 0
1589 1 28.010713589331058 9.702709571790406 1.3110522445853572 0 0 0
1420 4 24.274905470925567 7.545403026471867 2.5848640713352866 0 0 0
1426 4 28.00976303184957 7.545403026471865 2.584864071335285 0 0 0
1581 4 26.142334251387567 10.779884553747864 2.584864071335284 0 0 0
1428 1 29.87814236979306 6.468228044514407 1.3110522445853598 0 0 0
1434 1 33.61299993071706 6.468228044514407 1.3110522445853592 0 0 0
1424 5 29.87884832657715 8.625286531409301 0.03641177101649433 0 0 0
1430 5 33.61370588750115 8.625286531409301 0.03641177101649362 0 0 0
1595 1 31.74557115025506 9.702709571790406 1.3110522445853576 0 0 0
1601 1 35.48042871117906 9.702709571790406 1.3110522445853576 0 0 0
1432 4 31.744620592773572 7.545403026471867 2.5848640713352866 0 0 0
1438 4 35.47947815369757 7.545403026471866 2.584864071335286 0 0 0
1587 4 29.87719181231157 10.779884553747864 2.584864071335284 0 0 0
1593 4 33.61204937323557 10.779884553747866 2.5848640713352844 0 0 0
1440 1 37.34785749164106 6.468228044514407 1.3110522445853596 0 0 0
1446 1 41.08271505256506 6.468228044514407 1.3110522445853596 0 0 0
1436 5 37.348563448425146 8.625286531409301 0.036411771016493226 0 0 0
1442 5 41.083421009349145 8.625286531409301 0.036411771016493226 0 0 0
1607 1 39.21528627210306 9.702709571790406 1.3110522445853576 0 0 0
1444 4 39.21433571462157 7.545403026471866 2.584864071335286 0 0 0
1599 4 37.34690693415957 10.779884553747866 2.584864071335285 0 0 0
1605 4 41.08176449508357 10.779884553747866 2.584864071335285 0 0 0
1452 1 44.817572613489055 6.468228044514407 1.3110522445853596 0 0 0
1448 5 44.818278570273144 8.625286531409301 0.03641177101649315 0 0 0
1613 1 42.950143833027056 9.702709571790406 1.3110522445853576 0 0 0
1619 1 46.685001393951055 9.702709571790406 1.3110522445853576 0 0 0
1450 4 42.94919327554557 7.545403026471866 2.584864071335286 0 0 0
1456 4 46.68405083646957 7.545403026471866 2.584864071335285 0 0 0
1611 4 44.81662205600757 10.779884553747866 2.584864071335285 0 0 0
1458 1 48.55243017441306 6.468228044514407 1.3110522445853603 0 0 0
1302 1 52.28728773533706 6.468228044514406 1.3110522445853587 -1 0 0
1454 5 48.55313613119715 8.625286531409301 0.03641177101649487 0 0 0
1298 5 52.28799369212115 8.625286531409301 0.036411771016493955 -1 0 0
1463 1 50.41985895487506 9.702709571790406 1.3110522445853576 -1 0 0
1300 4 50.41890839739357 7.545403026471865 2.5848640713352844 -1 0 0
1617 4 48.55147961693157 10.779884553747864 2.5848640713352835 0 0 0
1461 4 52.28633717785557 10.779884553747864 2.584864071335284 -1 0 0
1308 1 56.02214529626106 6.468228044514407 1.3110522445853596 -1 0 0
1304 5 56.022851253045154 8.625286531409301 0.03641177101649398 -1 0 0
1469 1 54.154716515799066 9.702709571790406 1.3110522445853576 -1 0 0
1475 1 57.889574076723065 9.702709571790406 1.3110522445853576 -1 0 0
1306 4 54.15376595831757 7.545403026471866 2.5848640713352866 -1 0 0
1312 4 57.88862351924157 7.545403026471867 2.5848640713352857 -1 0 0
1467 4 56.02119473877958 10.779884553747864 2.584864071335284 -1 0 0
1314 1 59.757002857185064 6.468228044514407 1.3110522445853594 -1 0 0
1320 1 63.49186041810906 6.468228044514406 1.3110522445853587 -1 0 0
1310 5 59.75770881396915 8.625286531409301 0.03641177101649401 -1 0 0
1316 5 63.49256637489315 8.625286531409301 0.036411771016493184 -1 0 0
1481 1 61.624431637647064 9.702709571790406 1.3110522445853576 -1 0 0
1318 4 61.623481080165575 7.545403026471866 2.584864071335286 -1 0 0
1473 4 59.756052299703576 10.779884553747864 2.584864071335284 -1 0 0
1479 4 63.490909860627575 10.779884553747866 2.584864071335285 -1 0 0
1326 1 67.22671797903307 6.468228044514408 1.3110522445853612 -1 0 0
1332 1 70.96157553995707 6.468228044514406 1.3110522445853579 -1 0 0
1322 5 67.22742393581714 8.625286531409301 0.03641177101649408 -1 0 0
1328 5 70.96228149674114 8.625286531409301 0.036411771016492456 -1 0 0
1487 1 65.35928919857106 9.702709571790407 1.3110522445853583 -1 0 0
1493 1 69.09414675949506 9.702709571790406 1.3110522445853579 -1 0 0
1324 4 65.35833864108957 7.545403026471866 2.584864071335285 -1 0 0
1330 4 69.09319620201357 7.545403026471866 2.584864071335286 -1 0 0
1485 4 67.22576742155158 10.779884553747866 2.584864071335284 -1 0 0
1491 4 70.96062498247558 10.779884553747866 2.5848640713352853 -1 0 0
1338 1 74.69643310088107 6.468228044514408 1.3110522445853614 -1 0 0
1334 5 74.69713905766514 8.625286531409301 0.036411771016493996 -1 0 0
1499 1 72.82900432041906 9.702709571790406 1.3110522445853579 -1 0 0
1505 1 76.56386188134306 9.702709571790406 1.311052244585356 -1 0 0
1336 4 72.82805376293757 7.545403026471867 2.5848640713352866 -1 0 0
1342 4 76.56291132386158 7.545403026471866 2.584864071335285 -1 0 0
1497 4 74.69548254339958 10.779884553747866 2.584864071335284 -1 0 0
1344 1 78.43129066180506 6.468228044514407 1.3110522445853596 -1 0 0
1350 1 82.16614822272906 6.468228044514407 1.3110522445853596 -1 0 0
1340 5 78.43199661858915 8.625286531409301 0.03641177101649312 -1 0 0
1346 5 82.16685417951315 8.625286531409301 0.036411771016494676 -1 0 0
1511 1 80.29871944226706 9.702709571790406 1.3110522445853576 -1 0 0
1348 4 80.29776888478558 7.545403026471866 2.584864071335286 -1 0 0
1503 4 78.43034010432358 10.779884553747866 2.584864071335285 -1 0 0
1509 4 82.16519766524758 10.779884553747864 2.5848640713352835 -1 0 0
1356 1 85.90100578365306 6.468228044514407 1.3110522445853594 -1 0 0
1352 5 85.90171174043715 8.625286531409301 0.03641177101649323 -1 0 0
1517 1 84.03357700319107 9.702709571790407 1.3110522445853594 -1 0 0
1523 1 87.76843456411507 9.702709571790406 1.3110522445853556 -1 0 0
1354 4 84.03262644570958 7.545403026471866 2.5848640713352853 -1 0 0
1360 4 87.76748400663358 7.545403026471868 2.584864071335287 -1 0 0
1515 4 85.90005522617157 10.779884553747866 2.5848640713352844 -1 0 0
1362 1 89.63586334457706 6.468228044514407 1.3110522445853594 -1 0 0
1368 1 93.37072090550106 6.468228044514407 1.3110522445853596 -1 0 0
1358 5 89.63656930136115 8.625286531409301 0.03641177101649323 -1 0 0
1364 5 93.37142686228515 8.625286531409301 0.03641177101649323 -1 0 0
1529 1 91.50329212503907 9.702709571790407 1.3110522445853592 -1 0 0
1366 4 91.50234156755758 7.545403026471866 2.5848640713352853 -1 0 0
1521 4 89.63491278709557 10.779884553747866 2.584864071335285 -1 0 0
1527 4 93.36977034801957 10.779884553747866 2.5848640713352844 -1 0 0
1380 1 100.84043602734906 6.468228044514407 1.3110522445853596 -1 0 0
1376 5 100.84114198413316 8.625286531409301 0.03641177101649473 -1 0 0
1539 4 100.83948546986757 10.779884553747864 2.584864071335283 -1 0 0
1374 1 97.10557846642506 6.468228044514407 1.3110522445853594 -1 0 0
1370 5 97.10628442320915 8.625286531409301 0.036411771016493205 -1 0 0
1535 1 95.23814968596307 9.702709571790406 1.3110522445853556 -1 0 0
1541 1 98.97300724688706 9.702709571790407 1.311052244585359 -1 0 0
1372 4 95.23719912848158 7.545403026471868 2.584864071335287 -1 0 0
1378 4 98.97205668940558 7.545403026471865 2.584864071335284 -1 0 0
1533 4 97.10462790894357 10.779884553747866 2.584864071335285 -1 0 0
1543 5 1.867416619647147 11.859768058685303 0.03641177101649465 0 0 0
1548 1 3.734139443325059 12.937191099066407 1.3110522445853587 0 0 0
1549 5 5.602274180571147 11.859768058685301 0.03641177101649416 0 0 0
1544 5 3.734845400109147 15.094249585961304 0.036411771016494954 0 0 0
1709 1 1.8667106628630596 16.17167262634241 1.3110522445853587 0 0 0
1715 1 5.6015682237870585 16.17167262634241 1.3110522445853585 0 0 0
1546 4 1.8657601053815702 14.014366081023867 2.5848640713352844 0 0 0
1552 4 5.60061766630557 14.01436608102387 2.5848640713352844 0 0 0
1554 1 7.468997004249058 12.937191099066407 1.311052244585359 0 0 0
1555 5 9.337131741495146 11.859768058685301 0.03641177101649405 0 0 0
1560 1 11.203854565173057 12.937191099066407 1.3110522445853587 0 0 0
1550 5 7.469702961033146 15.094249585961304 0.03641177101649477 0 0 0
1556 5 11.204560521957145 15.094249585961304 0.03641177101649489 0 0 0
1721 1 9.336425784711057 16.17167262634241 1.3110522445853587 0 0 0
1558 4 9.33547522722957 14.01436608102387 2.584864071335285 0 0 0
1561 5 13.071989302419144 11.859768058685303 0.0364117710164948 0 0 0
1566 1 14.938712126097057 12.937191099066407 1.3110522445853583 0 0 0
1567 5 16.806846863343146 11.859768058685303 0.03641177101649445 0 0 0
1562 5 14.939418082881144 15.094249585961304 0.03641177101649556 0 0 0
1727 1 13.071283345635056 16.17167262634241 1.3110522445853585 0 0 0
1733 1 16.806140906559058 16.17167262634241 1.3110522445853587 0 0 0
1564 4 13.070332788153568 14.014366081023867 2.584864071335284 0 0 0
1570 4 16.80519034907757 14.014366081023867 2.5848640713352853 0 0 0
1572 1 18.673569687021057 12.937191099066407 1.3110522445853585 0 0 0
1573 5 20.541704424267145 11.859768058685301 0.03641177101649414 0 0 0
1578 1 22.408427247945056 12.937191099066407 1.3110522445853587 0 0 0
1568 5 18.674275643805146 15.094249585961304 0.03641177101649444 0 0 0
1574 5 22.409133204729144 15.094249585961304 0.03641177101649447 0 0 0
1739 1 20.540998467483057 16.17167262634241 1.3110522445853587 0 0 0
1576 4 20.54004791000157 14.014366081023867 2.5848640713352853 0 0 0
1579 5 24.276561985191144 11.859768058685301 0.03641177101649407 0 0 0
1584 1 26.143284808869055 12.937191099066407 1.3110522445853587 0 0 0
1585 5 28.011419546115146 11.859768058685303 0.03641177101649567 0 0 0
1580 5 26.143990765653143 15.094249585961304 0.03641177101649566 0 0 0
1745 1 24.275856028407055 16.17167262634241 1.3110522445853587 0 0 0
1751 1 28.010713589331058 16.17167262634241 1.311052244585358 0 0 0
1582 4 24.274905470925567 14.014366081023867 2.5848640713352853 0 0 0
1588 4 28.00976303184957 14.014366081023867 2.584864071335283 0 0 0
1590 1 29.87814236979306 12.937191099066407 1.3110522445853592 0 0 0
1591 5 31.746277107039145 11.859768058685301 0.03641177101649361 0 0 0
1596 1 33.61299993071706 12.937191099066407 1.3110522445853583 0 0 0
1597 5 35.48113466796315 11.859768058685301 0.036411771016494135 0 0 0
1586 5 29.878848326577145 15.094249585961304 0.03641177101649576 0 0 0
1592 5 33.61370588750115 15.094249585961304 0.03641177101649486 0 0 0
1757 1 31.74557115025506 16.17167262634241 1.3110522445853585 0 0 0
1763 1 35.48042871117906 16.17167262634241 1.3110522445853585 0 0 0
1594 4 31.744620592773572 14.014366081023867 2.5848640713352853 0 0 0
1600 4 35.47947815369757 14.014366081023867 2.584864071335285 0 0 0
1602 1 37.34785749164106 12.937191099066407 1.3110522445853587 0 0 0
1603 5 39.215992228887146 11.859768058685301 0.036411771016494156 0 0 0
1608 1 41.08271505256506 12.937191099066407 1.3110522445853587 0 0 0
1598 5 37.348563448425146 15.094249585961304 0.036411771016494475 0 0 0
1604 5 41.083421009349145 15.094249585961304 0.03641177101649447 0 0 0
1769 1 39.21528627210306 16.17167262634241 1.3110522445853585 0 0 0
1606 4 39.21433571462157 14.014366081023867 2.584864071335285 0 0 0
1609 5 42.950849789811144 11.859768058685301 0.036411771016494156 0 0 0
1614 1 44.817572613489055 12.937191099066407 1.3110522445853585 0 0 0
1615 5 46.68570735073514 11.859768058685303 0.03641177101649561 0 0 0
1610 5 44.818278570273144 15.094249585961304 0.036411771016494406 0 0 0
1775 1 42.950143833027056 16.17167262634241 1.3110522445853585 0 0 0
1781 1 46.685001393951055 16.17167262634241 1.3110522445853585 0 0 0
1612 4 42.94919327554557 14.014366081023867 2.584864071335285 0 0 0
1618 4 46.68405083646957 14.014366081023867 2.584864071335284 0 0 0
1620 1 48.55243017441306 12.937191099066409 1.3110522445853594 0 0 0
1459 5 50.42056491165915 11.859768058685303 0.03641177101649587 -1 0 0
1464 1 52.28728773533706 12.937191099066407 1.311052244585358 -1 0 0
1616 5 48.55313613119715 15.094249585961306 0.03641177101649616 0 0 0
1460 5 52.28799369212115 15.094249585961304 0.036411771016495446 -1 0 0
1625 1 50.41985895487506 16.17167262634241 1.3110522445853587 -1 0 0
1462 4 50.41890839739357 14.014366081023867 2.5848640713352826 -1 0 0
1465 5 54.155422472583155 11.859768058685301 0.03641177101649404 -1 0 0
1470 1 56.02214529626106 12.937191099066407 1.311052244585359 -1 0 0
1471 5 57.890280033507146 11.859768058685303 0.03641177101649444 -1 0 0
1466 5 56.022851253045154 15.094249585961304 0.036411771016495564 -1 0 0
1631 1 54.154716515799066 16.17167262634241 1.3110522445853587 -1 0 0
1637 1 57.889574076723065 16.17167262634241 1.3110522445853587 -1 0 0
1468 4 54.15376595831757 14.01436608102387 2.584864071335285 -1 0 0
1474 4 57.88862351924157 14.014366081023867 2.5848640713352844 -1 0 0
1476 1 59.757002857185064 12.937191099066407 1.3110522445853587 -1 0 0
1477 5 61.62513759443115 11.859768058685301 0.03641177101649411 -1 0 0
1482 1 63.49186041810906 12.937191099066407 1.3110522445853579 -1 0 0
1472 5 59.75770881396915 15.094249585961304 0.03641177101649545 -1 0 0
1478 5 63.49256637489315 15.094249585961304 0.03641177101649444 -1 0 0
1643 1 61.624431637647064 16.17167262634241 1.3110522445853585 -1 0 0
1480 4 61.623481080165575 14.014366081023867 2.584864071335285 -1 0 0
1483 5 65.35999515535515 11.859768058685303 0.03641177101649567 -1 0 0
1488 1 67.22671797903307 12.937191099066409 1.31105224458536 -1 0 0
1489 5 69.09485271627915 11.859768058685301 0.036411771016494156 -1 0 0
1494 1 70.96157553995707 12.937191099066407 1.3110522445853567 -1 0 0
1484 5 67.22742393581714 15.094249585961304 0.03641177101649533 -1 0 0
1490 5 70.96228149674114 15.094249585961304 0.03641177101649353 -1 0 0
1649 1 65.35928919857106 16.17167262634241 1.3110522445853592 -1 0 0
1655 1 69.09414675949506 16.17167262634241 1.3110522445853585 -1 0 0
1486 4 65.35833864108957 14.014366081023867 2.584864071335284 -1 0 0
1492 4 69.09319620201357 14.014366081023867 2.584864071335285 -1 0 0
1495 5 72.82971027720315 11.859768058685301 0.03641177101649408 -1 0 0
1500 1 74.69643310088107 12.937191099066409 1.31105224458536 -1 0 0
1501 5 76.56456783812715 11.859768058685303 0.036411771016495516 -1 0 0
1496 5 74.69713905766514 15.094249585961304 0.03641177101649525 -1 0 0
1661 1 72.82900432041906 16.17167262634241 1.3110522445853585 -1 0 0
1667 1 76.56386188134306 16.17167262634241 1.311052244585357 -1 0 0
1498 4 72.82805376293757 14.014366081023867 2.5848640713352853 -1 0 0
1504 4 76.56291132386158 14.014366081023867 2.584864071335284 -1 0 0
1506 1 78.43129066180506 12.937191099066407 1.3110522445853587 -1 0 0
1507 5 80.29942539905116 11.859768058685301 0.036411771016494114 -1 0 0
1512 1 82.16614822272906 12.937191099066407 1.3110522445853587 -1 0 0
1502 5 78.43199661858915 15.094249585961304 0.036411771016494364 -1 0 0
1508 5 82.16685417951315 15.094249585961304 0.036411771016496126 -1 0 0
1673 1 80.29871944226706 16.17167262634241 1.3110522445853585 -1 0 0
1510 4 80.29776888478558 14.014366081023867 2.5848640713352853 -1 0 0
1513 5 84.03428295997514 11.859768058685303 0.03641177101649489 -1 0 0
1518 1 85.90100578365306 12.937191099066407 1.311052244585359 -1 0 0
1519 5 87.76914052089914 11.859768058685301 0.0364117710164932 -1 0 0
1514 5 85.90171174043715 15.094249585961304 0.036411771016494704 -1 0 0
1679 1 84.03357700319107 16.171672626342414 1.31105224458536 -1 0 0
1685 1 87.76843456411507 16.17167262634241 1.311052244585357 -1 0 0
1516 4 84.03262644570958 14.01436608102387 2.584864071335284 -1 0 0
1522 4 87.76748400663358 14.01436608102387 2.5848640713352857 -1 0 0
1524 1 89.63586334457706 12.937191099066407 1.311052244585359 -1 0 0
1525 5 91.50399808182314 11.859768058685303 0.03641177101649491 -1 0 0
1530 1 93.37072090550106 12.937191099066407 1.311052244585359 -1 0 0
1520 5 89.63656930136115 15.094249585961304 0.03641177101649469 -1 0 0
1526 5 93.37142686228515 15.094249585961304 0.036411771016494704 -1 0 0
1691 1 91.50329212503907 16.171672626342414 1.31105224458536 -1 0 0
1528 4 91.50234156755758 14.01436608102387 2.584864071335284 -1 0 0
1542 1 100.84043602734906 12.937191099066409 1.3110522445853585 -1 0 0
1538 5 100.84114198413316 15.094249585961306 0.03641177101649648 -1 0 0
1531 5 95.23885564274714 11.859768058685301 0.0364117710164932 -1 0 0
1536 1 97.10557846642506 12.937191099066407 1.311052244585359 -1 0 0
1537 5 98.97371320367115 11.859768058685303 0.03641177101649568 -1 0 0
1532 5 97.10628442320915 15.094249585961304 0.03641177101649467 -1 0 0
1697 1 95.23814968596307 16.17167262634241 1.311052244585357 -1 0 0
1703 1 98.97300724688706 16.171672626342414 1.3110522445853594 -1 0 0
1534 4 95.23719912848158 14.01436608102387 2.5848640713352857 -1 0 0
1540 4 98.97205668940558 14.014366081023867 2.5848640713352826 -1 0 0
1705 5 1.867416619647147 18.328731113237307 0.03641177101649344 0 0 0
1711 5 5.602274180571147 18.328731113237303 0.03641177101649299 0 0 0
1710 1 3.734139443325059 19.40615415361841 1.3110522445853587 0 0 0
1871 1 1.8667106628630599 22.640635680894405 1.3110522445853587 0 0 0
1706 5 3.734845400109147 21.5632126405133 0.036411771016492275 0 0 0
1877 1 5.6015682237870585 22.640635680894405 1.3110522445853587 0 0 0
1707 4 3.7331888858435707 17.24884760829987 2.584864071335286 0 0 0
1708 4 1.86576010538157 20.483329135575865 2.5848640713352866 0 0 0
1714 4 5.60061766630557 20.483329135575865 2.5848640713352875 0 0 0
1717 5 9.337131741495146 18.328731113237303 0.03641177101649286 0 0 0
1716 1 7.468997004249058 19.40615415361841 1.3110522445853587 0 0 0
1722 1 11.203854565173057 19.40615415361841 1.3110522445853587 0 0 0
1712 5 7.469702961033146 21.5632126405133 0.03641177101649212 0 0 0
1883 1 9.336425784711057 22.640635680894405 1.3110522445853587 0 0 0
1718 5 11.204560521957145 21.5632126405133 0.03641177101649221 0 0 0
1713 4 7.468046446767569 17.24884760829987 2.584864071335286 0 0 0
1719 4 11.202904007691568 17.24884760829987 2.584864071335286 0 0 0
1720 4 9.33547522722957 20.483329135575865 2.5848640713352875 0 0 0
1723 5 13.071989302419144 18.328731113237307 0.03641177101649361 0 0 0
1729 5 16.806846863343146 18.328731113237303 0.03641177101649377 0 0 0
1728 1 14.938712126097057 19.40615415361841 1.3110522445853585 0 0 0
1889 1 13.071283345635056 22.640635680894405 1.3110522445853587 0 0 0