LAMMPS data file via write_data, version 29 Aug 2024, timestep = 2, units = metal

4860 atoms
6 atom types

0 100.841154144948 xlo xhi
0 97.03444581828 ylo yhi
-50 50 zlo zhi

Masses

1 106.42
2 106.42
3 78.971
4 78.971
5 78.971
6 78.971

Atoms # atomic

1385 1 1.8667173788912625 3.2337537373813934 1.3110649131908783 0 0 0
1220 4 3.734845323633615 2.1563234934940825 0.03661165958218669 0 0 0
1391 1 5.601574939815262 3.2337537373813934 1.3110649131908783 0 0 0
1381 4 1.8674165431716145 5.390805020770083 0.03661165958218854 0 0 0
1387 4 5.602274104095615 5.390805020770083 0.036611659582188066 0 0 0
1222 3 1.865744955437239 1.0764256931839844 2.584561664794252 0 0 0
1228 3 5.600602516361239 1.0764256931839848 2.5845616647942524 0 0 0
1383 3 3.733173735899239 4.310907220459985 2.584561664794252 0 0 0
1226 4 7.469702884557614 2.1563234934940825 0.03661165958218653 0 0 0
1397 1 9.33643250073926 3.2337537373813934 1.3110649131908787 0 0 0
1232 4 11.204560445481611 2.1563234934940825 0.03661165958218662 0 0 0
1393 4 9.337131665019612 5.390805020770082 0.036611659582187935 0 0 0
1234 3 9.335460077285237 1.0764256931839848 2.584561664794253 0 0 0
1389 3 7.468031296823239 4.310907220459985 2.584561664794252 0 0 0
1395 3 11.202888857747237 4.310907220459985 2.584561664794252 0 0 0
1403 1 13.071290061663259 3.2337537373813934 1.3110649131908783 0 0 0
1238 4 14.939418006405612 2.156323493494083 0.0366116595821873 0 0 0
1409 1 16.80614762258726 3.233753737381393 1.3110649131908783 0 0 0
1399 4 13.071989225943613 5.390805020770083 0.036611659582188746 0 0 0
1405 4 16.806846786867617 5.390805020770083 0.036611659582188615 0 0 0
1240 3 13.070317638209238 1.0764256931839842 2.584561664794252 0 0 0
1246 3 16.805175199133238 1.0764256931839846 2.5845616647942524 0 0 0
1401 3 14.937746418671237 4.310907220459985 2.5845616647942515 0 0 0
1244 4 18.674275567329612 2.1563234934940825 0.03661165958218668 0 0 0
1415 1 20.54100518351126 3.2337537373813934 1.3110649131908785 0 0 0
1250 4 22.40913312825361 2.1563234934940825 0.03661165958218671 0 0 0
1411 4 20.541704347791615 5.390805020770082 0.03661165958218814 0 0 0
1252 3 20.54003276005724 1.0764256931839846 2.5845616647942524 0 0 0
1407 3 18.672603979595237 4.310907220459985 2.584561664794252 0 0 0
1413 3 22.407461540519236 4.310907220459985 2.584561664794252 0 0 0
1421 1 24.27586274443526 3.2337537373813934 1.3110649131908785 0 0 0
1256 4 26.143990689177613 2.156323493494084 0.03661165958218824 0 0 0
1427 1 28.01072030535926 3.233753737381394 1.3110649131908787 0 0 0
1417 4 24.276561908715614 5.390805020770082 0.03661165958218809 0 0 0
1423 4 28.011419469639613 5.390805020770084 0.036611659582189204 0 0 0
1258 3 24.27489032098124 1.0764256931839848 2.584561664794253 0 0 0
1264 3 28.009747881905238 1.0764256931839837 2.584561664794252 0 0 0
1419 3 26.142319101443235 4.310907220459984 2.5845616647942506 0 0 0
1262 4 29.878848250101615 2.1563234934940834 0.03661165958218782 0 0 0
1433 1 31.745577866283263 3.233753737381393 1.311064913190878 0 0 0
1268 4 33.61370581102562 2.156323493494082 0.03661165958218622 0 0 0
1439 1 35.48043542720726 3.2337537373813934 1.3110649131908785 0 0 0
1429 4 31.746277030563615 5.390805020770082 0.036611659582188066 0 0 0
1435 4 35.48113459148761 5.390805020770083 0.036611659582188164 0 0 0
1270 3 31.74460544282924 1.0764256931839848 2.584561664794253 0 0 0
1276 3 35.47946300375324 1.0764256931839848 2.584561664794253 0 0 0
1425 3 29.87717666236724 4.310907220459984 2.584561664794251 0 0 0
1431 3 33.61203422329124 4.310907220459986 2.5845616647942524 0 0 0
1274 4 37.348563371949616 2.1563234934940825 0.036611659582186616 0 0 0
1445 1 39.21529298813126 3.2337537373813934 1.3110649131908785 0 0 0
1280 4 41.083420932873615 2.1563234934940825 0.03661165958218661 0 0 0
1441 4 39.21599215241161 5.390805020770082 0.03661165958218814 0 0 0
1282 3 39.21432056467724 1.0764256931839848 2.584561664794253 0 0 0
1437 3 37.34689178421524 4.310907220459985 2.584561664794252 0 0 0
1443 3 41.08174934513924 4.310907220459985 2.584561664794252 0 0 0
1451 1 42.95015054905526 3.2337537373813934 1.3110649131908785 0 0 0
1286 4 44.818278493797614 2.156323493494083 0.03661165958218736 0 0 0
1457 1 46.685008109979265 3.2337537373813934 1.3110649131908785 0 0 0
1447 4 42.95084971333561 5.390805020770082 0.03661165958218815 0 0 0
1453 4 46.68570727425961 5.390805020770084 0.03661165958218962 0 0 0
1288 3 42.949178125601236 1.0764256931839848 2.584561664794253 0 0 0
1294 3 46.684035686525235 1.0764256931839837 2.584561664794251 0 0 0
1449 3 44.816606906063235 4.310907220459985 2.5845616647942515 0 0 0
1292 4 48.55313605472162 2.156323493494084 0.036611659582188164 0 0 0
1301 1 50.41986567090326 3.2337537373813934 1.3110649131908785 -1 0 0
1136 4 52.28799361564562 2.156323493494083 0.03661165958218731 -1 0 0
1297 4 50.42056483518362 5.390805020770084 0.03661165958218996 -1 0 0
1138 3 50.41889324744924 1.0764256931839833 2.584561664794251 -1 0 0
1455 3 48.55146446698724 4.310907220459984 2.5845616647942506 0 0 0
1299 3 52.28632202791125 4.310907220459985 2.5845616647942515 -1 0 0
1307 1 54.15472323182727 3.2337537373813934 1.3110649131908783 -1 0 0
1142 4 56.022851176569624 2.156323493494083 0.03661165958218735 -1 0 0
1313 1 57.88958079275127 3.2337537373813934 1.3110649131908785 -1 0 0
1303 4 54.15542239610762 5.390805020770082 0.036611659582188004 -1 0 0
1309 4 57.890279957031616 5.390805020770083 0.03661165958218859 -1 0 0
1144 3 54.153750808373246 1.0764256931839848 2.584561664794253 -1 0 0
1150 3 57.888608369297245 1.0764256931839844 2.5845616647942524 -1 0 0
1305 3 56.021179588835246 4.310907220459985 2.584561664794251 -1 0 0
1148 4 59.75770873749362 2.1563234934940825 0.036611659582186505 -1 0 0
1319 1 61.62443835367527 3.2337537373813934 1.3110649131908785 -1 0 0
1154 4 63.49256629841762 2.1563234934940825 0.036611659582186554 -1 0 0
1315 4 61.625137517955615 5.390805020770082 0.036611659582188094 -1 0 0
1156 3 61.62346593022124 1.0764256931839848 2.584561664794253 -1 0 0
1311 3 59.756037149759244 4.310907220459985 2.584561664794252 -1 0 0
1317 3 63.49089471068324 4.310907220459986 2.584561664794252 -1 0 0
1325 1 65.35929591459927 3.233753737381394 1.3110649131908794 -1 0 0
1160 4 67.22742385934161 2.1563234934940843 0.03661165958218913 -1 0 0
1331 1 69.09415347552327 3.2337537373813934 1.3110649131908785 -1 0 0
1166 4 70.96228142026561 2.1563234934940807 0.03661165958218423 -1 0 0
1321 4 65.35999507887962 5.390805020770083 0.036611659582188864 -1 0 0
1327 4 69.09485263980362 5.390805020770082 0.036611659582188164 -1 0 0
1162 3 65.35832349114524 1.0764256931839844 2.584561664794252 -1 0 0
1168 3 69.09318105206924 1.0764256931839848 2.584561664794253 -1 0 0
1323 3 67.22575227160725 4.310907220459983 2.5845616647942493 -1 0 0
1329 3 70.96060983253125 4.3109072204599865 2.5845616647942546 -1 0 0
1337 1 72.82901103644727 3.2337537373813934 1.3110649131908785 -1 0 0
1172 4 74.69713898118961 2.1563234934940843 0.03661165958218905 -1 0 0
1343 1 76.56386859737127 3.233753737381392 1.311064913190877 -1 0 0
1333 4 72.82971020072762 5.390805020770082 0.03661165958218817 -1 0 0
1339 4 76.56456776165162 5.390805020770084 0.03661165958218956 -1 0 0
1174 3 72.82803861299324 1.0764256931839848 2.584561664794253 -1 0 0
1180 3 76.56289617391724 1.076425693183984 2.584561664794251 -1 0 0
1335 3 74.69546739345525 4.310907220459983 2.5845616647942493 -1 0 0
1178 4 78.43199654211362 2.1563234934940825 0.03661165958218661 -1 0 0
1349 1 80.29872615829527 3.2337537373813934 1.3110649131908785 -1 0 0
1184 4 82.16685410303762 2.1563234934940825 0.036611659582186644 -1 0 0
1345 4 80.29942532257562 5.390805020770082 0.036611659582188094 -1 0 0
1186 3 80.29775373484124 1.0764256931839848 2.584561664794253 -1 0 0
1341 3 78.43032495437924 4.310907220459985 2.584561664794252 -1 0 0
1347 3 82.16518251530324 4.310907220459985 2.584561664794252 -1 0 0
1355 1 84.03358371921927 3.2337537373813934 1.3110649131908785 -1 0 0
1190 4 85.90171166396162 2.1563234934940825 0.03661165958218671 -1 0 0
1361 1 87.76844128014326 3.2337537373813934 1.3110649131908785 -1 0 0
1351 4 84.03428288349961 5.390805020770085 0.03661165958219048 -1 0 0
1357 4 87.76914044442361 5.390805020770081 0.03661165958218557 -1 0 0
1192 3 84.03261129576525 1.0764256931839828 2.5845616647942506 -1 0 0
1198 3 87.76746885668925 1.0764256931839866 2.584561664794255 -1 0 0
1353 3 85.90004007622724 4.310907220459985 2.584561664794252 -1 0 0
1196 4 89.63656922488562 2.1563234934940825 0.036611659582186706 -1 0 0
1367 1 91.50329884106726 3.2337537373813934 1.3110649131908785 -1 0 0
1202 4 93.37142678580962 2.1563234934940825 0.036611659582186706 -1 0 0
1363 4 91.50399800534761 5.390805020770085 0.03661165958219051 -1 0 0
1204 3 91.50232641761325 1.0764256931839828 2.58456166479425 -1 0 0
1359 3 89.63489763715124 4.310907220459985 2.584561664794252 -1 0 0
1365 3 93.36975519807524 4.310907220459985 2.584561664794252 -1 0 0
1214 4 100.84114190765762 2.1563234934940843 0.03661165958218905 -1 0 0
1377 3 100.83947031992324 4.310907220459983 2.5845616647942498 -1 0 0
1373 1 95.23815640199126 3.2337537373813934 1.3110649131908785 -1 0 0
1208 4 97.10628434673362 2.1563234934940825 0.0366116595821867 -1 0 0
1379 1 98.97301396291526 3.2337537373813943 1.3110649131908794 -1 0 0
1369 4 95.23885556627161 5.390805020770081 0.03661165958218557 -1 0 0
1375 4 98.97371312719561 5.390805020770085 0.03661165958219049 -1 0 0
1210 3 95.23718397853725 1.0764256931839866 2.584561664794255 -1 0 0
1216 3 98.97204153946124 1.076425693183983 2.5845616647942506 -1 0 0
1371 3 97.10461275899924 4.310907220459985 2.584561664794252 -1 0 0
1386 1 3.7341461593532626 6.468235264657394 1.3110649131908794 0 0 0
1382 4 3.734845323633615 8.625286548046082 0.03661165958218651 0 0 0
1547 1 1.8667173788912625 9.702716791933394 1.3110649131908776 0 0 0
1553 1 5.601574939815262 9.702716791933394 1.3110649131908774 0 0 0
1384 3 1.865744955437239 7.545388747735986 2.584561664794252 0 0 0
1390 3 5.600602516361239 7.545388747735986 2.5845616647942524 0 0 0
1545 3 3.7331737358992396 10.779870275011985 2.5845616647942515 0 0 0
1392 1 7.469003720277262 6.468235264657395 1.3110649131908796 0 0 0
1398 1 11.20386128120126 6.468235264657394 1.3110649131908794 0 0 0
1388 4 7.469702884557614 8.625286548046082 0.036611659582186415 0 0 0
1394 4 11.204560445481611 8.625286548046082 0.03661165958218651 0 0 0
1559 1 9.33643250073926 9.702716791933394 1.3110649131908776 0 0 0
1396 3 9.335460077285237 7.545388747735986 2.584561664794253 0 0 0
1551 3 7.468031296823239 10.779870275011985 2.584561664794252 0 0 0
1557 3 11.202888857747237 10.779870275011985 2.5845616647942515 0 0 0
1404 1 14.938718842125262 6.468235264657394 1.3110649131908794 0 0 0
1400 4 14.939418006405612 8.625286548046084 0.03661165958218707 0 0 0
1565 1 13.071290061663259 9.702716791933394 1.3110649131908776 0 0 0
1571 1 16.80614762258726 9.702716791933394 1.3110649131908774 0 0 0
1402 3 13.070317638209238 7.545388747735986 2.584561664794252 0 0 0
1408 3 16.805175199133238 7.545388747735986 2.584561664794252 0 0 0
1563 3 14.937746418671237 10.779870275011985 2.584561664794251 0 0 0
1410 1 18.673576403049264 6.468235264657395 1.3110649131908794 0 0 0
1416 1 22.408433963973263 6.468235264657395 1.3110649131908794 0 0 0
1406 4 18.674275567329612 8.625286548046082 0.03661165958218658 0 0 0
1412 4 22.40913312825361 8.625286548046082 0.03661165958218661 0 0 0
1577 1 20.54100518351126 9.702716791933394 1.3110649131908774 0 0 0
1414 3 20.540032760057237 7.545388747735986 2.5845616647942524 0 0 0
1569 3 18.672603979595237 10.779870275011985 2.5845616647942515 0 0 0
1575 3 22.407461540519236 10.779870275011985 2.5845616647942515 0 0 0
1422 1 26.143291524897258 6.468235264657394 1.3110649131908794 0 0 0
1418 4 26.143990689177613 8.625286548046084 0.036611659582188025 0 0 0
1583 1 24.27586274443526 9.702716791933394 1.3110649131908774 0 0 0
1589 1 28.01072030535926 9.702716791933394 1.3110649131908783 0 0 0
1420 3 24.27489032098124 7.545388747735986 2.5845616647942524 0 0 0
1426 3 28.009747881905238 7.545388747735985 2.5845616647942515 0 0 0
1581 3 26.142319101443235 10.779870275011985 2.58456166479425 0 0 0
1428 1 29.878149085821263 6.468235264657395 1.3110649131908794 0 0 0
1434 1 33.61300664674526 6.468235264657395 1.31106491319088 0 0 0
1424 4 29.878848250101615 8.625286548046084 0.03661165958218759 0 0 0
1430 4 33.61370581102562 8.625286548046082 0.03661165958218623 0 0 0
1595 1 31.745577866283263 9.702716791933394 1.3110649131908771 0 0 0
1601 1 35.48043542720726 9.702716791933394 1.3110649131908774 0 0 0
1432 3 31.74460544282924 7.545388747735986 2.584561664794253 0 0 0
1438 3 35.47946300375324 7.545388747735986 2.5845616647942524 0 0 0
1587 3 29.87717666236724 10.779870275011985 2.5845616647942506 0 0 0
1593 3 33.61203422329124 10.779870275011985 2.584561664794252 0 0 0
1440 1 37.34786420766926 6.468235264657395 1.3110649131908794 0 0 0
1446 1 41.08272176859326 6.468235264657395 1.3110649131908794 0 0 0
1436 4 37.348563371949616 8.625286548046082 0.036611659582186616 0 0 0
1442 4 41.083420932873615 8.625286548046082 0.03661165958218661 0 0 0
1607 1 39.21529298813126 9.702716791933394 1.3110649131908774 0 0 0
1444 3 39.21432056467724 7.545388747735986 2.5845616647942524 0 0 0
1599 3 37.34689178421524 10.779870275011985 2.5845616647942515 0 0 0
1605 3 41.08174934513924 10.779870275011985 2.5845616647942515 0 0 0
1452 1 44.81757932951726 6.468235264657395 1.3110649131908794 0 0 0
1448 4 44.818278493797614 8.625286548046082 0.036611659582187345 0 0 0
1613 1 42.95015054905526 9.702716791933394 1.3110649131908774 0 0 0
1619 1 46.685008109979265 9.702716791933394 1.3110649131908774 0 0 0
1450 3 42.949178125601236 7.545388747735986 2.5845616647942524 0 0 0
1456 3 46.684035686525235 7.545388747735985 2.5845616647942515 0 0 0
1611 3 44.816606906063235 10.779870275011984 2.5845616647942506 0 0 0
1458 1 48.552436890441264 6.468235264657394 1.3110649131908787 0 0 0
1302 1 52.28729445136527 6.468235264657394 1.3110649131908794 -1 0 0
1454 4 48.55313605472162 8.625286548046082 0.03661165958218805 0 0 0
1298 4 52.28799361564562 8.625286548046082 0.0366116595821871 -1 0 0
1463 1 50.41986567090326 9.702716791933394 1.3110649131908776 -1 0 0
1300 3 50.41889324744924 7.545388747735984 2.5845616647942506 -1 0 0
1617 3 48.55146446698724 10.779870275011984 2.5845616647942498 0 0 0
1461 3 52.28632202791125 10.779870275011984 2.584561664794251 -1 0 0
1308 1 56.02215201228927 6.468235264657394 1.3110649131908794 -1 0 0
1304 4 56.022851176569624 8.625286548046082 0.0366116595821872 -1 0 0
1469 1 54.15472323182727 9.702716791933394 1.3110649131908776 -1 0 0
1475 1 57.88958079275127 9.702716791933394 1.3110649131908776 -1 0 0
1306 3 54.153750808373246 7.545388747735986 2.584561664794253 -1 0 0
1312 3 57.888608369297245 7.545388747735986 2.5845616647942524 -1 0 0
1467 3 56.021179588835246 10.779870275011984 2.5845616647942506 -1 0 0
1314 1 59.75700957321327 6.468235264657395 1.31106491319088 -1 0 0
1320 1 63.491867134137266 6.468235264657393 1.3110649131908778 -1 0 0
1310 4 59.75770873749362 8.625286548046082 0.03661165958218652 -1 0 0
1316 4 63.49256629841762 8.625286548046082 0.036611659582186554 -1 0 0
1481 1 61.62443835367527 9.702716791933394 1.3110649131908774 -1 0 0
1318 3 61.62346593022124 7.545388747735986 2.5845616647942524 -1 0 0
1473 3 59.756037149759244 10.779870275011985 2.5845616647942515 -1 0 0
1479 3 63.49089471068324 10.779870275011985 2.5845616647942515 -1 0 0
1326 1 67.22672469506126 6.468235264657394 1.3110649131908796 -1 0 0
1332 1 70.96158225598526 6.468235264657394 1.3110649131908794 -1 0 0
1322 4 67.22742385934161 8.625286548046084 0.03661165958218906 -1 0 0
1328 4 70.96228142026561 8.62528654804608 0.03661165958218423 -1 0 0
1487 1 65.35929591459927 9.702716791933394 1.3110649131908783 -1 0 0
1493 1 69.09415347552327 9.702716791933394 1.3110649131908774 -1 0 0
1324 3 65.35832349114524 7.545388747735986 2.584561664794252 -1 0 0
1330 3 69.09318105206924 7.545388747735986 2.5845616647942524 -1 0 0
1485 3 67.22575227160725 10.779870275011984 2.584561664794249 -1 0 0
1491 3 70.96060983253125 10.779870275011987 2.5845616647942538 -1 0 0
1338 1 74.69643981690926 6.468235264657394 1.3110649131908796 -1 0 0
1334 4 74.69713898118961 8.625286548046084 0.03661165958218899 -1 0 0
1499 1 72.82901103644727 9.702716791933394 1.3110649131908774 -1 0 0
1505 1 76.56386859737127 9.702716791933392 1.3110649131908758 -1 0 0
1336 3 72.82803861299324 7.545388747735986 2.5845616647942524 -1 0 0
1342 3 76.56289617391724 7.545388747735985 2.584561664794251 -1 0 0
1497 3 74.69546739345525 10.779870275011984 2.584561664794249 -1 0 0
1344 1 78.43129737783326 6.468235264657394 1.3110649131908794 -1 0 0
1350 1 82.16615493875726 6.4682352646573955 1.311064913190881 -1 0 0
1340 4 78.43199654211362 8.625286548046082 0.03661165958218651 -1 0 0
1346 4 82.16685410303762 8.625286548046082 0.036611659582186505 -1 0 0
1511 1 80.29872615829527 9.702716791933394 1.3110649131908774 -1 0 0
1348 3 80.29775373484124 7.545388747735986 2.584561664794253 -1 0 0
1503 3 78.43032495437924 10.779870275011985 2.5845616647942515 -1 0 0
1509 3 82.16518251530324 10.779870275011985 2.5845616647942515 -1 0 0
1356 1 85.90101249968127 6.468235264657395 1.3110649131908794 -1 0 0
1352 4 85.90171166396162 8.625286548046082 0.03661165958218649 -1 0 0
1517 1 84.03358371921927 9.702716791933394 1.3110649131908778 -1 0 0
1523 1 87.76844128014326 9.702716791933392 1.3110649131908774 -1 0 0
1354 3 84.03261129576525 7.545388747735984 2.58456166479425 -1 0 0
1360 3 87.76746885668925 7.545388747735988 2.5845616647942555 -1 0 0
1515 3 85.90004007622724 10.779870275011985 2.5845616647942515 -1 0 0
1362 1 89.63587006060527 6.468235264657395 1.3110649131908794 -1 0 0
1368 1 93.37072762152927 6.468235264657395 1.3110649131908794 -1 0 0
1358 4 89.63656922488562 8.625286548046082 0.036611659582186575 -1 0 0
1364 4 93.37142678580962 8.625286548046082 0.036611659582186484 -1 0 0
1529 1 91.50329884106726 9.702716791933394 1.3110649131908776 -1 0 0
1366 3 91.50232641761325 7.545388747735984 2.58456166479425 -1 0 0
1521 3 89.63489763715124 10.779870275011985 2.5845616647942515 -1 0 0
1527 3 93.36975519807524 10.779870275011985 2.5845616647942515 -1 0 0
1380 1 100.84044274337727 6.468235264657394 1.3110649131908787 -1 0 0
1376 4 100.84114190765762 8.625286548046084 0.03661165958218894 -1 0 0
1539 3 100.83947031992324 10.779870275011984 2.5845616647942493 -1 0 0
1374 1 97.10558518245327 6.468235264657394 1.3110649131908794 -1 0 0
1370 4 97.10628434673362 8.625286548046082 0.03661165958218655 -1 0 0
1535 1 95.23815640199126 9.702716791933392 1.3110649131908774 -1 0 0
1541 1 98.97301396291526 9.702716791933394 1.3110649131908787 -1 0 0
1372 3 95.23718397853725 7.545388747735988 2.5845616647942555 -1 0 0
1378 3 98.97204153946124 7.545388747735984 2.58456166479425 -1 0 0
1533 3 97.10461275899924 10.779870275011985 2.5845616647942515 -1 0 0
1543 4 1.8674165431716145 11.859768075322084 0.03661165958218751 0 0 0
1548 1 3.7341461593532626 12.937198319209394 1.3110649131908787 0 0 0
1549 4 5.602274104095615 11.859768075322084 0.036611659582187046 0 0 0
1544 4 3.734845323633615 15.094249602598085 0.0366116595821879 0 0 0
1709 1 1.8667173788912625 16.171679846485397 1.3110649131908783 0 0 0
1715 1 5.601574939815262 16.171679846485397 1.3110649131908785 0 0 0
1546 3 1.8657449554372392 14.014351802287987 2.5845616647942506 0 0 0
1552 3 5.600602516361239 14.014351802287987 2.5845616647942515 0 0 0
1554 1 7.469003720277262 12.937198319209395 1.3110649131908787 0 0 0
1555 4 9.337131665019612 11.859768075322084 0.036611659582186915 0 0 0
1560 1 11.20386128120126 12.937198319209394 1.3110649131908787 0 0 0
1550 4 7.469702884557614 15.094249602598085 0.03661165958218773 0 0 0
1556 4 11.204560445481611 15.094249602598085 0.03661165958218782 0 0 0
1721 1 9.33643250073926 16.171679846485397 1.3110649131908787 0 0 0
1558 3 9.335460077285237 14.014351802287987 2.5845616647942515 0 0 0
1561 4 13.071989225943613 11.859768075322084 0.036611659582187636 0 0 0
1566 1 14.938718842125262 12.937198319209395 1.3110649131908783 0 0 0
1567 4 16.806846786867617 11.859768075322084 0.03661165958218758 0 0 0
1562 4 14.939418006405612 15.094249602598085 0.036611659582188476 0 0 0
1727 1 13.071290061663259 16.171679846485397 1.3110649131908785 0 0 0
1733 1 16.80614762258726 16.171679846485397 1.311064913190878 0 0 0
1564 3 13.070317638209238 14.014351802287987 2.5845616647942506 0 0 0
1570 3 16.805175199133238 14.014351802287987 2.5845616647942506 0 0 0
1572 1 18.673576403049264 12.937198319209395 1.3110649131908785 0 0 0
1573 4 20.541704347791615 11.859768075322084 0.03661165958218701 0 0 0
1578 1 22.408433963973263 12.937198319209395 1.3110649131908787 0 0 0
1568 4 18.674275567329612 15.094249602598085 0.036611659582187935 0 0 0
1574 4 22.40913312825361 15.094249602598085 0.03661165958218797 0 0 0
1739 1 20.54100518351126 16.171679846485397 1.3110649131908785 0 0 0
1576 3 20.540032760057237 14.014351802287987 2.5845616647942515 0 0 0
1579 4 24.276561908715614 11.859768075322084 0.03661165958218697 0 0 0
1584 1 26.14329152489726 12.937198319209395 1.3110649131908783 0 0 0
1585 4 28.011419469639613 11.859768075322084 0.03661165958218825 0 0 0
1580 4 26.143990689177613 15.094249602598087 0.03661165958218935 0 0 0
1745 1 24.27586274443526 16.171679846485397 1.3110649131908785 0 0 0
1751 1 28.01072030535926 16.171679846485397 1.3110649131908787 0 0 0
1582 3 24.27489032098124 14.014351802287987 2.5845616647942515 0 0 0
1588 3 28.009747881905238 14.014351802287987 2.58456166479425 0 0 0
1590 1 29.87814908582126 12.937198319209395 1.3110649131908783 0 0 0
1591 4 31.746277030563615 11.859768075322084 0.03661165958218704 0 0 0
1596 1 33.61300664674526 12.937198319209395 1.3110649131908794 0 0 0
1597 4 35.48113459148761 11.859768075322084 0.036611659582187046 0 0 0
1586 4 29.878848250101615 15.094249602598087 0.03661165958218894 0 0 0
1592 4 33.61370581102562 15.094249602598085 0.03661165958218748 0 0 0
1757 1 31.745577866283263 16.171679846485397 1.311064913190878 0 0 0
1763 1 35.48043542720726 16.171679846485397 1.3110649131908787 0 0 0
1594 3 31.74460544282924 14.014351802287987 2.5845616647942515 0 0 0
1600 3 35.47946300375324 14.014351802287987 2.5845616647942515 0 0 0
1602 1 37.34786420766926 12.937198319209395 1.3110649131908787 0 0 0
1603 4 39.21599215241161 11.859768075322084 0.036611659582187026 0 0 0
1608 1 41.08272176859326 12.937198319209395 1.3110649131908787 0 0 0
1598 4 37.348563371949616 15.094249602598085 0.03661165958218788 0 0 0
1604 4 41.083420932873615 15.094249602598085 0.03661165958218787 0 0 0
1769 1 39.21529298813126 16.171679846485397 1.3110649131908787 0 0 0
1606 3 39.21432056467724 14.014351802287987 2.5845616647942515 0 0 0
1609 4 42.95084971333561 11.859768075322084 0.036611659582187026 0 0 0
1614 1 44.81757932951726 12.937198319209395 1.3110649131908787 0 0 0
1615 4 46.68570727425961 11.859768075322085 0.03661165958218842 0 0 0
1610 4 44.818278493797614 15.094249602598085 0.03661165958218863 0 0 0
1775 1 42.95015054905526 16.171679846485397 1.3110649131908787 0 0 0
1781 1 46.685008109979265 16.171679846485397 1.3110649131908785 0 0 0
1612 3 42.949178125601236 14.014351802287987 2.5845616647942515 0 0 0
1618 3 46.68403568652524 14.014351802287987 2.5845616647942498 0 0 0
1620 1 48.552436890441264 12.937198319209394 1.3110649131908778 0 0 0
1459 4 50.42056483518362 11.859768075322084 0.03661165958218882 -1 0 0
1464 1 52.28729445136527 12.937198319209394 1.3110649131908787 -1 0 0
1616 4 48.55313605472162 15.094249602598085 0.03661165958218935 0 0 0
1460 4 52.28799361564562 15.094249602598085 0.03661165958218844 -1 0 0
1625 1 50.41986567090326 16.171679846485397 1.3110649131908785 -1 0 0
1462 3 50.41889324744924 14.014351802287987 2.5845616647942498 -1 0 0
1465 4 54.15542239610762 11.859768075322084 0.036611659582186915 -1 0 0
1470 1 56.02215201228927 12.937198319209395 1.3110649131908787 -1 0 0
1471 4 57.890279957031616 11.859768075322084 0.03661165958218748 -1 0 0
1466 4 56.022851176569624 15.094249602598085 0.03661165958218856 -1 0 0
1631 1 54.15472323182727 16.171679846485397 1.3110649131908785 -1 0 0
1637 1 57.88958079275127 16.171679846485397 1.3110649131908785 -1 0 0
1468 3 54.153750808373246 14.014351802287987 2.5845616647942515 -1 0 0
1474 3 57.888608369297245 14.014351802287988 2.584561664794251 -1 0 0
1476 1 59.75700957321327 12.937198319209395 1.3110649131908794 -1 0 0
1477 4 61.625137517955615 11.859768075322084 0.03661165958218697 -1 0 0
1482 1 63.491867134137266 12.937198319209394 1.311064913190877 -1 0 0
1472 4 59.75770873749362 15.094249602598085 0.03661165958218789 -1 0 0
1478 4 63.49256629841762 15.094249602598085 0.03661165958218782 -1 0 0
1643 1 61.62443835367527 16.171679846485397 1.3110649131908785 -1 0 0
1480 3 61.62346593022124 14.014351802287987 2.5845616647942515 -1 0 0
1483 4 65.35999507887962 11.859768075322084 0.03661165958218767 -1 0 0
1488 1 67.22672469506126 12.937198319209394 1.3110649131908787 -1 0 0
1489 4 69.09485263980362 11.859768075322084 0.036611659582187005 -1 0 0
1494 1 70.96158225598526 12.937198319209394 1.3110649131908785 -1 0 0
1484 4 67.22742385934161 15.094249602598087 0.0366116595821904 -1 0 0
1490 4 70.96228142026561 15.094249602598083 0.03661165958218534 -1 0 0
1649 1 65.35929591459927 16.171679846485397 1.3110649131908791 -1 0 0
1655 1 69.09415347552327 16.171679846485397 1.311064913190878 -1 0 0
1486 3 65.35832349114524 14.014351802287987 2.5845616647942506 -1 0 0
1492 3 69.09318105206924 14.014351802287987 2.5845616647942515 -1 0 0
1495 4 72.82971020072762 11.859768075322084 0.03661165958218708 -1 0 0
1500 1 74.69643981690926 12.937198319209394 1.3110649131908787 -1 0 0
1501 4 76.56456776165162 11.859768075322085 0.03661165958218842 -1 0 0
1496 4 74.69713898118961 15.094249602598087 0.03661165958219032 -1 0 0
1661 1 72.82901103644727 16.171679846485397 1.3110649131908783 -1 0 0
1667 1 76.56386859737127 16.171679846485397 1.3110649131908767 -1 0 0
1498 3 72.82803861299324 14.014351802287987 2.5845616647942515 -1 0 0
1504 3 76.56289617391724 14.014351802287987 2.5845616647942498 -1 0 0
1506 1 78.43129737783326 12.937198319209395 1.3110649131908785 -1 0 0
1507 4 80.29942532257562 11.859768075322084 0.03661165958218698 -1 0 0
1512 1 82.16615493875727 12.937198319209395 1.3110649131908798 -1 0 0
1502 4 78.43199654211362 15.094249602598085 0.0366116595821878 -1 0 0
1508 4 82.16685410303762 15.094249602598085 0.036611659582187775 -1 0 0
1673 1 80.29872615829527 16.171679846485397 1.3110649131908787 -1 0 0
1510 3 80.29775373484124 14.014351802287987 2.5845616647942515 -1 0 0
1513 4 84.03428288349961 11.859768075322085 0.03661165958218961 -1 0 0
1518 1 85.90101249968127 12.937198319209394 1.3110649131908785 -1 0 0
1519 4 87.76914044442361 11.85976807532208 0.03661165958218474 -1 0 0
1514 4 85.90171166396162 15.094249602598085 0.036611659582187886 -1 0 0
1679 1 84.03358371921927 16.171679846485397 1.3110649131908783 -1 0 0
1685 1 87.76844128014326 16.171679846485397 1.3110649131908785 -1 0 0
1516 3 84.03261129576525 14.014351802287987 2.584561664794249 -1 0 0
1522 3 87.76746885668925 14.01435180228799 2.584561664794254 -1 0 0
1524 1 89.63587006060527 12.937198319209395 1.3110649131908785 -1 0 0
1525 4 91.50399800534761 11.859768075322085 0.03661165958218964 -1 0 0
1530 1 93.37072762152927 12.937198319209394 1.3110649131908785 -1 0 0
1520 4 89.63656922488562 15.094249602598085 0.03661165958218796 -1 0 0
1526 4 93.37142678580962 15.094249602598085 0.036611659582187886 -1 0 0
1691 1 91.50329884106726 16.171679846485397 1.3110649131908783 -1 0 0
1528 3 91.50232641761325 14.014351802287987 2.584561664794249 -1 0 0
1542 1 100.84044274337727 12.937198319209394 1.311064913190878 -1 0 0
1538 4 100.84114190765762 15.094249602598087 0.03661165958219021 -1 0 0
1531 4 95.23885556627161 11.85976807532208 0.03661165958218474 -1 0 0
1536 1 97.10558518245327 12.937198319209395 1.3110649131908785 -1 0 0
1537 4 98.97371312719561 11.859768075322084 0.03661165958218937 -1 0 0
1532 4 97.10628434673362 15.094249602598085 0.036611659582187955 -1 0 0
1697 1 95.23815640199126 16.171679846485397 1.3110649131908785 -1 0 0
1703 1 98.97301396291526 16.171679846485397 1.311064913190879 -1 0 0
1534 3 95.23718397853725 14.01435180228799 2.5845616647942538 -1 0 0
1540 3 98.97204153946124 14.014351802287987 2.5845616647942493 -1 0 0
1705 4 1.8674165431716145 18.328731129874086 0.036611659582186734 0 0 0
1711 4 5.602274104095615 18.328731129874086 0.03661165958218629 0 0 0
1710 1 3.7341461593532626 19.406161373761396 1.3110649131908785 0 0 0
1871 1 1.8667173788912625 22.640642901037392 1.3110649131908783 0 0 0
1706 4 3.734845323633615 21.563212657150082 0.03661165958218542 0 0 0
1877 1 5.6015749398152614 22.640642901037392 1.3110649131908785 0 0 0
1707 3 3.733173735899239 17.24883332956399 2.584561664794253 0 0 0
1708 3 1.8657449554372392 20.483314856839982 2.5845616647942533 0 0 0
1714 3 5.600602516361239 20.483314856839982 2.5845616647942538 0 0 0
1717 4 9.337131665019612 18.328731129874086 0.03661165958218616 0 0 0
1716 1 7.469003720277262 19.406161373761396 1.3110649131908787 0 0 0
1722 1 11.20386128120126 19.406161373761396 1.3110649131908787 0 0 0
1712 4 7.469702884557614 21.563212657150082 0.03661165958218524 0 0 0
1883 1 9.33643250073926 22.640642901037392 1.311064913190879 0 0 0
1718 4 11.204560445481611 21.563212657150082 0.03661165958218536 0 0 0
1713 3 7.468031296823239 17.24883332956399 2.584561664794253 0 0 0
1719 3 11.202888857747237 17.24883332956399 2.584561664794253 0 0 0
1720 3 9.335460077285237 20.483314856839982 2.584561664794254 0 0 0
1723 4 13.071989225943613 18.328731129874086 0.03661165958218688 0 0 0
1729 4 16.806846786867617 18.328731129874086 0.03661165958218675 0 0 0
1728 1 14.938718842125262 19.406161373761396 1.311064913190879 0 0 0
1889 1 13.071290061663259 22.640642901037392 1.3110649131908783 0 0 0