LAMMPS data file via write_data, version 29 Aug 2024, timestep = 2, units = metal

6120 atoms
24 atom types

0 100.30329129156 xlo xhi
0 98.447224787226 ylo yhi
-50 50 zlo zhi

Masses

1 50.9415
2 50.9415
3 50.9415
4 50.9415
5 50.9415
6 50.9415
7 50.9415
8 50.9415
9 78.971
10 78.971
11 78.971
12 78.971
13 78.971
14 78.971
15 78.971
16 78.971
17 78.971
18 78.971
19 78.971
20 78.971
21 78.971
22 78.971
23 78.971
24 78.971

Atoms # atomic

1536 16 0 0.9651688366240248 0.026780934110227347 0 0 0
1542 12 3.3434430430519995 0.9651688366240256 0.026780934110226258 0 0 0
1711 3 0 2.89550639806521 1.6002077251547768 0 0 0
1717 1 3.3434430430520004 2.895506398065208 1.600207725154777 0 0 0
1713 14 1.6717215215260006 3.8606754480130254 0.02678093411022661 0 0 0
1719 10 5.015164564578 3.8606754480130254 0.026780934110226737 0 0 0
1714 4 1.6717215215259997 5.791013009454207 1.600207725154777 0 0 0
1720 2 5.015164564577998 5.791013009454208 1.600207725154777 0 0 0
1548 16 6.686886086103997 0.9651688366240256 0.02678093411022618 0 0 0
1554 12 10.030329129156 0.9651688366240256 0.026780934110226105 0 0 0
1723 3 6.686886086103999 2.8955063980652076 1.600207725154777 0 0 0
1729 1 10.030329129156 2.895506398065208 1.600207725154777 0 0 0
1725 14 8.358607607629999 3.860675448013025 0.0267809341102271 0 0 0
1731 10 11.702050650681999 3.8606754480130254 0.02678093411022678 0 0 0
1726 4 8.358607607629999 5.791013009454208 1.6002077251547768 0 0 0
1732 2 11.702050650681999 5.791013009454208 1.600207725154777 0 0 0
1560 16 13.373772172207998 0.9651688366240256 0.026780934110226272 0 0 0
1566 12 16.71721521526 0.9651688366240253 0.026780934110226466 0 0 0
1735 3 13.373772172207998 2.8955063980652076 1.6002077251547773 0 0 0
1741 1 16.71721521526 2.8955063980652085 1.600207725154777 0 0 0
1737 14 15.045493693733997 3.860675448013025 0.026780934110227236 0 0 0
1738 4 15.045493693733999 5.7910130094542085 1.6002077251547773 0 0 0
1572 16 20.060658258312 0.9651688366240253 0.026780934110226647 0 0 0
1578 12 23.404101301364 0.9651688366240261 0.02678093411022561 0 0 0
1747 3 20.060658258312 2.8955063980652085 1.600207725154777 0 0 0
1753 1 23.404101301364 2.895506398065207 1.600207725154777 0 0 0
1743 10 18.388936736786 3.860675448013026 0.02678093411022607 0 0 0
1749 14 21.732379779838002 3.860675448013025 0.02678093411022726 0 0 0
1744 2 18.388936736786 5.791013009454207 1.6002077251547773 0 0 0
1750 4 21.732379779838002 5.791013009454208 1.6002077251547773 0 0 0
1584 16 26.747544344416003 0.9651688366240253 0.026780934110226712 0 0 0
1759 3 26.747544344416003 2.8955063980652085 1.6002077251547773 0 0 0
1755 10 25.07582282289 3.860675448013025 0.026780934110227257 0 0 0
1761 14 28.419265865942002 3.860675448013026 0.026780934110226053 0 0 0
1756 2 25.07582282289 5.791013009454208 1.6002077251547773 0 0 0
1762 4 28.419265865942002 5.791013009454207 1.6002077251547773 0 0 0
1590 12 30.090987387467997 0.9651688366240261 0.026780934110225613 0 0 0
1596 16 33.43443043052 0.9651688366240252 0.0267809341102267 0 0 0
1765 1 30.090987387467997 2.8955063980652076 1.600207725154777 0 0 0
1771 3 33.434430430519996 2.8955063980652085 1.600207725154777 0 0 0
1767 10 31.762708908993996 3.860675448013025 0.02678093411022701 0 0 0
1773 14 35.106151952046 3.860675448013026 0.026780934110226553 0 0 0
1768 2 31.762708908993996 5.7910130094542085 1.6002077251547773 0 0 0
1774 4 35.106151952046 5.791013009454207 1.600207725154777 0 0 0
1602 12 36.777873473571994 0.9651688366240253 0.026780934110226442 0 0 0
1608 16 40.121316516624 0.965168836624026 0.02678093411022613 0 0 0
1777 1 36.777873473572 2.8955063980652085 1.600207725154777 0 0 0
1783 3 40.121316516624 2.895506398065207 1.600207725154777 0 0 0
1779 10 38.449594995098 3.860675448013025 0.02678093411022706 0 0 0
1780 2 38.449594995097996 5.791013009454208 1.6002077251547773 0 0 0
1614 12 43.464759559676004 0.9651688366240253 0.026780934110226442 0 0 0
1620 16 46.808202602727995 0.9651688366240253 0.026780934110226428 0 0 0
1789 1 43.464759559676 2.8955063980652085 1.600207725154777 0 0 0
1795 3 46.808202602728 2.8955063980652085 1.600207725154777 0 0 0
1785 14 41.793038038149994 3.860675448013025 0.02678093411022706 0 0 0
1791 10 45.136481081202 3.860675448013026 0.026780934110226508 0 0 0
1786 4 41.79303803815 5.791013009454208 1.6002077251547773 0 0 0
1792 2 45.136481081202 5.791013009454207 1.600207725154777 0 0 0
1446 12 50.15164564578 0.9651688366240255 0.026780934110226456 -1 0 0
1621 1 50.15164564578 2.895506398065208 1.6002077251547773 -1 0 0
1797 14 48.479924124254005 3.860675448013025 0.026780934110226844 0 0 0
1623 10 51.823367167306 3.8606754480130254 0.026780934110226758 -1 0 0
1798 4 48.479924124254 5.7910130094542085 1.600207725154777 0 0 0
1624 2 51.823367167306 5.791013009454208 1.600207725154777 -1 0 0
1452 16 53.495088688832 0.9651688366240257 0.026780934110225956 -1 0 0
1458 12 56.838531731884004 0.9651688366240257 0.02678093411022597 -1 0 0
1627 3 53.495088688832 2.8955063980652076 1.600207725154777 -1 0 0
1633 1 56.838531731884004 2.8955063980652076 1.600207725154777 -1 0 0
1629 14 55.166810210358 3.8606754480130245 0.026780934110227406 -1 0 0
1635 10 58.51025325341 3.860675448013026 0.026780934110226595 -1 0 0
1630 4 55.166810210358 5.7910130094542085 1.600207725154777 -1 0 0
1636 2 58.51025325341 5.791013009454208 1.600207725154777 -1 0 0
1464 16 60.181974774936 0.9651688366240251 0.026780934110226886 -1 0 0
1470 12 63.525417817988 0.9651688366240264 0.026780934110225165 -1 0 0
1639 3 60.181974774936 2.895506398065209 1.6002077251547773 -1 0 0
1645 1 63.525417817988 2.8955063980652067 1.6002077251547773 -1 0 0
1641 14 61.853696296462005 3.8606754480130254 0.026780934110226758 -1 0 0
1642 4 61.853696296462005 5.791013009454208 1.600207725154777 -1 0 0
1476 16 66.86886086104 0.9651688366240251 0.026780934110226855 -1 0 0
1482 12 70.212303904092 0.9651688366240251 0.026780934110226855 -1 0 0
1651 3 66.86886086104 2.895506398065209 1.600207725154777 -1 0 0
1657 1 70.212303904092 2.895506398065209 1.600207725154777 -1 0 0
1647 10 65.197139339514 3.860675448013025 0.026780934110227465 -1 0 0
1653 14 68.540582382566 3.8606754480130263 0.026780934110225686 -1 0 0
1648 2 65.197139339514 5.7910130094542085 1.600207725154777 -1 0 0
1654 4 68.540582382566 5.791013009454206 1.600207725154777 -1 0 0
1488 16 73.555746947144 0.9651688366240262 0.026780934110225443 -1 0 0
1663 3 73.555746947144 2.8955063980652067 1.6002077251547773 -1 0 0
1659 10 71.884025425618 3.860675448013025 0.026780934110227417 -1 0 0
1665 14 75.22746846867 3.8606754480130263 0.026780934110225897 -1 0 0
1660 2 71.884025425618 5.7910130094542085 1.6002077251547773 -1 0 0
1666 4 75.22746846867 5.791013009454206 1.6002077251547773 -1 0 0
1494 12 76.89918999019599 0.9651688366240251 0.026780934110226924 -1 0 0
1500 16 80.242633033248 0.9651688366240253 0.026780934110226556 -1 0 0
1669 1 76.89918999019599 2.895506398065209 1.600207725154777 -1 0 0
1675 3 80.242633033248 2.8955063980652085 1.6002077251547773 -1 0 0
1671 10 78.570911511722 3.860675448013025 0.02678093411022707 -1 0 0
1677 14 81.91435455477401 3.860675448013025 0.0267809341102274 -1 0 0
1672 2 78.570911511722 5.791013009454208 1.6002077251547773 -1 0 0
1678 4 81.91435455477401 5.7910130094542085 1.6002077251547773 -1 0 0
1506 12 83.5860760763 0.9651688366240262 0.02678093411022543 -1 0 0
1512 16 86.929519119352 0.9651688366240251 0.026780934110226924 -1 0 0
1681 1 83.5860760763 2.895506398065207 1.600207725154777 -1 0 0
1687 3 86.929519119352 2.895506398065209 1.600207725154777 -1 0 0
1683 10 85.257797597826 3.8606754480130263 0.026780934110225894 -1 0 0
1684 2 85.257797597826 5.791013009454206 1.6002077251547773 -1 0 0
1518 12 90.272962162404 0.9651688366240253 0.026780934110226556 -1 0 0
1524 16 93.616405205456 0.9651688366240262 0.026780934110225453 -1 0 0
1693 1 90.272962162404 2.8955063980652085 1.6002077251547773 -1 0 0
1699 3 93.616405205456 2.895506398065207 1.600207725154777 -1 0 0
1689 14 88.601240640878 3.860675448013025 0.02678093411022707 -1 0 0
1695 10 91.94468368393001 3.860675448013025 0.026780934110227396 -1 0 0
1690 4 88.601240640878 5.791013009454208 1.6002077251547773 -1 0 0
1696 2 91.94468368393001 5.7910130094542085 1.6002077251547773 -1 0 0
1530 12 96.959848248508 0.9651688366240262 0.02678093411022546 -1 0 0
1705 1 96.959848248508 2.895506398065207 1.6002077251547773 -1 0 0
1701 14 95.288126726982 3.860675448013026 0.026780934110226327 -1 0 0
1707 10 98.63156977003399 3.860675448013025 0.026780934110227347 -1 0 0
1702 4 95.288126726982 5.791013009454207 1.6002077251547773 -1 0 0
1708 2 98.63156977003399 5.7910130094542085 1.600207725154777 -1 0 0
1716 16 0 6.756182059402023 0.026780934110227403 0 0 0
1722 12 3.3434430430519995 6.756182059402024 0.026780934110226147 0 0 0
1891 3 0 8.686519620843209 1.6002077251547768 0 0 0
1897 1 3.3434430430520004 8.686519620843207 1.6002077251547773 0 0 0
1893 14 1.6717215215260006 9.651688670791025 0.02678093411022676 0 0 0
1899 10 5.015164564578 9.651688670791025 0.026780934110226702 0 0 0
1894 4 1.6717215215259997 11.582026232232208 1.6002077251547773 0 0 0
1900 2 5.015164564577999 11.582026232232208 1.600207725154777 0 0 0
1728 16 6.686886086103997 6.756182059402024 0.02678093411022634 0 0 0
1734 12 10.030329129156 6.756182059402024 0.026780934110226227 0 0 0
1903 3 6.686886086103999 8.686519620843207 1.600207725154777 0 0 0
1909 1 10.030329129156 8.686519620843207 1.600207725154777 0 0 0
1905 14 8.358607607629999 9.651688670791025 0.026780934110227136 0 0 0
1911 10 11.702050650681999 9.651688670791025 0.026780934110226633 0 0 0
1906 4 8.358607607629999 11.58202623223221 1.600207725154777 0 0 0
1912 2 11.702050650681999 11.582026232232208 1.600207725154777 0 0 0
1740 16 13.373772172207998 6.756182059402024 0.02678093411022637 0 0 0
1746 12 16.71721521526 6.756182059402023 0.02678093411022658 0 0 0
1915 3 13.373772172207998 8.686519620843207 1.600207725154777 0 0 0
1921 1 16.71721521526 8.686519620843207 1.600207725154777 0 0 0
1917 14 15.045493693733997 9.651688670791025 0.026780934110227004 0 0 0
1918 4 15.045493693733999 11.58202623223221 1.600207725154777 0 0 0
1752 16 20.060658258312 6.756182059402023 0.026780934110226737 0 0 0
1758 12 23.404101301364 6.756182059402024 0.02678093411022548 0 0 0
1927 3 20.060658258312 8.686519620843207 1.600207725154777 0 0 0
1933 1 23.404101301364 8.686519620843205 1.600207725154777 0 0 0
1923 10 18.388936736786 9.651688670791025 0.026780934110225925 0 0 0
1929 14 21.732379779838002 9.651688670791025 0.026780934110227216 0 0 0
1924 2 18.388936736786 11.582026232232208 1.600207725154777 0 0 0
1930 4 21.732379779838002 11.58202623223221 1.6002077251547773 0 0 0
1764 16 26.747544344416003 6.756182059402023 0.026780934110226782 0 0 0
1939 3 26.747544344416003 8.686519620843207 1.600207725154777 0 0 0
1935 10 25.07582282289 9.651688670791025 0.026780934110227212 0 0 0
1941 14 28.419265865942002 9.651688670791025 0.026780934110226036 0 0 0
1936 2 25.07582282289 11.58202623223221 1.6002077251547773 0 0 0
1942 4 28.419265865942002 11.582026232232208 1.600207725154777 0 0 0
1770 12 30.090987387467997 6.756182059402024 0.02678093411022564 0 0 0
1776 16 33.43443043052 6.756182059402023 0.02678093411022679 0 0 0
1945 1 30.090987387467997 8.686519620843205 1.600207725154777 0 0 0
1951 3 33.434430430519996 8.686519620843207 1.600207725154777 0 0 0
1947 10 31.762708908993996 9.651688670791025 0.02678093411022692 0 0 0
1953 14 35.106151952046 9.651688670791025 0.02678093411022654 0 0 0
1948 2 31.762708908993996 11.58202623223221 1.600207725154777 0 0 0
1954 4 35.106151952046 11.582026232232208 1.600207725154777 0 0 0
1782 12 36.777873473571994 6.756182059402023 0.026780934110226532 0 0 0
1788 16 40.121316516624 6.756182059402024 0.026780934110225883 0 0 0
1957 1 36.777873473572 8.686519620843207 1.600207725154777 0 0 0
1963 3 40.121316516624 8.686519620843205 1.600207725154777 0 0 0
1959 10 38.449594995098 9.651688670791025 0.026780934110226945 0 0 0
1960 2 38.449594995097996 11.58202623223221 1.600207725154777 0 0 0
1794 12 43.464759559676004 6.756182059402023 0.026780934110226532 0 0 0
1800 16 46.808202602727995 6.756182059402023 0.026780934110226553 0 0 0
1969 1 43.464759559676 8.686519620843207 1.600207725154777 0 0 0
1975 3 46.808202602728 8.686519620843207 1.600207725154777 0 0 0
1965 14 41.793038038149994 9.651688670791025 0.026780934110226945 0 0 0
1971 10 45.136481081202 9.651688670791025 0.026780934110226494 0 0 0
1966 4 41.79303803815 11.58202623223221 1.600207725154777 0 0 0
1972 2 45.136481081202 11.582026232232208 1.600207725154777 0 0 0
1626 12 50.15164564578 6.756182059402024 0.026780934110226615 -1 0 0
1801 1 50.15164564578 8.686519620843207 1.600207725154777 -1 0 0
1977 14 48.479924124254005 9.651688670791025 0.026780934110226626 0 0 0
1803 10 51.823367167306 9.651688670791025 0.026780934110226737 -1 0 0
1978 4 48.479924124254 11.58202623223221 1.600207725154777 0 0 0
1804 2 51.823367167306 11.582026232232208 1.600207725154777 -1 0 0
1632 16 53.495088688832 6.756182059402024 0.02678093411022616 -1 0 0
1638 12 56.838531731884004 6.756182059402024 0.026780934110226147 -1 0 0
1807 3 53.495088688832 8.686519620843207 1.600207725154777 -1 0 0
1813 1 56.838531731884004 8.686519620843207 1.600207725154777 -1 0 0
1809 14 55.166810210358 9.651688670791025 0.026780934110227455 -1 0 0
1815 10 58.51025325341 9.651688670791025 0.026780934110226553 -1 0 0
1810 4 55.166810210358 11.58202623223221 1.600207725154777 -1 0 0
1816 2 58.51025325341 11.582026232232208 1.600207725154777 -1 0 0
1644 16 60.181974774936 6.756182059402023 0.026780934110227042 -1 0 0
1650 12 63.525417817988 6.756182059402024 0.026780934110225425 -1 0 0
1819 3 60.181974774936 8.686519620843207 1.600207725154777 -1 0 0
1825 1 63.525417817988 8.686519620843205 1.6002077251547768 -1 0 0
1821 14 61.853696296462005 9.651688670791025 0.02678093411022662 -1 0 0
1822 4 61.853696296462005 11.582026232232208 1.6002077251547773 -1 0 0
1656 16 66.86886086104 6.756182059402023 0.026780934110227025 -1 0 0
1662 12 70.212303904092 6.756182059402023 0.026780934110226997 -1 0 0
1831 3 66.86886086104 8.686519620843207 1.600207725154777 -1 0 0
1837 1 70.212303904092 8.686519620843207 1.600207725154777 -1 0 0
1827 10 65.197139339514 9.651688670791025 0.026780934110227392 -1 0 0
1833 14 68.540582382566 9.651688670791025 0.026780934110225547 -1 0 0
1828 2 65.197139339514 11.58202623223221 1.600207725154777 -1 0 0
1834 4 68.540582382566 11.582026232232206 1.600207725154777 -1 0 0
1668 16 73.555746947144 6.756182059402024 0.026780934110225457 -1 0 0
1843 3 73.555746947144 8.686519620843205 1.600207725154777 -1 0 0
1839 10 71.884025425618 9.651688670791025 0.026780934110227396 -1 0 0
1845 14 75.22746846867 9.651688670791025 0.026780934110225876 -1 0 0
1840 2 71.884025425618 11.58202623223221 1.6002077251547768 -1 0 0
1846 4 75.22746846867 11.582026232232206 1.600207725154777 -1 0 0
1674 12 76.89918999019599 6.756182059402023 0.026780934110227 -1 0 0
1680 16 80.242633033248 6.756182059402023 0.02678093411022667 -1 0 0
1849 1 76.89918999019599 8.686519620843207 1.600207725154777 -1 0 0
1855 3 80.242633033248 8.686519620843207 1.6002077251547768 -1 0 0
1851 10 78.570911511722 9.651688670791025 0.026780934110226945 -1 0 0
1857 14 81.91435455477401 9.651688670791025 0.026780934110227392 -1 0 0
1852 2 78.570911511722 11.58202623223221 1.6002077251547773 -1 0 0
1858 4 81.91435455477401 11.58202623223221 1.600207725154777 -1 0 0
1686 12 83.5860760763 6.756182059402024 0.02678093411022546 -1 0 0
1692 16 86.929519119352 6.756182059402023 0.026780934110227 -1 0 0
1861 1 83.5860760763 8.686519620843205 1.600207725154777 -1 0 0
1867 3 86.929519119352 8.686519620843207 1.600207725154777 -1 0 0
1863 10 85.257797597826 9.651688670791025 0.026780934110225873 -1 0 0
1864 2 85.257797597826 11.582026232232206 1.600207725154777 -1 0 0
1698 12 90.272962162404 6.756182059402023 0.02678093411022667 -1 0 0
1704 16 93.616405205456 6.756182059402024 0.026780934110225484 -1 0 0
1873 1 90.272962162404 8.686519620843207 1.6002077251547768 -1 0 0
1879 3 93.616405205456 8.686519620843205 1.600207725154777 -1 0 0
1869 14 88.601240640878 9.651688670791025 0.026780934110226945 -1 0 0
1875 10 91.94468368393001 9.651688670791025 0.026780934110227386 -1 0 0
1870 4 88.601240640878 11.58202623223221 1.6002077251547773 -1 0 0
1876 2 91.94468368393001 11.58202623223221 1.600207725154777 -1 0 0
1710 12 96.959848248508 6.756182059402024 0.026780934110225477 -1 0 0
1885 1 96.959848248508 8.686519620843205 1.600207725154777 -1 0 0
1881 14 95.288126726982 9.651688670791025 0.026780934110226272 -1 0 0
1887 10 98.63156977003399 9.651688670791025 0.026780934110227205 -1 0 0
1882 4 95.288126726982 11.582026232232208 1.6002077251547773 -1 0 0
1888 2 98.63156977003399 11.58202623223221 1.600207725154777 -1 0 0
1896 16 0 12.547195282180025 0.026780934110227847 0 0 0
1902 12 3.343443043051999 12.547195282180027 0.026780934110226744 0 0 0
2073 14 1.6717215215260006 15.442701893569028 0.026780934110226372 0 0 0
2071 3 0 14.477532843621212 1.6002077251547768 0 0 0
2077 1 3.3434430430520004 14.47753284362121 1.6002077251547773 0 0 0
2079 10 5.015164564578 15.442701893569028 0.026780934110226445 0 0 0
2074 4 1.6717215215259995 17.373039455010208 1.6002077251547773 0 0 0
2080 2 5.015164564577999 17.373039455010208 1.600207725154777 0 0 0
1908 16 6.686886086103998 12.547195282180027 0.026780934110226737 0 0 0
1914 12 10.030329129156 12.547195282180027 0.0267809341102268 0 0 0
2083 3 6.686886086103999 14.47753284362121 1.600207725154777 0 0 0
2085 14 8.358607607629999 15.442701893569028 0.026780934110226685 0 0 0
2089 1 10.030329129156 14.47753284362121 1.600207725154777 0 0 0
2091 10 11.702050650681999 15.442701893569028 0.02678093411022639 0 0 0
2086 4 8.358607607629999 17.373039455010208 1.600207725154777 0 0 0
2092 2 11.702050650681999 17.373039455010208 1.600207725154777 0 0 0
1920 16 13.373772172207998 12.547195282180027 0.02678093411022687 0 0 0
1926 12 16.71721521526 12.547195282180027 0.02678093411022703 0 0 0
2095 3 13.373772172207998 14.47753284362121 1.600207725154777 0 0 0
2097 14 15.045493693733997 15.442701893569028 0.02678093411022687 0 0 0
2101 1 16.71721521526 14.47753284362121 1.6002077251547773 0 0 0
2098 4 15.045493693734 17.373039455010208 1.6002077251547773 0 0 0
1932 16 20.060658258312 12.547195282180027 0.026780934110227115 0 0 0
1938 12 23.404101301364 12.547195282180027 0.02678093411022597 0 0 0
2103 10 18.388936736786 15.442701893569028 0.026780934110225748 0 0 0
2107 3 20.060658258312 14.47753284362121 1.600207725154777 0 0 0
2109 14 21.732379779838002 15.442701893569028 0.026780934110226872 0 0 0
2113 1 23.404101301364 14.47753284362121 1.600207725154777 0 0 0
2104 2 18.388936736786 17.373039455010208 1.600207725154777 0 0 0
2110 4 21.732379779838002 17.373039455010208 1.6002077251547773 0 0 0
1944 16 26.747544344416003 12.547195282180027 0.026780934110227157 0 0 0
2115 10 25.07582282289 15.442701893569028 0.026780934110226872 0 0 0
2119 3 26.747544344416003 14.47753284362121 1.6002077251547773 0 0 0
2121 14 28.419265865942002 15.442701893569028 0.026780934110225713 0 0 0
2116 2 25.07582282289 17.373039455010208 1.6002077251547773 0 0 0
2122 4 28.419265865942002 17.373039455010208 1.600207725154777 0 0 0
1950 12 30.090987387467997 12.547195282180027 0.02678093411022612 0 0 0
1956 16 33.43443043052 12.547195282180027 0.026780934110227094 0 0 0
2125 1 30.090987387467997 14.477532843621209 1.6002077251547773 0 0 0
2127 10 31.762708908993996 15.442701893569028 0.02678093411022667 0 0 0
2131 3 33.434430430519996 14.47753284362121 1.600207725154777 0 0 0
2133 14 35.106151952046 15.442701893569026 0.026780934110226227 0 0 0
2128 2 31.762708908993996 17.37303945501021 1.6002077251547773 0 0 0
2134 4 35.106151952046 17.373039455010208 1.600207725154777 0 0 0
1962 12 36.777873473571994 12.547195282180027 0.026780934110226848 0 0 0
1968 16 40.121316516624 12.547195282180027 0.02678093411022652 0 0 0
2137 1 36.777873473572 14.47753284362121 1.6002077251547773 0 0 0
2139 10 38.449594995098 15.442701893569028 0.026780934110226667 0 0 0
2143 3 40.121316516624 14.47753284362121 1.6002077251547768 0 0 0
2140 2 38.449594995097996 17.373039455010208 1.6002077251547773 0 0 0
1974 12 43.464759559676004 12.547195282180027 0.026780934110226844 0 0 0
1980 16 46.808202602727995 12.547195282180027 0.026780934110226945 0 0 0
2145 14 41.793038038149994 15.442701893569028 0.02678093411022667 0 0 0
2149 1 43.464759559676 14.47753284362121 1.6002077251547773 0 0 0
2151 10 45.136481081202 15.442701893569028 0.02678093411022619 0 0 0
2155 3 46.808202602728 14.47753284362121 1.6002077251547773 0 0 0
2146 4 41.79303803815 17.373039455010208 1.6002077251547773 0 0 0
2152 2 45.136481081202 17.373039455010208 1.600207725154777 0 0 0
1806 12 50.15164564578 12.547195282180027 0.026780934110227056 -1 0 0
2157 14 48.479924124254005 15.442701893569028 0.026780934110226425 0 0 0
1983 10 51.823367167306 15.442701893569028 0.02678093411022649 -1 0 0
1981 1 50.15164564578 14.47753284362121 1.600207725154777 -1 0 0
2158 4 48.479924124254 17.373039455010208 1.6002077251547773 0 0 0
1984 2 51.823367167306 17.373039455010208 1.600207725154777 -1 0 0
1812 16 53.495088688832 12.547195282180027 0.02678093411022658 -1 0 0
1818 12 56.838531731884004 12.547195282180027 0.026780934110226574 -1 0 0
1987 3 53.495088688832 14.47753284362121 1.600207725154777 -1 0 0
1989 14 55.166810210358 15.442701893569028 0.026780934110226993 -1 0 0
1993 1 56.838531731884004 14.47753284362121 1.600207725154777 -1 0 0
1995 10 58.51025325341 15.442701893569028 0.026780934110226307 -1 0 0
1990 4 55.166810210358 17.37303945501021 1.600207725154777 -1 0 0
1996 2 58.51025325341 17.373039455010208 1.600207725154777 -1 0 0
1824 16 60.181974774936 12.547195282180027 0.026780934110227347 -1 0 0
1830 12 63.525417817988 12.547195282180027 0.02678093411022576 -1 0 0
1999 3 60.181974774936 14.47753284362121 1.600207725154777 -1 0 0
2001 14 61.853696296462005 15.442701893569028 0.0267809341102265 -1 0 0
2005 1 63.525417817988 14.477532843621209 1.600207725154777 -1 0 0
2002 4 61.853696296462005 17.373039455010208 1.600207725154777 -1 0 0
1836 16 66.86886086104 12.547195282180027 0.026780934110227316 -1 0 0
1842 12 70.212303904092 12.547195282180027 0.026780934110227316 -1 0 0
2007 10 65.197139339514 15.442701893569026 0.026780934110227143 -1 0 0
2011 3 66.86886086104 14.477532843621212 1.600207725154777 -1 0 0
2013 14 68.540582382566 15.442701893569028 0.02678093411022537 -1 0 0
2017 1 70.212303904092 14.477532843621212 1.600207725154777 -1 0 0
2008 2 65.197139339514 17.37303945501021 1.6002077251547773 -1 0 0
2014 4 68.540582382566 17.373039455010208 1.600207725154777 -1 0 0
1848 16 73.555746947144 12.547195282180027 0.026780934110226 -1 0 0
2019 10 71.884025425618 15.442701893569026 0.026780934110227146 -1 0 0
2023 3 73.555746947144 14.477532843621209 1.600207725154777 -1 0 0
2025 14 75.22746846867 15.442701893569028 0.02678093411022556 -1 0 0
2020 2 71.884025425618 17.37303945501021 1.6002077251547773 -1 0 0
2026 4 75.22746846867 17.373039455010208 1.600207725154777 -1 0 0
1854 12 76.89918999019599 12.547195282180027 0.02678093411022734 -1 0 0
1860 16 80.242633033248 12.547195282180027 0.026780934110226997 -1 0 0
2029 1 76.89918999019599 14.477532843621212 1.6002077251547773 -1 0 0
2031 10 78.570911511722 15.442701893569028 0.026780934110226706 -1 0 0
2035 3 80.242633033248 14.47753284362121 1.600207725154777 -1 0 0
2037 14 81.91435455477401 15.442701893569026 0.026780934110227143 -1 0 0
2032 2 78.570911511722 17.373039455010208 1.6002077251547773 -1 0 0
2038 4 81.91435455477401 17.37303945501021 1.6002077251547773 -1 0 0
1866 12 83.5860760763 12.547195282180027 0.026780934110226 -1 0 0
1872 16 86.929519119352 12.547195282180027 0.02678093411022734 -1 0 0
2041 1 83.5860760763 14.477532843621209 1.600207725154777 -1 0 0
2043 10 85.257797597826 15.442701893569028 0.026780934110225557 -1 0 0
2047 3 86.929519119352 14.477532843621212 1.6002077251547773 -1 0 0
2044 2 85.257797597826 17.373039455010208 1.600207725154777 -1 0 0
1878 12 90.272962162404 12.547195282180027 0.026780934110226997 -1 0 0
1884 16 93.616405205456 12.547195282180027 0.0267809341102259 -1 0 0
2049 14 88.601240640878 15.442701893569028 0.026780934110226706 -1 0 0
2053 1 90.272962162404 14.47753284362121 1.600207725154777 -1 0 0
2055 10 91.94468368393001 15.442701893569026 0.026780934110227136 -1 0 0
2059 3 93.616405205456 14.477532843621209 1.6002077251547773 -1 0 0
2050 4 88.601240640878 17.373039455010208 1.6002077251547773 -1 0 0
2056 2 91.94468368393001 17.37303945501021 1.6002077251547773 -1 0 0
1890 12 96.959848248508 12.547195282180027 0.026780934110225908 -1 0 0
2061 14 95.288126726982 15.442701893569028 0.026780934110226078 -1 0 0
2065 1 96.959848248508 14.477532843621209 1.6002077251547773 -1 0 0
2067 10 98.63156977003399 15.442701893569028 0.026780934110226952 -1 0 0
2062 4 95.288126726982 17.373039455010208 1.600207725154777 -1 0 0
2068 2 98.63156977003399 17.37303945501021 1.600207725154777 -1 0 0
2076 16 0 18.338208504958022 0.026780934110227146 0 0 0
2082 12 3.343443043051999 18.338208504958025 0.026780934110226216 0 0 0
2253 14 1.6717215215260006 21.233715116347025 0.02678093411022688 0 0 0
2251 3 0 20.268546066399207 1.600207725154777 0 0 0
2257 1 3.3434430430520004 20.268546066399207 1.600207725154777 0 0 0
2259 10 5.015164564578 21.233715116347025 0.02678093411022697 0 0 0
2254 4 1.6717215215259995 23.16405267778821 1.600207725154777 0 0 0
2260 2 5.015164564577999 23.16405267778821 1.6002077251547773 0 0 0
2088 16 6.686886086103998 18.338208504958025 0.026780934110226216 0 0 0
2094 12 10.030329129156 18.338208504958025 0.026780934110226202 0 0 0
2263 3 6.686886086103999 20.268546066399207 1.600207725154777 0 0 0
2265 14 8.358607607629999 21.233715116347025 0.0267809341102273 0 0 0
2269 1 10.030329129156 20.268546066399207 1.600207725154777 0 0 0
2271 10 11.702050650681999 21.233715116347025 0.026780934110226914 0 0 0
2266 4 8.358607607629999 23.16405267778821 1.600207725154777 0 0 0
2272 2 11.702050650681999 23.16405267778821 1.600207725154777 0 0 0
2100 16 13.373772172207998 18.338208504958025 0.026780934110226272 0 0 0
2106 12 16.71721521526 18.338208504958022 0.026780934110226508 0 0 0
2275 3 13.373772172207998 20.268546066399207 1.600207725154777 0 0 0
2277 14 15.045493693733997 21.233715116347025 0.026780934110227254 0 0 0
2281 1 16.71721521526 20.268546066399207 1.600207725154777 0 0 0
2278 4 15.045493693733999 23.16405267778821 1.6002077251547773 0 0 0
2112 16 20.060658258312 18.338208504958022 0.026780934110226612 0 0 0
2118 12 23.404101301364 18.338208504958025 0.026780934110225748 0 0 0
2283 10 18.388936736786 21.233715116347025 0.0267809341102265 0 0 0
2287 3 20.060658258312 20.268546066399207 1.600207725154777 0 0 0
2289 14 21.732379779838002 21.233715116347025 0.026780934110227236 0 0 0
2293 1 23.404101301364 20.268546066399207 1.6002077251547773 0 0 0
2284 2 18.388936736786 23.16405267778821 1.600207725154777 0 0 0
2290 4 21.732379779838002 23.16405267778821 1.6002077251547773 0 0 0
2124 16 26.747544344416003 18.338208504958022 0.026780934110226647 0 0 0
2295 10 25.07582282289 21.233715116347025 0.026780934110227233 0 0 0
2299 3 26.747544344416003 20.268546066399207 1.6002077251547773 0 0 0
2301 14 28.419265865942002 21.233715116347025 0.026780934110226466 0 0 0
2296 2 25.07582282289 23.16405267778821 1.6002077251547773 0 0 0
2302 4 28.419265865942002 23.16405267778821 1.600207725154777 0 0 0
2130 12 30.090987387467997 18.338208504958025 0.026780934110225738 0 0 0
2136 16 33.43443043052 18.338208504958022 0.026780934110226723 0 0 0
2305 1 30.090987387467997 20.268546066399207 1.6002077251547773 0 0 0
2307 10 31.762708908993996 21.233715116347025 0.026780934110227035 0 0 0
2311 3 33.434430430519996 20.268546066399207 1.6002077251547773 0 0 0
2313 14 35.106151952046 21.233715116347025 0.026780934110226966 0 0 0
2308 2 31.762708908993996 23.16405267778821 1.6002077251547773 0 0 0
2314 4 35.106151952046 23.16405267778821 1.6002077251547773 0 0 0
2142 12 36.777873473571994 18.338208504958022 0.026780934110226414 0 0 0
2148 16 40.121316516624 18.338208504958025 0.02678093411022614 0 0 0
2317 1 36.777873473572 20.268546066399207 1.6002077251547773 0 0 0
2319 10 38.449594995098 21.233715116347025 0.02678093411022696 0 0 0
2323 3 40.121316516624 20.268546066399207 1.6002077251547773 0 0 0
2320 2 38.449594995097996 23.16405267778821 1.6002077251547773 0 0 0
2154 12 43.464759559676004 18.338208504958022 0.026780934110226407 0 0 0
2160 16 46.808202602727995 18.338208504958022 0.026780934110226414 0 0 0
2325 14 41.793038038149994 21.233715116347025 0.026780934110226955 0 0 0
2329 1 43.464759559676 20.268546066399207 1.6002077251547773 0 0 0
2331 10 45.136481081202 21.233715116347025 0.026780934110226924 0 0 0
2335 3 46.808202602728 20.268546066399207 1.600207725154777 0 0 0
2326 4 41.79303803815 23.16405267778821 1.6002077251547773 0 0 0
2332 2 45.136481081202 23.16405267778821 1.6002077251547773 0 0 0
1986 12 50.15164564578 18.338208504958025 0.026780934110226515 -1 0 0
2337 14 48.479924124254005 21.233715116347025 0.026780934110226865 0 0 0
2163 10 51.823367167306 21.233715116347025 0.02678093411022686 -1 0 0
2161 1 50.15164564578 20.268546066399207 1.6002077251547773 -1 0 0
2338 4 48.479924124254 23.16405267778821 1.6002077251547773 0 0 0
2164 2 51.823367167306 23.16405267778821 1.6002077251547773 -1 0 0
1992 16 53.495088688832 18.338208504958025 0.02678093411022614 -1 0 0
1998 12 56.838531731884004 18.338208504958025 0.026780934110226126 -1 0 0
2167 3 53.495088688832 20.268546066399207 1.600207725154777 -1 0 0
2169 14 55.166810210358 21.23371511634702 0.0267809341102276 -1 0 0
2173 1 56.838531731884004 20.268546066399207 1.600207725154777 -1 0 0
2175 10 58.51025325341 21.233715116347025 0.026780934110226785 -1 0 0