LAMMPS data file via write_data, version 29 Aug 2024, timestep = 2, units = metal

9180 atoms
36 atom types

0 100.30329129156 xlo xhi
0 98.447224787226 ylo yhi
-50 50 zlo zhi

Masses

1 50.9415
2 50.9415
3 50.9415
4 50.9415
5 50.9415
6 50.9415
7 50.9415
8 50.9415
9 50.9415
10 50.9415
11 50.9415
12 50.9415
13 78.971
14 78.971
15 78.971
16 78.971
17 78.971
18 78.971
19 78.971
20 78.971
21 78.971
22 78.971
23 78.971
24 78.971
25 78.971
26 78.971
27 78.971
28 78.971
29 78.971
30 78.971
31 78.971
32 78.971
33 78.971
34 78.971
35 78.971
36 78.971

Atoms # atomic

1536 20 0 0.9651688130563517 0.026908402508341492 0 0 0
1542 16 3.3434430430519995 0.9651688130563528 0.026908402508340368 0 0 0
1711 3 0 2.895506424016096 1.6000772251613053 0 0 0
1717 1 3.3434430430520004 2.8955064240160944 1.6000772251613056 0 0 0
1713 18 1.6717215215260006 3.8606754244453527 0.026908402508340985 0 0 0
1719 14 5.015164564578 3.8606754244453523 0.026908402508341037 0 0 0
1714 4 1.6717215215259997 5.7910130354050935 1.6000772251613056 0 0 0
1720 2 5.015164564577998 5.7910130354050935 1.6000772251613053 0 0 0
1548 20 6.686886086103997 0.9651688130563528 0.02690840250834042 0 0 0
1554 16 10.030329129156 0.9651688130563528 0.026908402508340375 0 0 0
1723 3 6.686886086103999 2.8955064240160944 1.6000772251613053 0 0 0
1729 1 10.030329129156 2.8955064240160944 1.6000772251613056 0 0 0
1725 18 8.358607607629999 3.8606754244453523 0.026908402508341377 0 0 0
1731 14 11.702050650681999 3.8606754244453523 0.026908402508340954 0 0 0
1726 4 8.358607607629999 5.791013035405094 1.6000772251613053 0 0 0
1732 2 11.702050650681999 5.7910130354050935 1.6000772251613056 0 0 0
1560 20 13.373772172207998 0.9651688130563528 0.02690840250834046 0 0 0
1566 16 16.71721521526 0.9651688130563525 0.026908402508340645 0 0 0
1735 3 13.373772172207998 2.8955064240160944 1.6000772251613056 0 0 0
1741 1 16.71721521526 2.8955064240160953 1.6000772251613056 0 0 0
1737 18 15.045493693733997 3.8606754244453523 0.026908402508341388 0 0 0
1738 4 15.045493693733999 5.791013035405094 1.6000772251613056 0 0 0
1572 20 20.060658258312 0.9651688130563524 0.02690840250834085 0 0 0
1578 16 23.404101301364 0.9651688130563532 0.02690840250833958 0 0 0
1747 3 20.060658258312 2.8955064240160953 1.6000772251613058 0 0 0
1753 1 23.404101301364 2.8955064240160935 1.6000772251613056 0 0 0
1743 14 18.388936736786 3.8606754244453527 0.026908402508340454 0 0 0
1749 18 21.732379779838002 3.8606754244453523 0.026908402508341187 0 0 0
1744 2 18.388936736786 5.791013035405093 1.6000772251613056 0 0 0
1750 4 21.732379779838002 5.791013035405094 1.6000772251613056 0 0 0
1584 20 26.747544344416003 0.9651688130563524 0.02690840250834091 0 0 0
1759 3 26.747544344416003 2.8955064240160953 1.6000772251613056 0 0 0
1755 14 25.07582282289 3.8606754244453523 0.026908402508341183 0 0 0
1761 18 28.419265865942002 3.8606754244453527 0.026908402508340364 0 0 0
1756 2 25.07582282289 5.791013035405094 1.6000772251613056 0 0 0
1762 4 28.419265865942002 5.791013035405093 1.6000772251613056 0 0 0
1590 16 30.090987387467997 0.9651688130563533 0.026908402508339757 0 0 0
1596 20 33.43443043052 0.9651688130563524 0.02690840250834084 0 0 0
1765 1 30.090987387467997 2.8955064240160935 1.6000772251613056 0 0 0
1771 3 33.434430430519996 2.895506424016095 1.6000772251613056 0 0 0
1767 14 31.762708908993996 3.8606754244453523 0.02690840250834098 0 0 0
1773 18 35.106151952046 3.8606754244453527 0.026908402508340878 0 0 0
1768 2 31.762708908993996 5.791013035405094 1.6000772251613056 0 0 0
1774 4 35.106151952046 5.791013035405093 1.6000772251613056 0 0 0
1602 16 36.777873473571994 0.9651688130563525 0.026908402508340562 0 0 0
1608 20 40.121316516624 0.9651688130563529 0.026908402508340184 0 0 0
1777 1 36.777873473572 2.8955064240160953 1.6000772251613056 0 0 0
1783 3 40.121316516624 2.8955064240160935 1.6000772251613058 0 0 0
1779 14 38.449594995098 3.8606754244453523 0.026908402508340895 0 0 0
1780 2 38.449594995097996 5.791013035405094 1.6000772251613056 0 0 0
1614 16 43.464759559676004 0.9651688130563525 0.026908402508340562 0 0 0
1620 20 46.808202602727995 0.9651688130563525 0.02690840250834056 0 0 0
1789 1 43.464759559676 2.8955064240160953 1.6000772251613056 0 0 0
1795 3 46.808202602728 2.8955064240160953 1.6000772251613056 0 0 0
1785 18 41.793038038149994 3.8606754244453523 0.026908402508340895 0 0 0
1791 14 45.136481081202 3.8606754244453527 0.02690840250834093 0 0 0
1786 4 41.79303803815 5.791013035405094 1.6000772251613056 0 0 0
1792 2 45.136481081202 5.791013035405093 1.6000772251613056 0 0 0
1446 16 50.15164564578 0.9651688130563527 0.026908402508340652 -1 0 0
1621 1 50.15164564578 2.8955064240160944 1.6000772251613056 -1 0 0
1797 18 48.479924124254005 3.8606754244453523 0.02690840250834097 0 0 0
1623 14 51.823367167306 3.8606754244453523 0.026908402508340992 -1 0 0
1798 4 48.479924124254 5.791013035405094 1.6000772251613056 0 0 0
1624 2 51.823367167306 5.7910130354050935 1.6000772251613053 -1 0 0
1452 20 53.495088688832 0.9651688130563529 0.02690840250834023 -1 0 0
1458 16 56.838531731884004 0.9651688130563529 0.026908402508340222 -1 0 0
1627 3 53.495088688832 2.895506424016094 1.6000772251613053 -1 0 0
1633 1 56.838531731884004 2.895506424016094 1.6000772251613053 -1 0 0
1629 18 55.166810210358 3.860675424445352 0.026908402508341776 -1 0 0
1635 14 58.51025325341 3.8606754244453527 0.026908402508340756 -1 0 0
1630 4 55.166810210358 5.791013035405094 1.6000772251613053 -1 0 0
1636 2 58.51025325341 5.7910130354050935 1.6000772251613056 -1 0 0
1464 20 60.181974774936 0.9651688130563523 0.026908402508341252 -1 0 0
1470 16 63.525417817988 0.9651688130563534 0.02690840250833948 -1 0 0
1639 3 60.181974774936 2.8955064240160953 1.6000772251613053 -1 0 0
1645 1 63.525417817988 2.895506424016093 1.6000772251613056 -1 0 0
1641 18 61.853696296462005 3.8606754244453523 0.0269084025083409 -1 0 0
1642 4 61.853696296462005 5.7910130354050935 1.6000772251613056 -1 0 0
1476 20 66.86886086104 0.9651688130563522 0.026908402508341075 -1 0 0
1482 16 70.212303904092 0.9651688130563522 0.026908402508341075 -1 0 0
1651 3 66.86886086104 2.8955064240160953 1.6000772251613056 -1 0 0
1657 1 70.212303904092 2.8955064240160953 1.6000772251613056 -1 0 0
1647 14 65.197139339514 3.860675424445352 0.026908402508341422 -1 0 0
1653 18 68.540582382566 3.860675424445353 0.026908402508339868 -1 0 0
1648 2 65.197139339514 5.791013035405094 1.6000772251613056 -1 0 0
1654 4 68.540582382566 5.791013035405092 1.6000772251613056 -1 0 0
1488 20 73.555746947144 0.9651688130563534 0.026908402508339636 -1 0 0
1663 3 73.555746947144 2.895506424016093 1.6000772251613056 -1 0 0
1659 14 71.884025425618 3.860675424445352 0.026908402508341426 -1 0 0
1665 18 75.22746846867 3.860675424445353 0.026908402508340187 -1 0 0
1660 2 71.884025425618 5.791013035405094 1.6000772251613056 -1 0 0
1666 4 75.22746846867 5.791013035405093 1.6000772251613056 -1 0 0
1494 16 76.89918999019599 0.9651688130563522 0.026908402508341075 -1 0 0
1500 20 80.242633033248 0.9651688130563524 0.02690840250834064 -1 0 0
1669 1 76.89918999019599 2.8955064240160953 1.6000772251613058 -1 0 0
1675 3 80.242633033248 2.895506424016095 1.6000772251613056 -1 0 0
1671 14 78.570911511722 3.8606754244453523 0.026908402508341235 -1 0 0
1677 18 81.91435455477401 3.860675424445352 0.026908402508341388 -1 0 0
1672 2 78.570911511722 5.791013035405094 1.6000772251613056 -1 0 0
1678 4 81.91435455477401 5.791013035405094 1.6000772251613056 -1 0 0
1506 16 83.5860760763 0.9651688130563534 0.02690840250833964 -1 0 0
1512 20 86.929519119352 0.9651688130563522 0.026908402508341082 -1 0 0
1681 1 83.5860760763 2.895506424016093 1.6000772251613056 -1 0 0
1687 3 86.929519119352 2.8955064240160953 1.6000772251613058 -1 0 0
1683 14 85.257797597826 3.860675424445353 0.02690840250834018 -1 0 0
1684 2 85.257797597826 5.791013035405093 1.6000772251613056 -1 0 0
1518 16 90.272962162404 0.9651688130563524 0.02690840250834064 -1 0 0
1524 20 93.616405205456 0.9651688130563534 0.026908402508339663 -1 0 0
1693 1 90.272962162404 2.895506424016095 1.6000772251613056 -1 0 0
1699 3 93.616405205456 2.895506424016093 1.6000772251613056 -1 0 0
1689 18 88.601240640878 3.8606754244453523 0.026908402508341235 -1 0 0
1695 14 91.94468368393001 3.860675424445352 0.026908402508341384 -1 0 0
1690 4 88.601240640878 5.791013035405094 1.6000772251613056 -1 0 0
1696 2 91.94468368393001 5.791013035405094 1.6000772251613056 -1 0 0
1530 16 96.959848248508 0.9651688130563534 0.026908402508339643 -1 0 0
1705 1 96.959848248508 2.895506424016093 1.6000772251613056 -1 0 0
1701 18 95.288126726982 3.8606754244453527 0.02690840250834062 -1 0 0
1707 14 98.63156977003399 3.8606754244453523 0.02690840250834147 -1 0 0
1702 4 95.288126726982 5.7910130354050935 1.6000772251613056 -1 0 0
1708 2 98.63156977003399 5.791013035405094 1.6000772251613053 -1 0 0
1716 20 0 6.75618203583435 0.02690840250834151 0 0 0
1722 16 3.3434430430519995 6.7561820358343505 0.02690840250834049 0 0 0
1891 3 0 8.686519646794094 1.6000772251613056 0 0 0
1897 1 3.3434430430520004 8.686519646794093 1.6000772251613056 0 0 0
1893 18 1.6717215215260006 9.65168864722335 0.026908402508340933 0 0 0
1899 14 5.015164564578 9.65168864722335 0.026908402508341048 0 0 0
1894 4 1.6717215215259995 11.582026258183095 1.6000772251613056 0 0 0
1900 2 5.015164564577999 11.582026258183095 1.6000772251613056 0 0 0
1728 20 6.686886086103997 6.7561820358343505 0.026908402508340416 0 0 0
1734 16 10.030329129156 6.7561820358343505 0.026908402508340368 0 0 0
1903 3 6.686886086103999 8.686519646794093 1.6000772251613056 0 0 0
1909 1 10.030329129156 8.686519646794093 1.6000772251613056 0 0 0
1905 18 8.358607607629999 9.65168864722335 0.02690840250834128 0 0 0
1911 14 11.702050650681999 9.65168864722335 0.026908402508341055 0 0 0
1906 4 8.358607607629999 11.582026258183095 1.6000772251613056 0 0 0
1912 2 11.702050650681999 11.582026258183095 1.6000772251613056 0 0 0
1740 20 13.373772172207998 6.7561820358343505 0.026908402508340513 0 0 0
1746 16 16.71721521526 6.75618203583435 0.02690840250834064 0 0 0
1915 3 13.373772172207998 8.686519646794093 1.6000772251613058 0 0 0
1921 1 16.71721521526 8.686519646794093 1.6000772251613056 0 0 0
1917 18 15.045493693733997 9.65168864722335 0.02690840250834136 0 0 0
1918 4 15.045493693733999 11.582026258183095 1.6000772251613056 0 0 0
1752 20 20.060658258312 6.75618203583435 0.026908402508340826 0 0 0
1758 16 23.404101301364 6.756182035834351 0.026908402508339896 0 0 0
1927 3 20.060658258312 8.686519646794093 1.6000772251613056 0 0 0
1933 1 23.404101301364 8.686519646794093 1.6000772251613058 0 0 0
1923 14 18.388936736786 9.65168864722335 0.02690840250834019 0 0 0
1929 18 21.732379779838002 9.65168864722335 0.026908402508341235 0 0 0
1924 2 18.388936736786 11.582026258183095 1.6000772251613058 0 0 0
1930 4 21.732379779838002 11.582026258183095 1.6000772251613058 0 0 0
1764 20 26.747544344416003 6.75618203583435 0.02690840250834088 0 0 0
1939 3 26.747544344416003 8.686519646794093 1.6000772251613058 0 0 0
1935 14 25.07582282289 9.65168864722335 0.02690840250834123 0 0 0
1941 18 28.419265865942002 9.651688647223352 0.02690840250834034 0 0 0
1936 2 25.07582282289 11.582026258183095 1.6000772251613058 0 0 0
1942 4 28.419265865942002 11.582026258183094 1.6000772251613058 0 0 0
1770 16 30.090987387467997 6.756182035834351 0.026908402508339927 0 0 0
1776 20 33.43443043052 6.75618203583435 0.026908402508340885 0 0 0
1945 1 30.090987387467997 8.686519646794093 1.6000772251613058 0 0 0
1951 3 33.434430430519996 8.686519646794093 1.6000772251613056 0 0 0
1947 14 31.762708908993996 9.65168864722335 0.02690840250834094 0 0 0
1953 18 35.106151952046 9.65168864722335 0.026908402508340853 0 0 0
1948 2 31.762708908993996 11.582026258183095 1.6000772251613056 0 0 0
1954 4 35.106151952046 11.582026258183094 1.6000772251613056 0 0 0
1782 16 36.777873473571994 6.75618203583435 0.026908402508340597 0 0 0
1788 20 40.121316516624 6.756182035834351 0.026908402508340357 0 0 0
1957 1 36.777873473572 8.686519646794093 1.6000772251613056 0 0 0
1963 3 40.121316516624 8.686519646794093 1.6000772251613058 0 0 0
1959 14 38.449594995098 9.65168864722335 0.02690840250834101 0 0 0
1960 2 38.449594995097996 11.582026258183095 1.6000772251613056 0 0 0
1794 16 43.464759559676004 6.75618203583435 0.0269084025083406 0 0 0
1800 20 46.808202602727995 6.75618203583435 0.026908402508340593 0 0 0
1969 1 43.464759559676 8.686519646794093 1.6000772251613056 0 0 0
1975 3 46.808202602728 8.686519646794093 1.6000772251613056 0 0 0
1965 18 41.793038038149994 9.65168864722335 0.02690840250834101 0 0 0
1971 14 45.136481081202 9.65168864722335 0.02690840250834081 0 0 0
1966 4 41.79303803815 11.582026258183095 1.6000772251613056 0 0 0
1972 2 45.136481081202 11.582026258183094 1.6000772251613058 0 0 0
1626 16 50.15164564578 6.7561820358343505 0.026908402508340788 -1 0 0
1801 1 50.15164564578 8.686519646794093 1.6000772251613058 -1 0 0
1977 18 48.479924124254005 9.65168864722335 0.026908402508340947 0 0 0
1803 14 51.823367167306 9.65168864722335 0.026908402508340982 -1 0 0
1978 4 48.479924124254 11.582026258183095 1.6000772251613058 0 0 0
1804 2 51.823367167306 11.582026258183095 1.6000772251613056 -1 0 0
1632 20 53.495088688832 6.7561820358343505 0.026908402508340278 -1 0 0
1638 16 56.838531731884004 6.7561820358343505 0.026908402508340257 -1 0 0
1807 3 53.495088688832 8.686519646794093 1.6000772251613056 -1 0 0
1813 1 56.838531731884004 8.686519646794093 1.6000772251613056 -1 0 0
1809 18 55.166810210358 9.65168864722335 0.026908402508341627 -1 0 0
1815 14 58.51025325341 9.65168864722335 0.026908402508340777 -1 0 0
1810 4 55.166810210358 11.582026258183097 1.6000772251613056 -1 0 0
1816 2 58.51025325341 11.582026258183095 1.6000772251613056 -1 0 0
1644 20 60.181974774936 6.75618203583435 0.026908402508341228 -1 0 0
1650 16 63.525417817988 6.756182035834351 0.026908402508339674 -1 0 0
1819 3 60.181974774936 8.686519646794094 1.6000772251613056 -1 0 0
1825 1 63.525417817988 8.68651964679409 1.6000772251613056 -1 0 0
1821 18 61.853696296462005 9.65168864722335 0.026908402508340958 -1 0 0
1822 4 61.853696296462005 11.582026258183095 1.6000772251613056 -1 0 0
1656 20 66.86886086104 6.75618203583435 0.026908402508341124 -1 0 0
1662 16 70.212303904092 6.75618203583435 0.026908402508341124 -1 0 0
1831 3 66.86886086104 8.686519646794094 1.6000772251613058 -1 0 0
1837 1 70.212303904092 8.686519646794094 1.6000772251613058 -1 0 0
1827 14 65.197139339514 9.65168864722335 0.026908402508341454 -1 0 0
1833 18 68.540582382566 9.651688647223352 0.026908402508339754 -1 0 0
1828 2 65.197139339514 11.582026258183095 1.6000772251613058 -1 0 0
1834 4 68.540582382566 11.582026258183094 1.6000772251613056 -1 0 0
1668 20 73.555746947144 6.756182035834351 0.02690840250833972 -1 0 0
1843 3 73.555746947144 8.686519646794093 1.6000772251613058 -1 0 0
1839 14 71.884025425618 9.65168864722335 0.026908402508341457 -1 0 0
1845 18 75.22746846867 9.651688647223352 0.026908402508340156 -1 0 0
1840 2 71.884025425618 11.582026258183095 1.6000772251613058 -1 0 0
1846 4 75.22746846867 11.582026258183094 1.6000772251613058 -1 0 0
1674 16 76.89918999019599 6.75618203583435 0.02690840250834113 -1 0 0
1680 20 80.242633033248 6.7561820358343505 0.02690840250834083 -1 0 0
1849 1 76.89918999019599 8.686519646794094 1.6000772251613056 -1 0 0
1855 3 80.242633033248 8.686519646794094 1.6000772251613058 -1 0 0
1851 14 78.570911511722 9.65168864722335 0.026908402508341176 -1 0 0
1857 18 81.91435455477401 9.65168864722335 0.026908402508341457 -1 0 0
1852 2 78.570911511722 11.582026258183095 1.6000772251613058 -1 0 0
1858 4 81.91435455477401 11.582026258183095 1.6000772251613056 -1 0 0
1686 16 83.5860760763 6.756182035834351 0.02690840250833973 -1 0 0
1692 20 86.929519119352 6.75618203583435 0.02690840250834113 -1 0 0
1861 1 83.5860760763 8.686519646794093 1.6000772251613058 -1 0 0
1867 3 86.929519119352 8.686519646794094 1.6000772251613056 -1 0 0
1863 14 85.257797597826 9.651688647223352 0.026908402508340153 -1 0 0
1864 2 85.257797597826 11.582026258183094 1.6000772251613058 -1 0 0
1698 16 90.272962162404 6.7561820358343505 0.02690840250834083 -1 0 0
1704 20 93.616405205456 6.756182035834351 0.02690840250833975 -1 0 0
1873 1 90.272962162404 8.686519646794094 1.6000772251613058 -1 0 0
1879 3 93.616405205456 8.68651964679409 1.6000772251613056 -1 0 0
1869 18 88.601240640878 9.65168864722335 0.026908402508341176 -1 0 0
1875 14 91.94468368393001 9.65168864722335 0.02690840250834145 -1 0 0
1870 4 88.601240640878 11.582026258183095 1.6000772251613058 -1 0 0
1876 2 91.94468368393001 11.582026258183095 1.6000772251613056 -1 0 0
1710 16 96.959848248508 6.756182035834351 0.026908402508339743 -1 0 0
1885 1 96.959848248508 8.68651964679409 1.6000772251613056 -1 0 0
1881 18 95.288126726982 9.65168864722335 0.026908402508340486 -1 0 0
1887 14 98.63156977003399 9.65168864722335 0.0269084025083415 -1 0 0
1882 4 95.288126726982 11.582026258183094 1.6000772251613056 -1 0 0
1888 2 98.63156977003399 11.582026258183095 1.6000772251613053 -1 0 0
1896 20 0 12.547195258612353 0.026908402508342023 0 0 0
1902 16 3.343443043051999 12.547195258612353 0.026908402508341082 0 0 0
2073 18 1.6717215215260006 15.442701870001354 0.026908402508340576 0 0 0
2071 3 0 14.477532869572098 1.6000772251613056 0 0 0
2077 1 3.343443043052 14.477532869572096 1.6000772251613056 0 0 0
2079 14 5.015164564578 15.442701870001354 0.026908402508340524 0 0 0
2074 4 1.6717215215259997 17.373039480961094 1.6000772251613053 0 0 0
2080 2 5.015164564577999 17.373039480961094 1.6000772251613058 0 0 0
1908 20 6.686886086103998 12.547195258612353 0.02690840250834089 0 0 0
1914 16 10.030329129156 12.547195258612353 0.026908402508340885 0 0 0
2083 3 6.686886086103999 14.477532869572096 1.6000772251613056 0 0 0
2085 18 8.358607607629999 15.442701870001354 0.02690840250834115 0 0 0
2089 1 10.030329129156 14.477532869572096 1.6000772251613056 0 0 0
2091 14 11.702050650681999 15.442701870001354 0.02690840250834046 0 0 0
2086 4 8.358607607629999 17.373039480961097 1.6000772251613058 0 0 0
2092 2 11.702050650681999 17.373039480961094 1.6000772251613058 0 0 0
1920 20 13.373772172207998 12.547195258612353 0.02690840250834103 0 0 0
1926 16 16.71721521526 12.547195258612353 0.02690840250834111 0 0 0
2095 3 13.373772172207998 14.477532869572096 1.6000772251613058 0 0 0
2097 18 15.045493693733997 15.442701870001354 0.02690840250834119 0 0 0
2101 1 16.71721521526 14.477532869572098 1.6000772251613056 0 0 0
2098 4 15.045493693733999 17.373039480961097 1.6000772251613058 0 0 0
1932 20 20.060658258312 12.547195258612353 0.02690840250834123 0 0 0
1938 16 23.404101301364 12.547195258612353 0.026908402508340097 0 0 0
2103 14 18.388936736786 15.442701870001356 0.02690840250833987 0 0 0
2107 3 20.060658258312 14.477532869572098 1.6000772251613056 0 0 0
2109 18 21.732379779838002 15.442701870001354 0.026908402508341117 0 0 0
2113 1 23.404101301364 14.477532869572096 1.6000772251613058 0 0 0
2104 2 18.388936736786 17.373039480961094 1.6000772251613056 0 0 0
2110 4 21.732379779838002 17.373039480961097 1.6000772251613056 0 0 0
1944 20 26.747544344416003 12.547195258612353 0.02690840250834128 0 0 0
2115 14 25.07582282289 15.442701870001354 0.026908402508341117 0 0 0
2119 3 26.747544344416003 14.477532869572098 1.6000772251613056 0 0 0
2121 18 28.419265865942002 15.442701870001356 0.026908402508340055 0 0 0
2116 2 25.07582282289 17.373039480961097 1.6000772251613056 0 0 0
2122 4 28.419265865942002 17.373039480961094 1.6000772251613058 0 0 0
1950 16 30.090987387467997 12.547195258612353 0.026908402508340146 0 0 0
1956 20 33.43443043052 12.547195258612353 0.026908402508341332 0 0 0
2125 1 30.090987387467997 14.477532869572096 1.6000772251613056 0 0 0
2127 14 31.762708908993996 15.442701870001354 0.02690840250834092 0 0 0
2131 3 33.434430430519996 14.477532869572098 1.6000772251613056 0 0 0
2133 18 35.106151952046 15.442701870001356 0.0269084025083404 0 0 0
2128 2 31.762708908993996 17.373039480961097 1.6000772251613058 0 0 0
2134 4 35.106151952046 17.373039480961094 1.6000772251613056 0 0 0
1962 16 36.777873473571994 12.547195258612353 0.026908402508341006 0 0 0
1968 20 40.121316516624 12.547195258612353 0.026908402508340694 0 0 0
2137 1 36.777873473572 14.477532869572098 1.6000772251613058 0 0 0
2139 14 38.449594995098 15.442701870001354 0.026908402508340815 0 0 0
2143 3 40.121316516624 14.477532869572096 1.6000772251613058 0 0 0
2140 2 38.449594995097996 17.373039480961097 1.6000772251613056 0 0 0
1974 16 43.464759559676004 12.547195258612353 0.026908402508341006 0 0 0
1980 20 46.808202602727995 12.547195258612353 0.026908402508341 0 0 0
2145 18 41.793038038149994 15.442701870001354 0.026908402508340815 0 0 0
2149 1 43.464759559676 14.477532869572098 1.6000772251613058 0 0 0
2151 14 45.136481081202 15.442701870001356 0.02690840250834036 0 0 0
2155 3 46.808202602728 14.477532869572098 1.6000772251613056 0 0 0
2146 4 41.79303803815 17.373039480961097 1.6000772251613056 0 0 0
2152 2 45.136481081202 17.373039480961094 1.6000772251613056 0 0 0
1806 16 50.15164564578 12.547195258612353 0.02690840250834121 -1 0 0
2157 18 48.479924124254005 15.442701870001354 0.02690840250834078 0 0 0
1983 14 51.823367167306 15.442701870001354 0.026908402508340562 -1 0 0
1981 1 50.15164564578 14.477532869572096 1.6000772251613056 -1 0 0
2158 4 48.479924124254 17.373039480961097 1.6000772251613056 0 0 0
1984 2 51.823367167306 17.373039480961094 1.6000772251613058 -1 0 0
1812 20 53.495088688832 12.547195258612353 0.02690840250834081 -1 0 0
1818 16 56.838531731884004 12.547195258612353 0.026908402508340798 -1 0 0
1987 3 53.495088688832 14.477532869572096 1.6000772251613056 -1 0 0
1989 18 55.166810210358 15.442701870001354 0.026908402508341554 -1 0 0
1993 1 56.838531731884004 14.477532869572096 1.6000772251613056 -1 0 0
1995 14 58.51025325341 15.442701870001354 0.026908402508340253 -1 0 0
1990 4 55.166810210358 17.373039480961097 1.6000772251613058 -1 0 0
1996 2 58.51025325341 17.373039480961094 1.6000772251613056 -1 0 0
1824 20 60.181974774936 12.547195258612353 0.026908402508341644 -1 0 0
1830 16 63.525417817988 12.547195258612353 0.02690840250833995 -1 0 0
1999 3 60.181974774936 14.477532869572098 1.6000772251613056 -1 0 0
2001 18 61.853696296462005 15.442701870001354 0.02690840250834047 -1 0 0
2005 1 63.525417817988 14.477532869572094 1.6000772251613058 -1 0 0
2002 4 61.853696296462005 17.373039480961094 1.6000772251613056 -1 0 0
1836 20 66.86886086104 12.547195258612353 0.02690840250834144 -1 0 0
1842 16 70.212303904092 12.547195258612353 0.026908402508341443 -1 0 0
2007 14 65.197139339514 15.442701870001354 0.026908402508341332 -1 0 0
2011 3 66.86886086104 14.477532869572098 1.6000772251613056 -1 0 0
2013 18 68.540582382566 15.442701870001356 0.026908402508339445 -1 0 0
2017 1 70.212303904092 14.477532869572098 1.6000772251613056 -1 0 0
2008 2 65.197139339514 17.373039480961097 1.6000772251613058 -1 0 0
2014 4 68.540582382566 17.373039480961094 1.6000772251613056 -1 0 0
1848 20 73.555746947144 12.547195258612353 0.026908402508340007 -1 0 0
2019 14 71.884025425618 15.442701870001354 0.02690840250834135 -1 0 0
2023 3 73.555746947144 14.477532869572096 1.6000772251613056 -1 0 0
2025 18 75.22746846867 15.442701870001356 0.02690840250833989 -1 0 0
2020 2 71.884025425618 17.373039480961097 1.6000772251613058 -1 0 0
2026 4 75.22746846867 17.373039480961094 1.600077225161306 -1 0 0
1854 16 76.89918999019599 12.547195258612353 0.026908402508341443 -1 0 0
1860 20 80.242633033248 12.547195258612353 0.026908402508341065 -1 0 0
2029 1 76.89918999019599 14.477532869572098 1.6000772251613056 -1 0 0
2031 14 78.570911511722 15.442701870001354 0.026908402508340735 -1 0 0
2035 3 80.242633033248 14.477532869572098 1.6000772251613058 -1 0 0
2037 18 81.91435455477401 15.442701870001354 0.026908402508341384 -1 0 0
2032 2 78.570911511722 17.373039480961094 1.6000772251613053 -1 0 0
2038 4 81.91435455477401 17.373039480961097 1.6000772251613056 -1 0 0
1866 16 83.5860760763 12.547195258612353 0.026908402508340007 -1 0 0
1872 20 86.929519119352 12.547195258612353 0.026908402508341447 -1 0 0
2041 1 83.5860760763 14.477532869572096 1.6000772251613056 -1 0 0
2043 14 85.257797597826 15.442701870001356 0.026908402508339885 -1 0 0
2047 3 86.929519119352 14.477532869572098 1.6000772251613056 -1 0 0
2044 2 85.257797597826 17.373039480961094 1.6000772251613058 -1 0 0
1878 16 90.272962162404 12.547195258612353 0.02690840250834106 -1 0 0
1884 20 93.616405205456 12.547195258612353 0.026908402508340017 -1 0 0
2049 18 88.601240640878 15.442701870001354 0.026908402508340735 -1 0 0
2053 1 90.272962162404 14.477532869572098 1.6000772251613058 -1 0 0
2055 14 91.94468368393001 15.442701870001354 0.026908402508341377 -1 0 0
2059 3 93.616405205456 14.477532869572096 1.6000772251613056 -1 0 0
2050 4 88.601240640878 17.373039480961094 1.6000772251613053 -1 0 0
2056 2 91.94468368393001 17.373039480961097 1.6000772251613056 -1 0 0
1890 16 96.959848248508 12.547195258612353 0.026908402508340014 -1 0 0
2061 18 95.288126726982 15.442701870001356 0.02690840250834023 -1 0 0
2065 1 96.959848248508 14.477532869572096 1.6000772251613056 -1 0 0
2067 14 98.63156977003399 15.442701870001354 0.02690840250834127 -1 0 0
2062 4 95.288126726982 17.373039480961094 1.6000772251613058 -1 0 0
2068 2 98.63156977003399 17.373039480961097 1.6000772251613056 -1 0 0
2076 20 0 18.33820848139035 0.02690840250834146 0 0 0
2082 16 3.343443043051999 18.33820848139035 0.026908402508340448 0 0 0
2253 18 1.6717215215260006 21.23371509277935 0.026908402508341298 0 0 0
2251 3 0 20.268546092350093 1.6000772251613051 0 0 0
2257 1 3.343443043052 20.268546092350093 1.6000772251613051 0 0 0
2259 14 5.015164564578 21.23371509277935 0.02690840250834136 0 0 0
2254 4 1.6717215215259997 23.164052703739095 1.6000772251613056 0 0 0
2260 2 5.015164564577999 23.164052703739095 1.6000772251613056 0 0 0
2088 20 6.686886086103997 18.33820848139035 0.026908402508340347 0 0 0
2094 16 10.030329129156 18.33820848139035 0.026908402508340225 0 0 0
2263 3 6.686886086103999 20.268546092350093 1.6000772251613051 0 0 0
2265 18 8.358607607629999 21.23371509277935 0.026908402508341586 0 0 0
2269 1 10.030329129156 20.268546092350093 1.6000772251613051 0 0 0
2271 14 11.702050650681999 21.23371509277935 0.026908402508341367 0 0 0
2266 4 8.358607607629999 23.164052703739095 1.6000772251613053 0 0 0
2272 2 11.702050650681999 23.164052703739095 1.6000772251613056 0 0 0
2100 20 13.373772172207998 18.33820848139035 0.02690840250834041 0 0 0
2106 16 16.71721521526 18.33820848139035 0.026908402508340735 0 0 0
2275 3 13.373772172207998 20.268546092350093 1.6000772251613051 0 0 0
2277 18 15.045493693733997 21.23371509277935 0.02690840250834157 0 0 0
2281 1 16.71721521526 20.268546092350093 1.6000772251613058 0 0 0
2278 4 15.045493693733999 23.164052703739095 1.6000772251613056 0 0 0
2112 20 20.060658258312 18.33820848139035 0.0269084025083409 0 0 0
2118 16 23.404101301364 18.33820848139035 0.026908402508339622 0 0 0
2283 14 18.388936736786 21.23371509277935 0.02690840250834033 0 0 0
2287 3 20.060658258312 20.268546092350093 1.6000772251613056 0 0 0
2289 18 21.732379779838002 21.23371509277935 0.026908402508341547 0 0 0
2293 1 23.404101301364 20.268546092350093 1.6000772251613051 0 0 0
2284 2 18.388936736786 23.164052703739095 1.6000772251613051 0 0 0
2290 4 21.732379779838002 23.164052703739095 1.600077225161306 0 0 0
2124 20 26.747544344416003 18.33820848139035 0.026908402508340933 0 0 0
2295 14 25.07582282289 21.23371509277935 0.026908402508341544 0 0 0
2299 3 26.747544344416003 20.268546092350093 1.6000772251613056 0 0 0
2301 18 28.419265865942002 21.23371509277935 0.026908402508340448 0 0 0
2296 2 25.07582282289 23.164052703739095 1.600077225161306 0 0 0
2302 4 28.419265865942002 23.164052703739095 1.6000772251613053 0 0 0
2130 16 30.090987387467997 18.33820848139035 0.026908402508339722 0 0 0
2136 20 33.43443043052 18.33820848139035 0.0269084025083409 0 0 0
2305 1 30.090987387467997 20.268546092350093 1.6000772251613053 0 0 0
2307 14 31.762708908993996 21.23371509277935 0.026908402508341336 0 0 0
2311 3 33.434430430519996 20.268546092350093 1.6000772251613058 0 0 0
2313 18 35.106151952046 21.23371509277935 0.02690840250834099 0 0 0
2308 2 31.762708908993996 23.164052703739095 1.6000772251613058 0 0 0
2314 4 35.106151952046 23.164052703739095 1.6000772251613051 0 0 0
2142 16 36.777873473571994 18.33820848139035 0.026908402508340607 0 0 0
2148 20 40.121316516624 18.33820848139035 0.02690840250834021 0 0 0
2317 1 36.777873473572 20.268546092350093 1.6000772251613056 0 0 0
2319 14 38.449594995098 21.23371509277935 0.026908402508341256 0 0 0
2323 3 40.121316516624 20.26854609235009 1.6000772251613051 0 0 0
2320 2 38.449594995097996 23.164052703739095 1.600077225161306 0 0 0
2154 16 43.464759559676004 18.33820848139035 0.026908402508340597 0 0 0
2160 20 46.808202602727995 18.33820848139035 0.026908402508340642 0 0 0
2325 18 41.793038038149994 21.23371509277935 0.02690840250834126 0 0 0
2329 1 43.464759559676 20.268546092350093 1.6000772251613056 0 0 0
2331 14 45.136481081202 21.23371509277935 0.026908402508340944 0 0 0
2335 3 46.808202602728 20.268546092350093 1.6000772251613058 0 0 0
2326 4 41.79303803815 23.164052703739095 1.600077225161306 0 0 0
2332 2 45.136481081202 23.164052703739095 1.6000772251613051 0 0 0
1986 16 50.15164564578 18.33820848139035 0.02690840250834059 -1 0 0
2337 18 48.479924124254005 21.23371509277935 0.026908402508341093 0 0 0
2163 14 51.823367167306 21.23371509277935 0.02690840250834133 -1 0 0
2161 1 50.15164564578 20.268546092350093 1.6000772251613051 -1 0 0
2338 4 48.479924124254 23.164052703739095 1.6000772251613056 0 0 0
2164 2 51.823367167306 23.164052703739095 1.6000772251613056 -1 0 0
1992 20 53.495088688832 18.33820848139035 0.026908402508340146 -1 0 0
1998 16 56.838531731884004 18.33820848139035 0.02690840250834017 -1 0 0
2167 3 53.495088688832 20.268546092350093 1.6000772251613051 -1 0 0