LAMMPS data file via write_data, version 29 Aug 2024, timestep = 2, units = metal

8064 atoms
36 atom types

0 100.754072008352 xlo xhi
0 99.720669593088 ylo yhi
-50 50 zlo zhi

Masses

1 50.9415
2 50.9415
3 50.9415
4 50.9415
5 50.9415
6 50.9415
7 50.9415
8 50.9415
9 50.9415
10 50.9415
11 50.9415
12 50.9415
13 127.6
14 127.6
15 127.6
16 127.6
17 127.6
18 127.6
19 127.6
20 127.6
21 127.6
22 127.6
23 127.6
24 127.6
25 127.6
26 127.6
27 127.6
28 127.6
29 127.6
30 127.6
31 127.6
32 127.6
33 127.6
34 127.6
35 127.6
36 127.6

Atoms # atomic

1431 14 1.799179857292002 1.0387569749279832 0.026909637897071195 0 0 0
1429 1 0 3.404683094339839e-14 1.7511744066147734 0 0 0
1435 3 3.5983597145840016 3.2429263104921297e-14 1.7511744066147736 0 0 0
1437 18 5.397539571876002 1.0387569749279832 0.026909637897071122 0 0 0
1432 2 1.7991798572920008 3.1162709247840295 1.7511744066147727 0 0 0
1438 4 5.397539571876001 3.1162709247840295 1.751174406614773 0 0 0
1434 16 0 4.155027899711981 0.02690963789707247 0 0 0
1440 20 3.5983597145840003 4.155027899711982 0.026909637897071667 0 0 0
1441 1 7.196719429168001 3.2320174095901986e-14 1.7511744066147736 0 0 0
1443 14 8.99589928646 1.0387569749279832 0.026909637897071223 0 0 0
1447 3 10.795079143752 3.2366306253105846e-14 1.7511744066147734 0 0 0
1444 2 8.99589928646 3.1162709247840295 1.751174406614773 0 0 0
1446 16 7.196719429168 4.155027899711982 0.026909637897071646 0 0 0
1452 20 10.795079143752 4.155027899711982 0.026909637897071605 0 0 0
1449 18 12.594259001044001 1.0387569749279828 0.026909637897071764 0 0 0
1453 1 14.393438858336005 3.3543525505592343e-14 1.7511744066147734 0 0 0
1455 14 16.192618715628004 1.0387569749279837 0.02690963789707061 0 0 0
1450 4 12.594259001044001 3.1162709247840303 1.7511744066147727 0 0 0
1456 2 16.192618715628004 3.1162709247840286 1.7511744066147727 0 0 0
1458 16 14.393438858336005 4.155027899711982 0.026909637897072198 0 0 0
1459 3 17.99179857292 3.128804204687582e-14 1.7511744066147736 0 0 0
1461 18 19.790978430212 1.0387569749279826 0.0269096378970718 0 0 0
1465 1 21.590158287504003 3.3568318462187637e-14 1.7511744066147734 0 0 0
1467 14 23.389338144796003 1.0387569749279837 0.026909637897070605 0 0 0
1462 4 19.790978430212 3.1162709247840303 1.7511744066147727 0 0 0
1468 2 23.389338144796003 3.1162709247840286 1.7511744066147727 0 0 0
1464 20 17.99179857292 4.155027899711982 0.026909637897071004 0 0 0
1470 16 21.590158287504003 4.155027899711982 0.02690963789707222 0 0 0
1471 3 25.188518002088 3.128804204687582e-14 1.7511744066147736 0 0 0
1473 18 26.98769785938 1.0387569749279826 0.026909637897071802 0 0 0
1477 1 28.786877716672002 3.3523691140316106e-14 1.7511744066147734 0 0 0
1474 4 26.98769785938 3.1162709247840303 1.7511744066147727 0 0 0
1476 20 25.188518002088 4.155027899711982 0.026909637897071004 0 0 0
1482 16 28.786877716672002 4.155027899711982 0.026909637897072257 0 0 0
1479 14 30.586057573964002 1.0387569749279835 0.02690963789707101 0 0 0
1483 3 32.385237431256 3.130043852517347e-14 1.7511744066147736 0 0 0
1485 18 34.184417288548 1.0387569749279828 0.02690963789707136 0 0 0
1480 2 30.586057573964002 3.1162709247840286 1.7511744066147727 0 0 0
1486 4 34.184417288548 3.1162709247840303 1.7511744066147727 0 0 0
1488 20 32.385237431255995 4.155027899711982 0.026909637897071022 0 0 0
1489 1 35.98359714584 3.3370505184430377e-14 1.7511744066147734 0 0 0
1491 14 37.782777003132004 1.0387569749279826 0.026909637897071396 0 0 0
1495 3 39.581956860424 3.104259177658237e-14 1.7511744066147736 0 0 0
1497 18 41.381136717716 1.0387569749279835 0.02690963789707101 0 0 0
1492 2 37.782777003132004 3.1162709247840303 1.7511744066147727 0 0 0
1498 4 41.381136717716004 3.1162709247840286 1.7511744066147727 0 0 0
1494 16 35.98359714584 4.155027899711982 0.0269096378970721 0 0 0
1500 20 39.58195686042401 4.155027899711982 0.0269096378970714 0 0 0
1501 1 43.180316575008 3.381872732380015e-14 1.7511744066147734 0 0 0
1503 14 44.9794964323 1.0387569749279826 0.026909637897071414 0 0 0
1507 3 46.778676289592 3.104259177658237e-14 1.7511744066147736 0 0 0
1504 2 44.9794964323 3.1162709247840303 1.7511744066147727 0 0 0
1506 16 43.180316575008 4.155027899711982 0.02690963789707191 0 0 0
1512 20 46.778676289592006 4.155027899711982 0.0269096378970714 0 0 0
1509 18 48.577856146883995 1.0387569749279835 0.026909637897071025 0 0 0
1347 14 52.176215861468 1.0387569749279835 0.026909637897070956 -1 0 0
1345 1 50.377036004176 3.402874345034369e-14 1.7511744066147734 -1 0 0
1510 4 48.577856146884 3.1162709247840286 1.7511744066147727 0 0 0
1348 2 52.176215861468 3.1162709247840295 1.7511744066147727 -1 0 0
1350 16 50.377036004176 4.155027899711982 0.026909637897072083 -1 0 0
1351 3 53.97539571876 3.2399511557006935e-14 1.7511744066147736 -1 0 0
1353 18 55.774575576052 1.0387569749279832 0.02690963789707118 -1 0 0
1357 1 57.573755433344 3.2399511557006935e-14 1.7511744066147736 -1 0 0
1354 4 55.774575576052 3.1162709247840295 1.751174406614773 -1 0 0
1356 20 53.97539571876 4.155027899711982 0.02690963789707171 -1 0 0
1362 16 57.573755433344 4.155027899711982 0.026909637897071726 -1 0 0
1359 14 59.372935290636 1.0387569749279832 0.026909637897071167 -1 0 0
1363 3 61.172115147928 3.212829386979098e-14 1.7511744066147736 -1 0 0
1365 18 62.97129500522 1.0387569749279824 0.026909637897072305 -1 0 0
1369 1 64.770474862512 3.0834330941181864e-14 1.7511744066147736 -1 0 0
1360 2 59.372935290636 3.1162709247840295 1.751174406614773 -1 0 0
1366 4 62.97129500522 3.116270924784031 1.7511744066147727 -1 0 0
1368 20 61.172115147928 4.155027899711983 0.026909637897071473 -1 0 0
1374 16 64.770474862512 4.155027899711983 0.026909637897070692 -1 0 0
1371 14 66.56965471980399 1.038756974927984 0.026909637897070383 -1 0 0
1375 3 68.368834577096 3.4014591680903004e-14 1.7511744066147734 -1 0 0
1377 18 70.168014434388 1.0387569749279828 0.026909637897071646 -1 0 0
1372 2 66.56965471980399 3.116270924784028 1.7511744066147727 -1 0 0
1378 4 70.168014434388 3.1162709247840303 1.751174406614773 -1 0 0
1380 20 68.368834577096 4.155027899711981 0.026909637897072514 -1 0 0
1381 1 71.96719429168 3.401707097656253e-14 1.7511744066147734 -1 0 0
1383 14 73.766374148972 1.038756974927984 0.02690963789707038 -1 0 0
1387 3 75.565554006264 3.084424812381998e-14 1.7511744066147736 -1 0 0
1384 2 73.766374148972 3.116270924784028 1.7511744066147727 -1 0 0
1386 16 71.96719429168 4.155027899711981 0.026909637897072514 -1 0 0
1392 20 75.565554006264 4.155027899711983 0.0269096378970707 -1 0 0
1389 18 77.364733863556 1.0387569749279821 0.02690963789707248 -1 0 0
1393 1 79.163913720848 3.080510976827263e-14 1.7511744066147736 -1 0 0
1395 14 80.96309357813999 1.0387569749279832 0.02690963789707102 -1 0 0
1399 3 82.762273435432 3.3532747515225695e-14 1.7511744066147732 -1 0 0
1390 4 77.364733863556 3.116270924784031 1.7511744066147727 -1 0 0
1396 2 80.96309357814 3.1162709247840303 1.7511744066147725 -1 0 0
1398 16 79.163913720848 4.155027899711982 0.02690963789707163 -1 0 0
1404 20 82.76227343543201 4.155027899711982 0.026909637897071473 -1 0 0
1401 18 84.561453292724 1.0387569749279835 0.026909637897071223 -1 0 0
1405 1 86.360633150016 3.4338849037296284e-14 1.7511744066147732 -1 0 0
1407 14 88.159813007308 1.0387569749279837 0.026909637897070404 -1 0 0
1402 4 84.561453292724 3.116270924784028 1.7511744066147725 -1 0 0
1408 2 88.159813007308 3.116270924784028 1.7511744066147727 -1 0 0
1410 16 86.360633150016 4.155027899711981 0.026909637897072947 -1 0 0
1411 3 89.95899286459999 3.080953798458657e-14 1.7511744066147736 -1 0 0
1413 18 91.758172721892 1.0387569749279824 0.02690963789707201 -1 0 0
1417 1 93.557352579184 3.3187037305625173e-14 1.7511744066147734 -1 0 0
1414 4 91.758172721892 3.116270924784031 1.7511744066147727 -1 0 0
1416 20 89.95899286459999 4.155027899711983 0.02690963789707077 -1 0 0
1422 16 93.557352579184 4.155027899711982 0.026909637897072094 -1 0 0
1419 14 95.356532436476 1.0387569749279824 0.02690963789707201 -1 0 0
1423 3 97.155712293768 3.081449657590563e-14 1.7511744066147736 -1 0 0
1425 18 98.95489215106 1.038756974927984 0.0269096378970704 -1 0 0
1420 2 95.356532436476 3.116270924784031 1.7511744066147727 -1 0 0
1426 4 98.95489215106 3.116270924784028 1.7511744066147727 -1 0 0
1428 20 97.155712293768 4.155027899711983 0.02690963789707076 -1 0 0
1599 14 1.7991798572920017 7.271298824495983 0.02690963789707153 0 0 0
1597 1 0 6.232541849568031 1.7511744066147727 0 0 0
1603 3 3.5983597145840016 6.2325418495680305 1.7511744066147727 0 0 0
1605 18 5.397539571876002 7.271298824495983 0.02690963789707133 0 0 0
1600 2 1.7991798572920006 9.34881277435203 1.7511744066147727 0 0 0
1606 4 5.397539571876001 9.34881277435203 1.751174406614773 0 0 0
1602 16 0 10.387569749279981 0.026909637897072004 0 0 0
1608 20 3.5983597145840003 10.387569749279981 0.026909637897071202 0 0 0
1609 1 7.196719429168001 6.2325418495680305 1.7511744066147727 0 0 0
1611 14 8.99589928646 7.271298824495983 0.026909637897071435 0 0 0
1615 3 10.795079143752 6.2325418495680305 1.7511744066147727 0 0 0
1612 2 8.99589928646 9.34881277435203 1.751174406614773 0 0 0
1614 16 7.196719429168 10.387569749279981 0.026909637897071084 0 0 0
1620 20 10.795079143752 10.387569749279981 0.026909637897071025 0 0 0
1617 18 12.594259001044001 7.271298824495983 0.0269096378970721 0 0 0
1621 1 14.393438858336005 6.2325418495680305 1.7511744066147727 0 0 0
1623 14 16.192618715628004 7.271298824495984 0.026909637897070966 0 0 0
1618 4 12.594259001044001 9.34881277435203 1.751174406614773 0 0 0
1624 2 16.192618715628004 9.34881277435203 1.7511744066147725 0 0 0
1626 16 14.393438858336005 10.387569749279981 0.02690963789707168 0 0 0
1627 3 17.99179857292 6.23254184956803 1.7511744066147727 0 0 0
1629 18 19.790978430212 7.271298824495983 0.02690963789707212 0 0 0
1633 1 21.590158287504003 6.2325418495680305 1.7511744066147725 0 0 0
1635 14 23.389338144796003 7.271298824495984 0.026909637897070966 0 0 0
1630 4 19.790978430212 9.34881277435203 1.7511744066147727 0 0 0
1636 2 23.389338144796003 9.34881277435203 1.7511744066147725 0 0 0
1632 20 17.99179857292 10.387569749279983 0.026909637897070588 0 0 0
1638 16 21.590158287504003 10.387569749279981 0.026909637897071716 0 0 0
1639 3 25.188518002088 6.23254184956803 1.7511744066147727 0 0 0
1641 18 26.98769785938 7.271298824495983 0.02690963789707212 0 0 0
1645 1 28.786877716672002 6.2325418495680305 1.7511744066147725 0 0 0
1642 4 26.98769785938 9.34881277435203 1.7511744066147727 0 0 0
1644 20 25.188518002088 10.387569749279983 0.026909637897070588 0 0 0
1650 16 28.786877716672002 10.387569749279981 0.026909637897071743 0 0 0
1647 14 30.586057573964002 7.271298824495984 0.02690963789707127 0 0 0
1651 3 32.385237431256 6.23254184956803 1.7511744066147727 0 0 0
1653 18 34.184417288548 7.271298824495983 0.02690963789707176 0 0 0
1648 2 30.586057573964002 9.348812774352028 1.7511744066147727 0 0 0
1654 4 34.184417288548 9.348812774352032 1.7511744066147727 0 0 0
1656 20 32.385237431255995 10.387569749279983 0.026909637897070515 0 0 0
1657 1 35.98359714584 6.232541849568031 1.7511744066147725 0 0 0
1659 14 37.782777003132004 7.271298824495983 0.0269096378970718 0 0 0
1663 3 39.581956860424 6.23254184956803 1.7511744066147727 0 0 0
1665 18 41.381136717716 7.271298824495984 0.026909637897071275 0 0 0
1660 2 37.782777003132004 9.348812774352032 1.7511744066147727 0 0 0
1666 4 41.381136717716004 9.348812774352028 1.7511744066147727 0 0 0
1662 16 35.98359714584 10.387569749279981 0.026909637897071622 0 0 0
1668 20 39.58195686042401 10.387569749279983 0.026909637897070897 0 0 0
1669 1 43.180316575008 6.232541849568031 1.7511744066147725 0 0 0
1671 14 44.9794964323 7.271298824495983 0.026909637897071813 0 0 0
1675 3 46.778676289592 6.23254184956803 1.7511744066147727 0 0 0
1672 2 44.9794964323 9.348812774352032 1.7511744066147727 0 0 0
1674 16 43.180316575008 10.387569749279981 0.02690963789707132 0 0 0
1680 20 46.778676289592006 10.387569749279983 0.026909637897070897 0 0 0
1677 18 48.577856146883995 7.271298824495984 0.026909637897071285 0 0 0
1515 14 52.176215861468 7.271298824495984 0.026909637897071195 -1 0 0
1513 1 50.377036004176 6.232541849568031 1.7511744066147727 -1 0 0
1678 4 48.577856146884 9.348812774352028 1.7511744066147727 0 0 0
1516 2 52.176215861468 9.34881277435203 1.751174406614773 -1 0 0
1518 16 50.377036004176 10.387569749279981 0.026909637897071542 -1 0 0
1519 3 53.97539571876 6.2325418495680305 1.7511744066147727 -1 0 0
1521 18 55.774575576052 7.271298824495983 0.026909637897071372 -1 0 0
1525 1 57.573755433344 6.2325418495680305 1.7511744066147727 -1 0 0
1522 4 55.774575576052 9.34881277435203 1.751174406614773 -1 0 0
1524 20 53.97539571876 10.387569749279981 0.02690963789707116 -1 0 0
1530 16 57.573755433344 10.387569749279981 0.026909637897071164 -1 0 0
1527 14 59.372935290636 7.271298824495983 0.02690963789707136 -1 0 0
1531 3 61.172115147928 6.2325418495680305 1.7511744066147727 -1 0 0
1533 18 62.97129500522 7.271298824495982 0.026909637897072413 -1 0 0
1537 1 64.770474862512 6.232541849568029 1.7511744066147725 -1 0 0
1528 2 59.372935290636 9.34881277435203 1.751174406614773 -1 0 0
1534 4 62.97129500522 9.348812774352032 1.7511744066147727 -1 0 0
1536 20 61.172115147928 10.387569749279981 0.026909637897070956 -1 0 0
1542 16 64.770474862512 10.387569749279983 0.026909637897070262 -1 0 0
1539 14 66.56965471980399 7.271298824495984 0.026909637897070703 -1 0 0
1543 3 68.368834577096 6.232541849568031 1.7511744066147727 -1 0 0
1545 18 70.168014434388 7.271298824495983 0.02690963789707207 -1 0 0
1540 2 66.56965471980399 9.348812774352028 1.7511744066147725 -1 0 0
1546 4 70.168014434388 9.34881277435203 1.7511744066147727 -1 0 0
1548 20 68.368834577096 10.387569749279981 0.02690963789707192 -1 0 0
1549 1 71.96719429168 6.232541849568031 1.7511744066147727 -1 0 0
1551 14 73.766374148972 7.271298824495984 0.026909637897070703 -1 0 0
1555 3 75.565554006264 6.232541849568029 1.7511744066147725 -1 0 0
1552 2 73.766374148972 9.348812774352028 1.7511744066147725 -1 0 0
1554 16 71.96719429168 10.387569749279981 0.026909637897071927 -1 0 0
1560 20 75.565554006264 10.387569749279983 0.02690963789707028 -1 0 0
1557 18 77.364733863556 7.271298824495982 0.026909637897072673 -1 0 0
1561 1 79.163913720848 6.232541849568029 1.7511744066147727 -1 0 0
1563 14 80.96309357813999 7.271298824495983 0.026909637897071178 -1 0 0
1567 3 82.762273435432 6.2325418495680305 1.7511744066147725 -1 0 0
1558 4 77.364733863556 9.348812774352032 1.7511744066147727 -1 0 0
1564 2 80.96309357814 9.34881277435203 1.7511744066147727 -1 0 0
1566 16 79.163913720848 10.387569749279981 0.026909637897071237 -1 0 0
1572 20 82.76227343543201 10.387569749279981 0.02690963789707088 -1 0 0
1569 18 84.561453292724 7.271298824495983 0.026909637897071344 -1 0 0
1573 1 86.360633150016 6.232541849568031 1.7511744066147727 -1 0 0
1575 14 88.159813007308 7.271298824495984 0.026909637897070723 -1 0 0
1570 4 84.561453292724 9.348812774352028 1.7511744066147727 -1 0 0
1576 2 88.159813007308 9.348812774352028 1.7511744066147727 -1 0 0
1578 16 86.360633150016 10.38756974927998 0.02690963789707231 -1 0 0
1579 3 89.95899286459999 6.232541849568029 1.7511744066147725 -1 0 0
1581 18 91.758172721892 7.271298824495983 0.02690963789707235 -1 0 0
1585 1 93.557352579184 6.2325418495680305 1.7511744066147725 -1 0 0
1582 4 91.758172721892 9.348812774352032 1.7511744066147727 -1 0 0
1584 20 89.95899286459999 10.387569749279983 0.026909637897070265 -1 0 0
1590 16 93.557352579184 10.387569749279981 0.026909637897071615 -1 0 0
1587 14 95.356532436476 7.271298824495983 0.02690963789707235 -1 0 0
1591 3 97.155712293768 6.232541849568029 1.7511744066147725 -1 0 0
1593 18 98.95489215106 7.271298824495984 0.02690963789707072 -1 0 0
1588 2 95.356532436476 9.348812774352032 1.7511744066147727 -1 0 0
1594 4 98.95489215106 9.348812774352028 1.7511744066147725 -1 0 0
1596 20 97.155712293768 10.387569749279983 0.026909637897070262 -1 0 0
1765 1 0 12.465083699136029 1.7511744066147727 0 0 0
1771 3 3.5983597145840016 12.465083699136027 1.7511744066147727 0 0 0
1767 14 1.799179857292002 13.50384067406398 0.02690963789707162 0 0 0
1773 18 5.397539571876002 13.50384067406398 0.026909637897071438 0 0 0
1770 16 0 16.62011159884798 0.026909637897072528 0 0 0
1768 2 1.7991798572920008 15.581354623920026 1.7511744066147727 0 0 0
1776 20 3.5983597145840003 16.62011159884798 0.026909637897071757 0 0 0
1774 4 5.397539571876 15.581354623920026 1.7511744066147727 0 0 0
1777 1 7.196719429168001 12.465083699136027 1.7511744066147727 0 0 0
1783 3 10.795079143752 12.465083699136027 1.7511744066147727 0 0 0
1779 14 8.99589928646 13.50384067406398 0.026909637897071396 0 0 0
1782 16 7.196719429168 16.62011159884798 0.026909637897071896 0 0 0
1780 2 8.99589928646 15.581354623920026 1.7511744066147727 0 0 0
1788 20 10.795079143752 16.62011159884798 0.026909637897071723 0 0 0
1789 1 14.393438858336005 12.465083699136029 1.7511744066147727 0 0 0
1785 18 12.594259001044001 13.50384067406398 0.026909637897072257 0 0 0
1791 14 16.192618715628004 13.50384067406398 0.026909637897070706 0 0 0
1786 4 12.594259001044001 15.581354623920028 1.7511744066147727 0 0 0
1794 16 14.393438858336005 16.62011159884798 0.02690963789707223 0 0 0
1792 2 16.192618715628004 15.581354623920026 1.7511744066147725 0 0 0
1795 3 17.99179857292 12.465083699136027 1.7511744066147727 0 0 0
1801 1 21.590158287504003 12.465083699136029 1.7511744066147727 0 0 0
1797 18 19.790978430212 13.50384067406398 0.02690963789707232 0 0 0
1803 14 23.389338144796003 13.50384067406398 0.026909637897070706 0 0 0
1800 20 17.99179857292 16.62011159884798 0.02690963789707131 0 0 0
1798 4 19.790978430212 15.581354623920028 1.7511744066147727 0 0 0
1806 16 21.590158287504003 16.62011159884798 0.02690963789707225 0 0 0
1804 2 23.389338144796003 15.581354623920026 1.7511744066147725 0 0 0
1807 3 25.188518002088 12.465083699136027 1.7511744066147727 0 0 0
1813 1 28.786877716672002 12.465083699136029 1.7511744066147727 0 0 0
1809 18 26.98769785938 13.50384067406398 0.02690963789707232 0 0 0
1812 20 25.188518002088 16.62011159884798 0.02690963789707131 0 0 0
1810 4 26.98769785938 15.581354623920028 1.7511744066147727 0 0 0
1818 16 28.786877716672002 16.62011159884798 0.026909637897072285 0 0 0
1819 3 32.385237431256 12.465083699136027 1.7511744066147727 0 0 0
1815 14 30.586057573964002 13.50384067406398 0.02690963789707102 0 0 0
1821 18 34.184417288548 13.50384067406398 0.026909637897071945 0 0 0
1816 2 30.586057573964002 15.581354623920026 1.7511744066147725 0 0 0
1824 20 32.385237431255995 16.62011159884798 0.026909637897071303 0 0 0
1822 4 34.184417288548 15.581354623920028 1.7511744066147727 0 0 0
1825 1 35.98359714584 12.465083699136029 1.7511744066147725 0 0 0
1831 3 39.581956860424 12.465083699136027 1.7511744066147727 0 0 0
1827 14 37.782777003132004 13.50384067406398 0.02690963789707198 0 0 0
1833 18 41.381136717716 13.50384067406398 0.02690963789707112 0 0 0
1830 16 35.98359714584 16.62011159884798 0.026909637897072233 0 0 0
1828 2 37.782777003132004 15.581354623920028 1.7511744066147727 0 0 0
1836 20 39.58195686042401 16.62011159884798 0.02690963789707163 0 0 0
1834 4 41.381136717716004 15.581354623920026 1.7511744066147725 0 0 0
1837 1 43.180316575008 12.465083699136029 1.7511744066147727 0 0 0
1843 3 46.778676289592 12.465083699136027 1.7511744066147727 0 0 0
1839 14 44.9794964323 13.50384067406398 0.026909637897072 0 0 0
1842 16 43.180316575008 16.62011159884798 0.026909637897071938 0 0 0
1840 2 44.9794964323 15.581354623920028 1.7511744066147727 0 0 0
1848 20 46.778676289592006 16.62011159884798 0.026909637897071625 0 0 0
1681 1 50.377036004176 12.465083699136029 1.7511744066147727 -1 0 0
1845 18 48.577856146883995 13.50384067406398 0.026909637897071133 0 0 0
1683 14 52.176215861468 13.50384067406398 0.02690963789707138 -1 0 0
1846 4 48.577856146884 15.581354623920026 1.7511744066147725 0 0 0
1686 16 50.377036004176 16.62011159884798 0.02690963789707222 -1 0 0
1684 2 52.176215861468 15.581354623920026 1.7511744066147727 -1 0 0
1687 3 53.97539571876 12.465083699136027 1.751174406614773 -1 0 0
1693 1 57.573755433344 12.465083699136027 1.7511744066147727 -1 0 0
1689 18 55.774575576052 13.50384067406398 0.02690963789707141 -1 0 0
1692 20 53.97539571876 16.62011159884798 0.02690963789707184 -1 0 0
1690 4 55.774575576052 15.581354623920026 1.7511744066147727 -1 0 0
1698 16 57.573755433344 16.62011159884798 0.026909637897071848 -1 0 0
1699 3 61.172115147928 12.465083699136027 1.7511744066147727 -1 0 0
1705 1 64.770474862512 12.465083699136027 1.7511744066147727 -1 0 0
1695 14 59.372935290636 13.50384067406398 0.0269096378970714 -1 0 0
1701 18 62.97129500522 13.503840674063978 0.026909637897072635 -1 0 0
1696 2 59.372935290636 15.581354623920026 1.7511744066147727 -1 0 0
1704 20 61.172115147928 16.62011159884798 0.026909637897071657 -1 0 0
1702 4 62.97129500522 15.581354623920028 1.7511744066147725 -1 0 0
1710 16 64.770474862512 16.62011159884798 0.026909637897071 -1 0 0
1711 3 68.368834577096 12.465083699136029 1.7511744066147727 -1 0 0
1707 14 66.56965471980399 13.50384067406398 0.02690963789707048 -1 0 0
1713 18 70.168014434388 13.50384067406398 0.026909637897072163 -1 0 0
1708 2 66.56965471980399 15.581354623920026 1.7511744066147727 -1 0 0
1716 20 68.368834577096 16.62011159884798 0.026909637897072472 -1 0 0
1714 4 70.168014434388 15.581354623920028 1.7511744066147727 -1 0 0
1717 1 71.96719429168 12.465083699136029 1.7511744066147727 -1 0 0
1723 3 75.565554006264 12.465083699136027 1.7511744066147727 -1 0 0
1719 14 73.766374148972 13.50384067406398 0.02690963789707048 -1 0 0
1722 16 71.96719429168 16.62011159884798 0.026909637897072482 -1 0 0
1720 2 73.766374148972 15.581354623920026 1.7511744066147727 -1 0 0
1728 20 75.565554006264 16.62011159884798 0.026909637897071008 -1 0 0
1729 1 79.163913720848 12.465083699136027 1.7511744066147725 -1 0 0
1735 3 82.762273435432 12.465083699136029 1.7511744066147725 -1 0 0
1725 18 77.364733863556 13.503840674063978 0.0269096378970729 -1 0 0
1731 14 80.96309357813999 13.50384067406398 0.02690963789707137 -1 0 0
1726 4 77.364733863556 15.581354623920028 1.7511744066147727 -1 0 0
1734 16 79.163913720848 16.62011159884798 0.026909637897071802 -1 0 0
1732 2 80.96309357814 15.581354623920028 1.7511744066147727 -1 0 0
1740 20 82.76227343543201 16.62011159884798 0.026909637897071285 -1 0 0
1741 1 86.360633150016 12.465083699136029 1.7511744066147727 -1 0 0
1737 18 84.561453292724 13.50384067406398 0.026909637897071417 -1 0 0
1743 14 88.159813007308 13.50384067406398 0.0269096378970705 -1 0 0
1738 4 84.561453292724 15.581354623920026 1.7511744066147725 -1 0 0
1746 16 86.360633150016 16.620111598847977 0.02690963789707286 -1 0 0
1744 2 88.159813007308 15.581354623920026 1.7511744066147727 -1 0 0
1747 3 89.95899286459999 12.465083699136027 1.7511744066147727 -1 0 0
1753 1 93.557352579184 12.465083699136029 1.7511744066147725 -1 0 0
1749 18 91.758172721892 13.50384067406398 0.026909637897072538 -1 0 0
1752 20 89.95899286459999 16.62011159884798 0.026909637897070994 -1 0 0
1750 4 91.758172721892 15.581354623920028 1.7511744066147727 -1 0 0
1758 16 93.557352579184 16.62011159884798 0.026909637897072233 -1 0 0
1759 3 97.155712293768 12.465083699136027 1.7511744066147727 -1 0 0
1755 14 95.356532436476 13.50384067406398 0.026909637897072534 -1 0 0
1761 18 98.95489215106 13.50384067406398 0.026909637897070487 -1 0 0
1756 2 95.356532436476 15.581354623920028 1.7511744066147727 -1 0 0
1764 20 97.155712293768 16.62011159884798 0.026909637897071 -1 0 0
1762 4 98.95489215106 15.581354623920026 1.7511744066147727 -1 0 0
1933 1 0 18.69762554870403 1.751174406614773 0 0 0
1939 3 3.5983597145840016 18.69762554870403 1.7511744066147727 0 0 0
1935 14 1.7991798572920017 19.73638252363198 0.02690963789707102 0 0 0
1941 18 5.397539571876002 19.73638252363198 0.026909637897071095 0 0 0
1938 16 0 22.852653448415982 0.026909637897073072 0 0 0
1936 2 1.7991798572920008 21.81389647348803 1.7511744066147727 0 0 0
1944 20 3.5983597145840007 22.852653448415982 0.026909637897071938 0 0 0
1942 4 5.397539571876 21.81389647348803 1.751174406614773 0 0 0
1945 1 7.1967194291680014 18.69762554870403 1.7511744066147727 0 0 0
1951 3 10.795079143752 18.69762554870403 1.7511744066147727 0 0 0
1947 14 8.99589928646 19.73638252363198 0.02690963789707096 0 0 0
1950 16 7.196719429168 22.852653448415982 0.026909637897072014 0 0 0
1948 2 8.99589928646 21.81389647348803 1.7511744066147727 0 0 0
1956 20 10.795079143752 22.852653448415982 0.0269096378970718 0 0 0
1957 1 14.393438858336005 18.69762554870403 1.7511744066147727 0 0 0
1953 18 12.594259001044001 19.73638252363198 0.026909637897071893 0 0 0
1959 14 16.192618715628004 19.73638252363198 0.026909637897070453 0 0 0
1954 4 12.594259001044001 21.81389647348803 1.7511744066147727 0 0 0
1962 16 14.393438858336005 22.852653448415982 0.026909637897072642 0 0 0
1960 2 16.192618715628004 21.813896473488025 1.7511744066147727 0 0 0
1963 3 17.99179857292 18.69762554870403 1.7511744066147727 0 0 0
1969 1 21.590158287504003 18.69762554870403 1.7511744066147727 0 0 0
1965 18 19.790978430212 19.73638252363198 0.02690963789707171 0 0 0
1971 14 23.389338144796003 19.73638252363198 0.026909637897070453 0 0 0
1968 20 17.99179857292 22.852653448415985 0.026909637897071157 0 0 0
1966 4 19.790978430212 21.81389647348803 1.7511744066147725 0 0 0
1974 16 21.590158287504003 22.852653448415982 0.026909637897072687 0 0 0
1972 2 23.389338144796003 21.813896473488025 1.7511744066147727 0 0 0
1975 3 25.188518002088 18.69762554870403 1.7511744066147727 0 0 0
1981 1 28.786877716672002 18.69762554870403 1.7511744066147727 0 0 0
1977 18 26.98769785938 19.73638252363198 0.02690963789707171 0 0 0
1980 20 25.188518002088 22.852653448415985 0.026909637897071185 0 0 0
1978 4 26.98769785938 21.81389647348803 1.7511744066147727 0 0 0
1986 16 28.786877716672002 22.852653448415982 0.026909637897072722 0 0 0
1987 3 32.385237431256 18.69762554870403 1.7511744066147727 0 0 0
1983 14 30.586057573964002 19.73638252363198 0.026909637897070765 0 0 0
1989 18 34.184417288548 19.73638252363198 0.026909637897071348 0 0 0
1984 2 30.586057573964002 21.813896473488025 1.7511744066147727 0 0 0
1992 20 32.385237431255995 22.852653448415985 0.0269096378970712 0 0 0
1990 4 34.184417288548 21.81389647348803 1.7511744066147727 0 0 0
1993 1 35.98359714584 18.69762554870403 1.7511744066147727 0 0 0
1999 3 39.581956860424 18.69762554870403 1.7511744066147727 0 0 0
1995 14 37.782777003132004 19.73638252363198 0.026909637897071386 0 0 0
2001 18 41.381136717716 19.73638252363198 0.02690963789707077 0 0 0
1998 16 35.98359714584 22.852653448415982 0.026909637897072517 0 0 0
1996 2 37.782777003132004 21.81389647348803 1.7511744066147727 0 0 0
2004 20 39.58195686042401 22.852653448415985 0.0269096378970715 0 0 0
2002 4 41.381136717716004 21.813896473488025 1.7511744066147727 0 0 0
2005 1 43.180316575008 18.69762554870403 1.7511744066147727 0 0 0
2011 3 46.778676289592 18.69762554870403 1.7511744066147727 0 0 0
2007 14 44.9794964323 19.73638252363198 0.026909637897071396 0 0 0
2010 16 43.180316575008 22.852653448415982 0.026909637897072385 0 0 0
2008 2 44.9794964323 21.81389647348803 1.7511744066147727 0 0 0
2016 20 46.778676289592006 22.852653448415985 0.026909637897071497 0 0 0
1849 1 50.377036004176 18.69762554870403 1.7511744066147727 -1 0 0
2013 18 48.577856146883995 19.73638252363198 0.026909637897070775 0 0 0
1851 14 52.176215861468 19.73638252363198 0.026909637897070862 -1 0 0
2014 4 48.577856146884 21.813896473488025 1.7511744066147725 0 0 0
1854 16 50.377036004176 22.852653448415982 0.026909637897072687 -1 0 0
1852 2 52.176215861468 21.81389647348803 1.7511744066147727 -1 0 0
1855 3 53.97539571876 18.69762554870403 1.7511744066147727 -1 0 0
1861 1 57.573755433344 18.69762554870403 1.7511744066147727 -1 0 0
1857 18 55.774575576052 19.73638252363198 0.026909637897071036 -1 0 0
1860 20 53.97539571876 22.852653448415982 0.026909637897071962 -1 0 0
1858 4 55.774575576052 21.81389647348803 1.7511744066147727 -1 0 0
1866 16 57.573755433344 22.852653448415982 0.026909637897071965 -1 0 0
1867 3 61.172115147928 18.69762554870403 1.7511744066147727 -1 0 0
1873 1 64.770474862512 18.697625548704025 1.7511744066147727 -1 0 0
1863 14 59.372935290636 19.73638252363198 0.026909637897071032 -1 0 0
1869 18 62.97129500522 19.73638252363198 0.02690963789707211 -1 0 0
1864 2 59.372935290636 21.81389647348803 1.7511744066147727 -1 0 0
1872 20 61.172115147928 22.852653448415982 0.026909637897071743 -1 0 0
1870 4 62.97129500522 21.81389647348803 1.7511744066147725 -1 0 0
1878 16 64.770474862512 22.852653448415985 0.026909637897070973 -1 0 0
1879 3 68.368834577096 18.69762554870403 1.7511744066147727 -1 0 0
1875 14 66.56965471980399 19.73638252363198 0.026909637897070134 -1 0 0
1881 18 70.168014434388 19.73638252363198 0.026909637897071785 -1 0 0
1876 2 66.56965471980399 21.813896473488025 1.7511744066147725 -1 0 0
1884 20 68.368834577096 22.852653448415982 0.026909637897072985 -1 0 0
1882 4 70.168014434388 21.81389647348803 1.7511744066147727 -1 0 0
1885 1 71.96719429168 18.69762554870403 1.7511744066147727 -1 0 0
1891 3 75.565554006264 18.697625548704025 1.7511744066147727 -1 0 0
1887 14 73.766374148972 19.73638252363198 0.026909637897070134 -1 0 0
1890 16 71.96719429168 22.852653448415982 0.026909637897072985 -1 0 0
1888 2 73.766374148972 21.813896473488025 1.7511744066147725 -1 0 0
1896 20 75.565554006264 22.852653448415985 0.026909637897071008 -1 0 0
1897 1 79.163913720848 18.69762554870403 1.7511744066147727 -1 0 0
1903 3 82.762273435432 18.69762554870403 1.7511744066147727 -1 0 0
1893 18 77.364733863556 19.73638252363198 0.026909637897072233 -1 0 0
1899 14 80.96309357813999 19.73638252363198 0.02690963789707096 -1 0 0
1894 4 77.364733863556 21.81389647348803 1.7511744066147727 -1 0 0
1902 16 79.163913720848 22.852653448415985 0.026909637897071775 -1 0 0