LAMMPS data file via write_data, version 29 Aug 2024, timestep = 2, units = metal

5376 atoms
24 atom types

0 100.754072008352 xlo xhi
0 99.720669593088 ylo yhi
-50 50 zlo zhi

Masses

1 50.9415
2 50.9415
3 50.9415
4 50.9415
5 50.9415
6 50.9415
7 50.9415
8 50.9415
9 127.6
10 127.6
11 127.6
12 127.6
13 127.6
14 127.6
15 127.6
16 127.6
17 127.6
18 127.6
19 127.6
20 127.6
21 127.6
22 127.6
23 127.6
24 127.6

Atoms # atomic

1431 10 1.799179857292002 1.0387569749279828 0.026796072707208327 0 0 0
1429 1 0 3.437616462447187e-14 1.7512846985092476 0 0 0
1435 3 3.5983597145840016 3.289198547323949e-14 1.7512846985092476 0 0 0
1437 14 5.397539571876002 1.0387569749279828 0.026796072707208414 0 0 0
1432 2 1.7991798572920006 3.11627092478403 1.7512846985092472 0 0 0
1438 4 5.397539571876001 3.11627092478403 1.7512846985092472 0 0 0
1434 12 0 4.155027899711981 0.026796072707209705 0 0 0
1440 16 3.5983597145840003 4.155027899711981 0.02679607270720881 0 0 0
1441 1 7.196719429168001 3.279123366568872e-14 1.7512846985092476 0 0 0
1443 10 8.99589928646 1.0387569749279828 0.026796072707208383 0 0 0
1447 3 10.795079143752 3.280882725164345e-14 1.7512846985092476 0 0 0
1444 2 8.99589928646 3.11627092478403 1.7512846985092472 0 0 0
1446 12 7.196719429168 4.155027899711981 0.026796072707208816 0 0 0
1452 16 10.795079143752 4.155027899711981 0.02679607270720872 0 0 0
1449 14 12.594259001044001 1.0387569749279826 0.02679607270720895 0 0 0
1453 1 14.393438858336005 3.3847873504127286e-14 1.7512846985092476 0 0 0
1455 10 16.192618715628004 1.0387569749279832 0.02679607270720779 0 0 0
1450 4 12.594259001044001 3.116270924784031 1.7512846985092472 0 0 0
1456 2 16.192618715628004 3.116270924784029 1.751284698509247 0 0 0
1458 12 14.393438858336005 4.155027899711981 0.02679607270720941 0 0 0
1459 3 17.99179857292 3.175555501415152e-14 1.7512846985092476 0 0 0
1461 14 19.790978430212 1.0387569749279826 0.02679607270720899 0 0 0
1465 1 21.590158287504003 3.3834134621279453e-14 1.7512846985092474 0 0 0
1467 10 23.389338144796003 1.0387569749279832 0.02679607270720779 0 0 0
1462 4 19.790978430212 3.116270924784031 1.751284698509247 0 0 0
1468 2 23.389338144796003 3.116270924784029 1.751284698509247 0 0 0
1464 16 17.99179857292 4.155027899711982 0.026796072707208313 0 0 0
1470 12 21.590158287504003 4.155027899711981 0.026796072707209437 0 0 0
1471 3 25.188518002088 3.175555501415152e-14 1.7512846985092476 0 0 0
1473 14 26.98769785938 1.0387569749279826 0.02679607270720899 0 0 0
1477 1 28.786877716672002 3.379520778654393e-14 1.7512846985092474 0 0 0
1474 4 26.98769785938 3.116270924784031 1.751284698509247 0 0 0
1476 16 25.188518002088 4.155027899711982 0.026796072707208313 0 0 0
1482 12 28.786877716672002 4.155027899711981 0.02679607270720947 0 0 0
1479 10 30.586057573964002 1.0387569749279832 0.026796072707208074 0 0 0
1483 3 32.385237431256 3.180364110411894e-14 1.7512846985092478 0 0 0
1485 14 34.184417288548 1.0387569749279826 0.02679607270720866 0 0 0
1480 2 30.586057573964002 3.1162709247840286 1.751284698509247 0 0 0
1486 4 34.184417288548 3.116270924784031 1.751284698509247 0 0 0
1488 16 32.385237431255995 4.155027899711982 0.026796072707208237 0 0 0
1489 1 35.98359714584 3.3949465276467934e-14 1.7512846985092476 0 0 0
1491 10 37.782777003132004 1.0387569749279826 0.026796072707208695 0 0 0
1495 3 39.581956860424 3.1581529164745653e-14 1.7512846985092476 0 0 0
1497 14 41.381136717716 1.0387569749279832 0.026796072707208136 0 0 0
1492 2 37.782777003132004 3.116270924784031 1.751284698509247 0 0 0
1498 4 41.381136717716004 3.116270924784029 1.751284698509247 0 0 0
1494 12 35.98359714584 4.155027899711981 0.026796072707209257 0 0 0
1500 16 39.58195686042401 4.155027899711982 0.026796072707208594 0 0 0
1501 1 43.180316575008 3.410433265062015e-14 1.7512846985092476 0 0 0
1503 10 44.9794964323 1.0387569749279826 0.026796072707208716 0 0 0
1507 3 46.778676289592 3.1636484696136977e-14 1.7512846985092476 0 0 0
1504 2 44.9794964323 3.116270924784031 1.751284698509247 0 0 0
1506 12 43.180316575008 4.155027899711981 0.026796072707209156 0 0 0
1512 16 46.778676289592006 4.155027899711982 0.026796072707208594 0 0 0
1509 14 48.577856146883995 1.0387569749279832 0.026796072707208206 0 0 0
1347 10 52.176215861468 1.038756974927983 0.026796072707208247 -1 0 0
1345 1 50.377036004176 3.445181286370329e-14 1.7512846985092476 -1 0 0
1510 4 48.577856146884 3.116270924784029 1.751284698509247 0 0 0
1348 2 52.176215861468 3.11627092478403 1.7512846985092472 -1 0 0
1350 12 50.377036004176 4.155027899711981 0.026796072707209434 -1 0 0
1351 3 53.97539571876 3.285076882469599e-14 1.7512846985092476 -1 0 0
1353 14 55.774575576052 1.0387569749279828 0.026796072707208407 -1 0 0
1357 1 57.573755433344 3.285992807992788e-14 1.7512846985092476 -1 0 0
1354 4 55.774575576052 3.11627092478403 1.7512846985092472 -1 0 0
1356 16 53.97539571876 4.155027899711981 0.026796072707208855 -1 0 0
1362 12 57.573755433344 4.155027899711981 0.02679607270720881 -1 0 0
1359 10 59.372935290636 1.0387569749279828 0.0267960727072084 -1 0 0
1363 3 61.172115147928 3.258213568465422e-14 1.7512846985092476 -1 0 0
1365 14 62.97129500522 1.0387569749279821 0.026796072707209462 -1 0 0
1369 1 64.770474862512 3.140979312914775e-14 1.7512846985092476 -1 0 0
1360 2 59.372935290636 3.11627092478403 1.7512846985092472 -1 0 0
1366 4 62.97129500522 3.1162709247840312 1.751284698509247 -1 0 0
1368 16 61.172115147928 4.155027899711982 0.026796072707208605 -1 0 0
1374 12 64.770474862512 4.155027899711982 0.026796072707208022 -1 0 0
1371 10 66.56965471980399 1.0387569749279837 0.02679607270720762 -1 0 0
1375 3 68.368834577096 3.432644458999343e-14 1.7512846985092476 -1 0 0
1377 14 70.168014434388 1.0387569749279824 0.026796072707208945 -1 0 0
1372 2 66.56965471980399 3.1162709247840286 1.751284698509247 -1 0 0
1378 4 70.168014434388 3.116270924784031 1.7512846985092472 -1 0 0
1380 16 68.368834577096 4.155027899711981 0.02679607270720971 -1 0 0
1381 1 71.96719429168 3.4317285334761546e-14 1.7512846985092476 -1 0 0
1383 10 73.766374148972 1.0387569749279835 0.02679607270720763 -1 0 0
1387 3 75.565554006264 3.1412082942955725e-14 1.7512846985092476 -1 0 0
1384 2 73.766374148972 3.1162709247840286 1.751284698509247 -1 0 0
1386 12 71.96719429168 4.155027899711981 0.026796072707209715 -1 0 0
1392 16 75.565554006264 4.155027899711982 0.026796072707208036 -1 0 0
1389 14 77.364733863556 1.038756974927982 0.02679607270720962 -1 0 0
1393 1 79.163913720848 3.121370910645204e-14 1.7512846985092478 -1 0 0
1395 10 80.96309357813999 1.0387569749279828 0.026796072707208202 -1 0 0
1399 3 82.762273435432 3.414795802414601e-14 1.7512846985092474 -1 0 0
1390 4 77.364733863556 3.1162709247840312 1.751284698509247 -1 0 0
1396 2 80.96309357814 3.116270924784031 1.751284698509247 -1 0 0
1398 12 79.163913720848 4.155027899711982 0.026796072707208723 -1 0 0
1404 16 82.76227343543201 4.155027899711982 0.02679607270720856 -1 0 0
1401 14 84.561453292724 1.0387569749279832 0.02679607270720839 -1 0 0
1405 1 86.360633150016 3.4680525765439206e-14 1.7512846985092476 -1 0 0
1407 10 88.159813007308 1.0387569749279835 0.026796072707207578 -1 0 0
1402 4 84.561453292724 3.1162709247840286 1.751284698509247 -1 0 0
1408 2 88.159813007308 3.1162709247840286 1.751284698509247 -1 0 0
1410 12 86.360633150016 4.155027899711981 0.02679607270721003 -1 0 0
1411 3 89.95899286459999 3.146245884673111e-14 1.7512846985092478 -1 0 0
1413 14 91.758172721892 1.0387569749279824 0.02679607270720919 -1 0 0
1417 1 93.557352579184 3.378459868229395e-14 1.7512846985092476 -1 0 0
1414 4 91.758172721892 3.116270924784031 1.751284698509247 -1 0 0
1416 16 89.95899286459999 4.155027899711982 0.02679607270720803 -1 0 0
1422 12 93.557352579184 4.155027899711981 0.026796072707209254 -1 0 0
1419 10 95.356532436476 1.0387569749279824 0.02679607270720919 -1 0 0
1423 3 97.155712293768 3.146474866053908e-14 1.7512846985092478 -1 0 0
1425 14 98.95489215106 1.0387569749279835 0.026796072707207644 -1 0 0
1420 2 95.356532436476 3.116270924784031 1.751284698509247 -1 0 0
1426 4 98.95489215106 3.1162709247840286 1.751284698509247 -1 0 0
1428 16 97.155712293768 4.155027899711982 0.026796072707208022 -1 0 0
1599 10 1.7991798572920017 7.271298824495983 0.02679607270720859 0 0 0
1597 1 0 6.232541849568031 1.7512846985092472 0 0 0
1603 3 3.5983597145840016 6.2325418495680305 1.751284698509247 0 0 0
1605 14 5.397539571876002 7.271298824495983 0.02679607270720858 0 0 0
1600 2 1.7991798572920006 9.34881277435203 1.751284698509247 0 0 0
1606 4 5.397539571876001 9.34881277435203 1.7512846985092472 0 0 0
1602 12 0 10.387569749279981 0.026796072707209153 0 0 0
1608 16 3.5983597145840003 10.387569749279981 0.02679607270720833 0 0 0
1609 1 7.196719429168001 6.2325418495680305 1.751284698509247 0 0 0
1611 10 8.99589928646 7.271298824495983 0.026796072707208525 0 0 0
1615 3 10.795079143752 6.2325418495680305 1.751284698509247 0 0 0
1612 2 8.99589928646 9.34881277435203 1.7512846985092472 0 0 0
1614 12 7.196719429168 10.387569749279981 0.02679607270720832 0 0 0
1620 16 10.795079143752 10.387569749279981 0.026796072707208234 0 0 0
1617 14 12.594259001044001 7.271298824495983 0.02679607270720919 0 0 0
1621 1 14.393438858336005 6.232541849568031 1.7512846985092472 0 0 0
1623 10 16.192618715628004 7.271298824495984 0.02679607270720792 0 0 0
1618 4 12.594259001044001 9.348812774352032 1.7512846985092472 0 0 0
1624 2 16.192618715628004 9.34881277435203 1.751284698509247 0 0 0
1626 12 14.393438858336005 10.387569749279981 0.026796072707208834 0 0 0
1627 3 17.99179857292 6.23254184956803 1.7512846985092472 0 0 0
1629 14 19.790978430212 7.271298824495983 0.02679607270720918 0 0 0
1633 1 21.590158287504003 6.232541849568031 1.7512846985092472 0 0 0
1635 10 23.389338144796003 7.271298824495984 0.02679607270720792 0 0 0
1630 4 19.790978430212 9.348812774352032 1.751284698509247 0 0 0
1636 2 23.389338144796003 9.34881277435203 1.751284698509247 0 0 0
1632 16 17.99179857292 10.387569749279981 0.026796072707207828 0 0 0
1638 12 21.590158287504003 10.387569749279981 0.02679607270720886 0 0 0
1639 3 25.188518002088 6.23254184956803 1.7512846985092472 0 0 0
1641 14 26.98769785938 7.271298824495983 0.02679607270720918 0 0 0
1645 1 28.786877716672002 6.232541849568031 1.7512846985092472 0 0 0
1642 4 26.98769785938 9.348812774352032 1.751284698509247 0 0 0
1644 16 25.188518002088 10.387569749279981 0.026796072707207828 0 0 0
1650 12 28.786877716672002 10.387569749279981 0.026796072707208893 0 0 0
1647 10 30.586057573964002 7.271298824495983 0.02679607270720829 0 0 0
1651 3 32.385237431256 6.23254184956803 1.751284698509247 0 0 0
1653 14 34.184417288548 7.271298824495983 0.026796072707208844 0 0 0
1648 2 30.586057573964002 9.34881277435203 1.751284698509247 0 0 0
1654 4 34.184417288548 9.348812774352032 1.751284698509247 0 0 0
1656 16 32.385237431255995 10.387569749279981 0.026796072707207817 0 0 0
1657 1 35.98359714584 6.232541849568031 1.7512846985092472 0 0 0
1659 10 37.782777003132004 7.271298824495983 0.02679607270720888 0 0 0
1663 3 39.581956860424 6.23254184956803 1.7512846985092472 0 0 0
1665 14 41.381136717716 7.271298824495983 0.02679607270720822 0 0 0
1660 2 37.782777003132004 9.348812774352032 1.7512846985092472 0 0 0
1666 4 41.381136717716004 9.34881277435203 1.751284698509247 0 0 0
1662 12 35.98359714584 10.387569749279981 0.02679607270720882 0 0 0
1668 16 39.58195686042401 10.387569749279981 0.026796072707208105 0 0 0
1669 1 43.180316575008 6.232541849568031 1.7512846985092472 0 0 0
1671 10 44.9794964323 7.271298824495983 0.026796072707208893 0 0 0
1675 3 46.778676289592 6.23254184956803 1.7512846985092472 0 0 0
1672 2 44.9794964323 9.348812774352032 1.751284698509247 0 0 0
1674 12 43.180316575008 10.387569749279981 0.02679607270720859 0 0 0
1680 16 46.778676289592006 10.387569749279981 0.026796072707208102 0 0 0
1677 14 48.577856146883995 7.271298824495983 0.02679607270720823 0 0 0
1515 10 52.176215861468 7.271298824495983 0.026796072707208466 -1 0 0
1513 1 50.377036004176 6.232541849568031 1.751284698509247 -1 0 0
1678 4 48.577856146884 9.34881277435203 1.751284698509247 0 0 0
1516 2 52.176215861468 9.34881277435203 1.751284698509247 -1 0 0
1518 12 50.377036004176 10.387569749279981 0.02679607270720888 -1 0 0
1519 3 53.97539571876 6.2325418495680305 1.751284698509247 -1 0 0
1521 14 55.774575576052 7.271298824495983 0.02679607270720857 -1 0 0
1525 1 57.573755433344 6.2325418495680305 1.751284698509247 -1 0 0
1522 4 55.774575576052 9.34881277435203 1.751284698509247 -1 0 0
1524 16 53.97539571876 10.387569749279981 0.026796072707208383 -1 0 0
1530 12 57.573755433344 10.387569749279981 0.026796072707208383 -1 0 0
1527 10 59.372935290636 7.271298824495983 0.02679607270720856 -1 0 0
1531 3 61.172115147928 6.2325418495680305 1.751284698509247 -1 0 0
1533 14 62.97129500522 7.271298824495982 0.026796072707209483 -1 0 0
1537 1 64.770474862512 6.23254184956803 1.751284698509247 -1 0 0
1528 2 59.372935290636 9.34881277435203 1.751284698509247 -1 0 0
1534 4 62.97129500522 9.348812774352032 1.751284698509247 -1 0 0
1536 16 61.172115147928 10.387569749279981 0.026796072707208185 -1 0 0
1542 12 64.770474862512 10.387569749279983 0.02679607270720761 -1 0 0
1539 10 66.56965471980399 7.271298824495984 0.02679607270720772 -1 0 0
1543 3 68.368834577096 6.232541849568031 1.7512846985092472 -1 0 0
1545 14 70.168014434388 7.271298824495983 0.026796072707209025 -1 0 0
1540 2 66.56965471980399 9.34881277435203 1.751284698509247 -1 0 0
1546 4 70.168014434388 9.348812774352032 1.751284698509247 -1 0 0
1548 16 68.368834577096 10.387569749279981 0.026796072707209066 -1 0 0
1549 1 71.96719429168 6.232541849568031 1.7512846985092472 -1 0 0
1551 10 73.766374148972 7.271298824495984 0.02679607270720772 -1 0 0
1555 3 75.565554006264 6.23254184956803 1.751284698509247 -1 0 0
1552 2 73.766374148972 9.34881277435203 1.751284698509247 -1 0 0
1554 12 71.96719429168 10.387569749279981 0.02679607270720907 -1 0 0
1560 16 75.565554006264 10.387569749279983 0.026796072707207623 -1 0 0
1557 14 77.364733863556 7.271298824495982 0.02679607270720969 -1 0 0
1561 1 79.163913720848 6.23254184956803 1.751284698509247 -1 0 0
1563 10 80.96309357813999 7.271298824495983 0.026796072707208362 -1 0 0
1567 3 82.762273435432 6.232541849568031 1.751284698509247 -1 0 0
1558 4 77.364733863556 9.348812774352032 1.751284698509247 -1 0 0
1564 2 80.96309357814 9.348812774352032 1.751284698509247 -1 0 0
1566 12 79.163913720848 10.387569749279981 0.026796072707208376 -1 0 0
1572 16 82.76227343543201 10.387569749279981 0.02679607270720805 -1 0 0
1569 14 84.561453292724 7.271298824495983 0.026796072707208612 -1 0 0
1573 1 86.360633150016 6.232541849568032 1.751284698509247 -1 0 0
1575 10 88.159813007308 7.271298824495984 0.026796072707207734 -1 0 0
1570 4 84.561453292724 9.34881277435203 1.751284698509247 -1 0 0
1576 2 88.159813007308 9.34881277435203 1.751284698509247 -1 0 0
1578 12 86.360633150016 10.38756974927998 0.026796072707209486 -1 0 0
1579 3 89.95899286459999 6.23254184956803 1.751284698509247 -1 0 0
1581 14 91.758172721892 7.271298824495982 0.026796072707209462 -1 0 0
1585 1 93.557352579184 6.232541849568031 1.7512846985092472 -1 0 0
1582 4 91.758172721892 9.348812774352032 1.751284698509247 -1 0 0
1584 16 89.95899286459999 10.387569749279983 0.026796072707207613 -1 0 0
1590 12 93.557352579184 10.387569749279981 0.026796072707208816 -1 0 0
1587 10 95.356532436476 7.271298824495982 0.026796072707209465 -1 0 0
1591 3 97.155712293768 6.23254184956803 1.751284698509247 -1 0 0
1593 14 98.95489215106 7.271298824495984 0.026796072707207734 -1 0 0
1588 2 95.356532436476 9.348812774352032 1.751284698509247 -1 0 0
1594 4 98.95489215106 9.34881277435203 1.751284698509247 -1 0 0
1596 16 97.155712293768 10.387569749279983 0.02679607270720761 -1 0 0
1765 1 0 12.465083699136029 1.751284698509247 0 0 0
1771 3 3.5983597145840016 12.465083699136027 1.7512846985092472 0 0 0
1767 10 1.799179857292002 13.503840674063978 0.026796072707208705 0 0 0
1773 14 5.397539571876002 13.503840674063978 0.02679607270720878 0 0 0
1770 12 0 16.62011159884798 0.026796072707209517 0 0 0
1768 2 1.7991798572920008 15.581354623920028 1.7512846985092472 0 0 0
1776 16 3.5983597145840003 16.62011159884798 0.026796072707208903 0 0 0
1774 4 5.397539571876 15.581354623920026 1.751284698509247 0 0 0
1777 1 7.196719429168001 12.465083699136027 1.7512846985092472 0 0 0
1783 3 10.795079143752 12.465083699136027 1.751284698509247 0 0 0
1779 10 8.99589928646 13.503840674063978 0.026796072707208744 0 0 0
1782 12 7.196719429168 16.62011159884798 0.02679607270720896 0 0 0
1780 2 8.99589928646 15.581354623920026 1.751284698509247 0 0 0
1788 16 10.795079143752 16.62011159884798 0.02679607270720891 0 0 0
1789 1 14.393438858336005 12.465083699136029 1.751284698509247 0 0 0
1785 14 12.594259001044001 13.50384067406398 0.026796072707209413 0 0 0
1791 10 16.192618715628004 13.50384067406398 0.026796072707208112 0 0 0
1786 4 12.594259001044001 15.581354623920028 1.7512846985092467 0 0 0
1794 12 14.393438858336005 16.62011159884798 0.02679607270720942 0 0 0
1792 2 16.192618715628004 15.581354623920026 1.751284698509247 0 0 0
1795 3 17.99179857292 12.465083699136027 1.751284698509247 0 0 0
1801 1 21.590158287504003 12.465083699136029 1.751284698509247 0 0 0
1797 14 19.790978430212 13.50384067406398 0.0267960727072094 0 0 0
1803 10 23.389338144796003 13.50384067406398 0.026796072707208112 0 0 0
1800 16 17.99179857292 16.62011159884798 0.02679607270720839 0 0 0
1798 4 19.790978430212 15.581354623920028 1.7512846985092467 0 0 0
1806 12 21.590158287504003 16.62011159884798 0.026796072707209434 0 0 0
1804 2 23.389338144796003 15.581354623920026 1.751284698509247 0 0 0
1807 3 25.188518002088 12.465083699136027 1.751284698509247 0 0 0
1813 1 28.786877716672002 12.465083699136029 1.751284698509247 0 0 0
1809 14 26.98769785938 13.50384067406398 0.0267960727072094 0 0 0
1812 16 25.188518002088 16.62011159884798 0.02679607270720839 0 0 0
1810 4 26.98769785938 15.581354623920028 1.7512846985092467 0 0 0
1818 12 28.786877716672002 16.62011159884798 0.02679607270720947 0 0 0
1819 3 32.385237431256 12.465083699136027 1.751284698509247 0 0 0
1815 10 30.586057573964002 13.50384067406398 0.026796072707208404 0 0 0
1821 14 34.184417288548 13.50384067406398 0.02679607270720908 0 0 0
1816 2 30.586057573964002 15.581354623920026 1.751284698509247 0 0 0
1824 16 32.385237431255995 16.62011159884798 0.02679607270720839 0 0 0
1822 4 34.184417288548 15.581354623920028 1.751284698509247 0 0 0
1825 1 35.98359714584 12.465083699136029 1.751284698509247 0 0 0
1831 3 39.581956860424 12.465083699136027 1.751284698509247 0 0 0
1827 10 37.782777003132004 13.50384067406398 0.026796072707209115 0 0 0
1833 14 41.381136717716 13.50384067406398 0.026796072707208483 0 0 0
1830 12 35.98359714584 16.62011159884798 0.026796072707209385 0 0 0
1828 2 37.782777003132004 15.581354623920028 1.751284698509247 0 0 0
1836 16 39.58195686042401 16.62011159884798 0.026796072707208685 0 0 0
1834 4 41.381136717716004 15.581354623920026 1.751284698509247 0 0 0
1837 1 43.180316575008 12.465083699136029 1.751284698509247 0 0 0
1843 3 46.778676289592 12.465083699136027 1.751284698509247 0 0 0
1839 10 44.9794964323 13.50384067406398 0.026796072707209122 0 0 0
1842 12 43.180316575008 16.62011159884798 0.026796072707209146 0 0 0
1840 2 44.9794964323 15.581354623920028 1.751284698509247 0 0 0
1848 16 46.778676289592006 16.62011159884798 0.026796072707208685 0 0 0
1681 1 50.377036004176 12.465083699136029 1.751284698509247 -1 0 0
1845 14 48.577856146883995 13.50384067406398 0.026796072707208494 0 0 0
1683 10 52.176215861468 13.50384067406398 0.026796072707208556 -1 0 0
1846 4 48.577856146884 15.581354623920026 1.751284698509247 0 0 0
1686 12 50.377036004176 16.62011159884798 0.02679607270720923 -1 0 0
1684 2 52.176215861468 15.581354623920026 1.7512846985092472 -1 0 0
1687 3 53.97539571876 12.465083699136027 1.7512846985092472 -1 0 0
1693 1 57.573755433344 12.465083699136027 1.7512846985092472 -1 0 0
1689 14 55.774575576052 13.503840674063978 0.026796072707208764 -1 0 0
1692 16 53.97539571876 16.62011159884798 0.02679607270720884 -1 0 0
1690 4 55.774575576052 15.581354623920026 1.751284698509247 -1 0 0
1698 12 57.573755433344 16.62011159884798 0.026796072707208848 -1 0 0
1699 3 61.172115147928 12.465083699136027 1.751284698509247 -1 0 0
1705 1 64.770474862512 12.465083699136027 1.751284698509247 -1 0 0
1695 10 59.372935290636 13.503840674063978 0.02679607270720876 -1 0 0
1701 14 62.97129500522 13.503840674063978 0.02679607270720992 -1 0 0
1696 2 59.372935290636 15.581354623920026 1.751284698509247 -1 0 0
1704 16 61.172115147928 16.62011159884798 0.02679607270720878 -1 0 0
1702 4 62.97129500522 15.581354623920028 1.751284698509247 -1 0 0
1710 12 64.770474862512 16.62011159884798 0.026796072707208112 -1 0 0
1711 3 68.368834577096 12.465083699136029 1.751284698509247 -1 0 0
1707 10 66.56965471980399 13.50384067406398 0.026796072707207914 -1 0 0
1713 14 70.168014434388 13.50384067406398 0.02679607270720929 -1 0 0
1708 2 66.56965471980399 15.581354623920026 1.751284698509247 -1 0 0
1716 16 68.368834577096 16.62011159884798 0.02679607270720964 -1 0 0
1714 4 70.168014434388 15.581354623920028 1.751284698509247 -1 0 0
1717 1 71.96719429168 12.465083699136029 1.751284698509247 -1 0 0
1723 3 75.565554006264 12.465083699136027 1.751284698509247 -1 0 0
1719 10 73.766374148972 13.50384067406398 0.026796072707207914 -1 0 0
1722 12 71.96719429168 16.62011159884798 0.026796072707209646 -1 0 0
1720 2 73.766374148972 15.581354623920026 1.751284698509247 -1 0 0
1728 16 75.565554006264 16.62011159884798 0.026796072707208116 -1 0 0
1729 1 79.163913720848 12.465083699136027 1.751284698509247 -1 0 0
1735 3 82.762273435432 12.465083699136029 1.751284698509247 -1 0 0
1725 14 77.364733863556 13.503840674063978 0.02679607270721018 -1 0 0
1731 10 80.96309357813999 13.50384067406398 0.026796072707208546 -1 0 0
1726 4 77.364733863556 15.581354623920028 1.751284698509247 -1 0 0
1734 12 79.163913720848 16.62011159884798 0.026796072707208924 -1 0 0
1732 2 80.96309357814 15.581354623920028 1.7512846985092472 -1 0 0
1740 16 82.76227343543201 16.62011159884798 0.0267960727072086 -1 0 0
1741 1 86.360633150016 12.465083699136029 1.751284698509247 -1 0 0
1737 14 84.561453292724 13.50384067406398 0.026796072707208508 -1 0 0
1743 10 88.159813007308 13.50384067406398 0.026796072707207935 -1 0 0
1738 4 84.561453292724 15.581354623920026 1.751284698509247 -1 0 0
1746 12 86.360633150016 16.62011159884798 0.026796072707210405 -1 0 0
1744 2 88.159813007308 15.581354623920026 1.751284698509247 -1 0 0
1747 3 89.95899286459999 12.465083699136027 1.751284698509247 -1 0 0
1753 1 93.557352579184 12.465083699136029 1.751284698509247 -1 0 0
1749 14 91.758172721892 13.503840674063978 0.026796072707209698 -1 0 0
1752 16 89.95899286459999 16.62011159884798 0.026796072707208105 -1 0 0
1750 4 91.758172721892 15.581354623920028 1.751284698509247 -1 0 0
1758 12 93.557352579184 16.62011159884798 0.026796072707209385 -1 0 0
1759 3 97.155712293768 12.465083699136027 1.751284698509247 -1 0 0
1755 10 95.356532436476 13.503840674063978 0.026796072707209694 -1 0 0
1761 14 98.95489215106 13.50384067406398 0.026796072707207925 -1 0 0
1756 2 95.356532436476 15.581354623920028 1.751284698509247 -1 0 0
1764 16 97.155712293768 16.62011159884798 0.026796072707208105 -1 0 0
1762 4 98.95489215106 15.581354623920026 1.751284698509247 -1 0 0
1933 1 0 18.69762554870403 1.751284698509247 0 0 0
1939 3 3.5983597145840016 18.69762554870403 1.751284698509247 0 0 0
1935 10 1.7991798572920017 19.73638252363198 0.02679607270720851 0 0 0
1941 14 5.397539571876002 19.73638252363198 0.02679607270720851 0 0 0
1938 12 0 22.852653448415982 0.026796072707209885 0 0 0
1936 2 1.7991798572920008 21.81389647348803 1.7512846985092472 0 0 0
1944 16 3.5983597145840007 22.852653448415982 0.026796072707208754 0 0 0
1942 4 5.397539571876 21.81389647348803 1.751284698509247 0 0 0
1945 1 7.196719429168001 18.69762554870403 1.751284698509247 0 0 0
1951 3 10.795079143752 18.69762554870403 1.751284698509247 0 0 0
1947 10 8.99589928646 19.73638252363198 0.02679607270720838 0 0 0
1950 12 7.196719429168 22.852653448415982 0.02679607270720895 0 0 0
1948 2 8.99589928646 21.81389647348803 1.751284698509247 0 0 0
1956 16 10.795079143752 22.852653448415982 0.026796072707208803 0 0 0
1957 1 14.393438858336005 18.69762554870403 1.751284698509247 0 0 0
1953 14 12.594259001044001 19.73638252363198 0.02679607270720901 0 0 0
1959 10 16.192618715628004 19.73638252363198 0.02679607270720767 0 0 0
1954 4 12.594259001044001 21.81389647348803 1.751284698509247 0 0 0
1962 12 14.393438858336005 22.852653448415982 0.02679607270720973 0 0 0
1960 2 16.192618715628004 21.81389647348803 1.7512846985092472 0 0 0
1963 3 17.99179857292 18.69762554870403 1.751284698509247 0 0 0
1969 1 21.590158287504003 18.69762554870403 1.751284698509247 0 0 0
1965 14 19.790978430212 19.73638252363198 0.026796072707208976 0 0 0
1971 10 23.389338144796003 19.73638252363198 0.02679607270720767 0 0 0
1968 16 17.99179857292 22.852653448415982 0.02679607270720848 0 0 0
1966 4 19.790978430212 21.81389647348803 1.7512846985092472 0 0 0
1974 12 21.590158287504003 22.852653448415982 0.026796072707209746 0 0 0
1972 2 23.389338144796003 21.81389647348803 1.7512846985092472 0 0 0
1975 3 25.188518002088 18.69762554870403 1.751284698509247 0 0 0
1981 1 28.786877716672002 18.69762554870403 1.751284698509247 0 0 0
1977 14 26.98769785938 19.73638252363198 0.026796072707208976 0 0 0
1980 16 25.188518002088 22.852653448415982 0.02679607270720848 0 0 0
1978 4 26.98769785938 21.81389647348803 1.7512846985092472 0 0 0
1986 12 28.786877716672002 22.852653448415982 0.02679607270720978 0 0 0
1987 3 32.385237431256 18.69762554870403 1.751284698509247 0 0 0
1983 10 30.586057573964002 19.73638252363198 0.02679607270720796 0 0 0
1989 14 34.184417288548 19.73638252363198 0.026796072707208643 0 0 0
1984 2 30.586057573964002 21.813896473488025 1.7512846985092472 0 0 0
1992 16 32.385237431255995 22.852653448415982 0.02679607270720848 0 0 0
1990 4 34.184417288548 21.81389647348803 1.7512846985092472 0 0 0
1993 1 35.98359714584 18.69762554870403 1.751284698509247 0 0 0
1999 3 39.581956860424 18.69762554870403 1.751284698509247 0 0 0
1995 10 37.782777003132004 19.73638252363198 0.026796072707208674 0 0 0
2001 14 41.381136717716 19.73638252363198 0.02679607270720797 0 0 0
1998 12 35.98359714584 22.852653448415982 0.026796072707209503 0 0 0
1996 2 37.782777003132004 21.81389647348803 1.7512846985092472 0 0 0
2004 16 39.58195686042401 22.852653448415982 0.026796072707208768 0 0 0
2002 4 41.381136717716004 21.813896473488025 1.7512846985092472 0 0 0
2005 1 43.180316575008 18.69762554870403 1.751284698509247 0 0 0
2011 3 46.778676289592 18.69762554870403 1.751284698509247 0 0 0
2007 10 44.9794964323 19.73638252363198 0.02679607270720868 0 0 0
2010 12 43.180316575008 22.852653448415982 0.02679607270720947 0 0 0
2008 2 44.9794964323 21.81389647348803 1.7512846985092472 0 0 0
2016 16 46.778676289592006 22.852653448415982 0.026796072707208764 0 0 0
1849 1 50.377036004176 18.69762554870403 1.751284698509247 -1 0 0
2013 14 48.577856146883995 19.73638252363198 0.026796072707207977 0 0 0
1851 10 52.176215861468 19.73638252363198 0.026796072707208272 -1 0 0
2014 4 48.577856146884 21.813896473488025 1.751284698509247 0 0 0
1854 12 50.377036004176 22.852653448415982 0.026796072707209587 -1 0 0
1852 2 52.176215861468 21.81389647348803 1.751284698509247 -1 0 0
1855 3 53.97539571876 18.69762554870403 1.751284698509247 -1 0 0
1861 1 57.573755433344 18.69762554870403 1.751284698509247 -1 0 0
1857 14 55.774575576052 19.73638252363198 0.02679607270720844 -1 0 0
1860 16 53.97539571876 22.852653448415982 0.026796072707208844 -1 0 0
1858 4 55.774575576052 21.81389647348803 1.751284698509247 -1 0 0
1866 12 57.573755433344 22.852653448415982 0.026796072707208848 -1 0 0
1867 3 61.172115147928 18.69762554870403 1.751284698509247 -1 0 0
1873 1 64.770474862512 18.69762554870403 1.751284698509247 -1 0 0
1863 10 59.372935290636 19.73638252363198 0.026796072707208435 -1 0 0
1869 14 62.97129500522 19.73638252363198 0.026796072707209344 -1 0 0
1864 2 59.372935290636 21.81389647348803 1.751284698509247 -1 0 0
1872 16 61.172115147928 22.852653448415982 0.026796072707208674 -1 0 0
1870 4 62.97129500522 21.81389647348803 1.751284698509247 -1 0 0
1878 12 64.770474862512 22.852653448415982 0.026796072707208195 -1 0 0
1879 3 68.368834577096 18.69762554870403 1.751284698509247 -1 0 0
1875 10 66.56965471980399 19.73638252363198 0.026796072707207387 -1 0 0
1881 14 70.168014434388 19.73638252363198 0.02679607270720892 -1 0 0
1876 2 66.56965471980399 21.813896473488025 1.7512846985092472 -1 0 0
1884 16 68.368834577096 22.852653448415982 0.026796072707209965 -1 0 0
1882 4 70.168014434388 21.81389647348803 1.751284698509247 -1 0 0
1885 1 71.96719429168 18.69762554870403 1.751284698509247 -1 0 0
1891 3 75.565554006264 18.69762554870403 1.751284698509247 -1 0 0
1887 10 73.766374148972 19.73638252363198 0.026796072707207384 -1 0 0
1890 12 71.96719429168 22.852653448415982 0.02679607270720996 -1 0 0
1888 2 73.766374148972 21.813896473488025 1.7512846985092472 -1 0 0
1896 16 75.565554006264 22.852653448415982 0.026796072707208206 -1 0 0
1897 1 79.163913720848 18.69762554870403 1.7512846985092472 -1 0 0
1903 3 82.762273435432 18.69762554870403 1.7512846985092472 -1 0 0
1893 14 77.364733863556 19.73638252363198 0.02679607270720931 -1 0 0
1899 10 80.96309357813999 19.73638252363198 0.026796072707208116 -1 0 0
1894 4 77.364733863556 21.81389647348803 1.751284698509247 -1 0 0
1902 12 79.163913720848 22.852653448415982 0.026796072707208827 -1 0 0
1900 2 80.96309357814 21.81389647348803 1.7512846985092472 -1 0 0
1908 16 82.76227343543201 22.852653448415982 0.02679607270720883 -1 0 0
1909 1 86.360633150016 18.69762554870403 1.7512846985092472 -1 0 0
1905 14 84.561453292724 19.73638252363198 0.02679607270720801 -1 0 0