LAMMPS structure data file for MoS2 with 3 layers

9720 atoms
12 atom types

0.0 95.76714 xlo xhi
0.0 99.52413130533705 ylo yhi
-20 30.067441000000002 zlo zhi

Masses 

1 95.95 #Mo
2 95.95 #Mo
3 95.95 #Mo
4 95.95 #Mo
5 32.06 #S
6 32.06 #S
7 32.06 #S
8 32.06 #S
9 32.06 #S
10 32.06 #S
11 32.06 #S
12 32.06 #S

Atoms

1 5 0.1 0.1 0.0
2 1 1.6961190000000002 1.0215197343086764 -1.596119
3 6 0.1 0.1 -3.192238
4 7 1.6961190000000002 2.864559202926029 0.0
5 2 0.1 3.7860789372347057 -1.596119
6 8 1.6961190000000002 2.864559202926029 -3.192238
7 9 3.292238 0.1 0.0
8 3 4.888357 1.0215197343086764 -1.596119
9 10 3.292238 0.1 -3.192238
10 11 4.888357 2.864559202926029 0.0
11 4 3.292238 3.7860789372347057 -1.596119
12 12 4.888357 2.864559202926029 -3.192238
13 5 1.6961190000000002 1.0215197343086764 -6.689147
14 1 0.1 0.1 -8.285266
15 6 1.6961190000000002 1.0215197343086764 -9.881385
16 7 0.1 3.7860789372347057 -6.689147
17 2 1.6961190000000002 2.864559202926029 -8.285266
18 8 0.1 3.7860789372347057 -9.881385
19 9 4.888357 1.0215197343086764 -6.689147
20 3 3.292238 0.1 -8.285266
21 10 4.888357 1.0215197343086764 -9.881385
22 11 3.292238 3.7860789372347057 -6.689147
23 4 4.888357 2.864559202926029 -8.285266
24 12 3.292238 3.7860789372347057 -9.881385
25 5 0.1 0.1 -13.378294
26 1 1.6961190000000002 1.0215197343086764 -14.974413
27 6 0.1 0.1 -16.570532
28 7 1.6961190000000002 2.864559202926029 -13.378294
29 2 0.1 3.7860789372347057 -14.974413
30 8 1.6961190000000002 2.864559202926029 -16.570532
31 9 3.292238 0.1 -13.378294
32 3 4.888357 1.0215197343086764 -14.974413
33 10 3.292238 0.1 -16.570532
34 11 4.888357 2.864559202926029 -13.378294
35 4 3.292238 3.7860789372347057 -14.974413
36 12 4.888357 2.864559202926029 -16.570532
37 5 0.1 5.629118405852058 0.0
38 1 1.6961190000000002 6.550638140160734 -1.596119
39 6 0.1 5.629118405852058 -3.192238
40 7 1.6961190000000002 8.393677608778086 0.0
41 2 0.1 9.315197343086764 -1.596119
42 8 1.6961190000000002 8.393677608778086 -3.192238
43 9 3.292238 5.629118405852058 0.0
44 3 4.888357 6.550638140160734 -1.596119
45 10 3.292238 5.629118405852058 -3.192238
46 11 4.888357 8.393677608778086 0.0
47 4 3.292238 9.315197343086764 -1.596119
48 12 4.888357 8.393677608778086 -3.192238
49 5 1.6961190000000002 6.550638140160734 -6.689147
50 1 0.1 5.629118405852058 -8.285266
51 6 1.6961190000000002 6.550638140160734 -9.881385
52 7 0.1 9.315197343086764 -6.689147
53 2 1.6961190000000002 8.393677608778086 -8.285266
54 8 0.1 9.315197343086764 -9.881385
55 9 4.888357 6.550638140160734 -6.689147
56 3 3.292238 5.629118405852058 -8.285266
57 10 4.888357 6.550638140160734 -9.881385
58 11 3.292238 9.315197343086764 -6.689147
59 4 4.888357 8.393677608778086 -8.285266
60 12 3.292238 9.315197343086764 -9.881385
61 5 0.1 5.629118405852058 -13.378294
62 1 1.6961190000000002 6.550638140160734 -14.974413
63 6 0.1 5.629118405852058 -16.570532
64 7 1.6961190000000002 8.393677608778086 -13.378294
65 2 0.1 9.315197343086764 -14.974413
66 8 1.6961190000000002 8.393677608778086 -16.570532
67 9 3.292238 5.629118405852058 -13.378294
68 3 4.888357 6.550638140160734 -14.974413
69 10 3.292238 5.629118405852058 -16.570532
70 11 4.888357 8.393677608778086 -13.378294
71 4 3.292238 9.315197343086764 -14.974413
72 12 4.888357 8.393677608778086 -16.570532
73 5 0.1 11.158236811704116 0.0
74 1 1.6961190000000002 12.079756546012792 -1.596119
75 6 0.1 11.158236811704116 -3.192238
76 7 1.6961190000000002 13.922796014630146 0.0
77 2 0.1 14.844315748938822 -1.596119
78 8 1.6961190000000002 13.922796014630146 -3.192238
79 9 3.292238 11.158236811704116 0.0
80 3 4.888357 12.079756546012792 -1.596119
81 10 3.292238 11.158236811704116 -3.192238
82 11 4.888357 13.922796014630146 0.0
83 4 3.292238 14.844315748938822 -1.596119
84 12 4.888357 13.922796014630146 -3.192238
85 5 1.6961190000000002 12.079756546012792 -6.689147
86 1 0.1 11.158236811704116 -8.285266
87 6 1.6961190000000002 12.079756546012792 -9.881385
88 7 0.1 14.844315748938822 -6.689147
89 2 1.6961190000000002 13.922796014630146 -8.285266
90 8 0.1 14.844315748938822 -9.881385
91 9 4.888357 12.079756546012792 -6.689147
92 3 3.292238 11.158236811704116 -8.285266
93 10 4.888357 12.079756546012792 -9.881385
94 11 3.292238 14.844315748938822 -6.689147
95 4 4.888357 13.922796014630146 -8.285266
96 12 3.292238 14.844315748938822 -9.881385
97 5 0.1 11.158236811704116 -13.378294
98 1 1.6961190000000002 12.079756546012792 -14.974413
99 6 0.1 11.158236811704116 -16.570532
100 7 1.6961190000000002 13.922796014630146 -13.378294
101 2 0.1 14.844315748938822 -14.974413
102 8 1.6961190000000002 13.922796014630146 -16.570532
103 9 3.292238 11.158236811704116 -13.378294
104 3 4.888357 12.079756546012792 -14.974413
105 10 3.292238 11.158236811704116 -16.570532
106 11 4.888357 13.922796014630146 -13.378294
107 4 3.292238 14.844315748938822 -14.974413
108 12 4.888357 13.922796014630146 -16.570532
109 5 0.1 16.687355217556174 0.0
110 1 1.6961190000000002 17.608874951864852 -1.596119
111 6 0.1 16.687355217556174 -3.192238
112 7 1.6961190000000002 19.451914420482204 0.0
113 2 0.1 20.37343415479088 -1.596119
114 8 1.6961190000000002 19.451914420482204 -3.192238
115 9 3.292238 16.687355217556174 0.0
116 3 4.888357 17.608874951864852 -1.596119
117 10 3.292238 16.687355217556174 -3.192238
118 11 4.888357 19.451914420482204 0.0
119 4 3.292238 20.37343415479088 -1.596119
120 12 4.888357 19.451914420482204 -3.192238
121 5 1.6961190000000002 17.608874951864852 -6.689147
122 1 0.1 16.687355217556174 -8.285266
123 6 1.6961190000000002 17.608874951864852 -9.881385
124 7 0.1 20.37343415479088 -6.689147
125 2 1.6961190000000002 19.451914420482204 -8.285266
126 8 0.1 20.37343415479088 -9.881385
127 9 4.888357 17.608874951864852 -6.689147
128 3 3.292238 16.687355217556174 -8.285266
129 10 4.888357 17.608874951864852 -9.881385
130 11 3.292238 20.37343415479088 -6.689147
131 4 4.888357 19.451914420482204 -8.285266
132 12 3.292238 20.37343415479088 -9.881385
133 5 0.1 16.687355217556174 -13.378294
134 1 1.6961190000000002 17.608874951864852 -14.974413
135 6 0.1 16.687355217556174 -16.570532
136 7 1.6961190000000002 19.451914420482204 -13.378294
137 2 0.1 20.37343415479088 -14.974413
138 8 1.6961190000000002 19.451914420482204 -16.570532
139 9 3.292238 16.687355217556174 -13.378294
140 3 4.888357 17.608874951864852 -14.974413
141 10 3.292238 16.687355217556174 -16.570532
142 11 4.888357 19.451914420482204 -13.378294
143 4 3.292238 20.37343415479088 -14.974413
144 12 4.888357 19.451914420482204 -16.570532
145 5 0.1 22.216473623408234 0.0
146 1 1.6961190000000002 23.137993357716912 -1.596119
147 6 0.1 22.216473623408234 -3.192238
148 7 1.6961190000000002 24.981032826334264 0.0
149 2 0.1 25.90255256064294 -1.596119
150 8 1.6961190000000002 24.981032826334264 -3.192238
151 9 3.292238 22.216473623408234 0.0
152 3 4.888357 23.137993357716912 -1.596119
153 10 3.292238 22.216473623408234 -3.192238
154 11 4.888357 24.981032826334264 0.0
155 4 3.292238 25.90255256064294 -1.596119
156 12 4.888357 24.981032826334264 -3.192238
157 5 1.6961190000000002 23.137993357716912 -6.689147
158 1 0.1 22.216473623408234 -8.285266
159 6 1.6961190000000002 23.137993357716912 -9.881385
160 7 0.1 25.90255256064294 -6.689147
161 2 1.6961190000000002 24.981032826334264 -8.285266
162 8 0.1 25.90255256064294 -9.881385
163 9 4.888357 23.137993357716912 -6.689147
164 3 3.292238 22.216473623408234 -8.285266
165 10 4.888357 23.137993357716912 -9.881385
166 11 3.292238 25.90255256064294 -6.689147
167 4 4.888357 24.981032826334264 -8.285266
168 12 3.292238 25.90255256064294 -9.881385
169 5 0.1 22.216473623408234 -13.378294
170 1 1.6961190000000002 23.137993357716912 -14.974413
171 6 0.1 22.216473623408234 -16.570532
172 7 1.6961190000000002 24.981032826334264 -13.378294
173 2 0.1 25.90255256064294 -14.974413
174 8 1.6961190000000002 24.981032826334264 -16.570532
175 9 3.292238 22.216473623408234 -13.378294
176 3 4.888357 23.137993357716912 -14.974413
177 10 3.292238 22.216473623408234 -16.570532
178 11 4.888357 24.981032826334264 -13.378294
179 4 3.292238 25.90255256064294 -14.974413
180 12 4.888357 24.981032826334264 -16.570532
181 5 0.1 27.745592029260294 0.0
182 1 1.6961190000000002 28.667111763568972 -1.596119
183 6 0.1 27.745592029260294 -3.192238
184 7 1.6961190000000002 30.510151232186324 0.0
185 2 0.1 31.431670966495 -1.596119
186 8 1.6961190000000002 30.510151232186324 -3.192238
187 9 3.292238 27.745592029260294 0.0
188 3 4.888357 28.667111763568972 -1.596119
189 10 3.292238 27.745592029260294 -3.192238
190 11 4.888357 30.510151232186324 0.0
191 4 3.292238 31.431670966495 -1.596119
192 12 4.888357 30.510151232186324 -3.192238
193 5 1.6961190000000002 28.667111763568972 -6.689147
194 1 0.1 27.745592029260294 -8.285266
195 6 1.6961190000000002 28.667111763568972 -9.881385
196 7 0.1 31.431670966495 -6.689147
197 2 1.6961190000000002 30.510151232186324 -8.285266
198 8 0.1 31.431670966495 -9.881385
199 9 4.888357 28.667111763568972 -6.689147
200 3 3.292238 27.745592029260294 -8.285266
201 10 4.888357 28.667111763568972 -9.881385
202 11 3.292238 31.431670966495 -6.689147
203 4 4.888357 30.510151232186324 -8.285266
204 12 3.292238 31.431670966495 -9.881385
205 5 0.1 27.745592029260294 -13.378294
206 1 1.6961190000000002 28.667111763568972 -14.974413
207 6 0.1 27.745592029260294 -16.570532
208 7 1.6961190000000002 30.510151232186324 -13.378294
209 2 0.1 31.431670966495 -14.974413
210 8 1.6961190000000002 30.510151232186324 -16.570532
211 9 3.292238 27.745592029260294 -13.378294
212 3 4.888357 28.667111763568972 -14.974413
213 10 3.292238 27.745592029260294 -16.570532
214 11 4.888357 30.510151232186324 -13.378294
215 4 3.292238 31.431670966495 -14.974413
216 12 4.888357 30.510151232186324 -16.570532
217 5 0.1 33.27471043511235 0.0
218 1 1.6961190000000002 34.19623016942102 -1.596119
219 6 0.1 33.27471043511235 -3.192238
220 7 1.6961190000000002 36.03926963803838 0.0
221 2 0.1 36.96078937234705 -1.596119
222 8 1.6961190000000002 36.03926963803838 -3.192238
223 9 3.292238 33.27471043511235 0.0
224 3 4.888357 34.19623016942102 -1.596119
225 10 3.292238 33.27471043511235 -3.192238
226 11 4.888357 36.03926963803838 0.0
227 4 3.292238 36.96078937234705 -1.596119
228 12 4.888357 36.03926963803838 -3.192238
229 5 1.6961190000000002 34.19623016942102 -6.689147
230 1 0.1 33.27471043511235 -8.285266
231 6 1.6961190000000002 34.19623016942102 -9.881385
232 7 0.1 36.96078937234705 -6.689147
233 2 1.6961190000000002 36.03926963803838 -8.285266
234 8 0.1 36.96078937234705 -9.881385
235 9 4.888357 34.19623016942102 -6.689147
236 3 3.292238 33.27471043511235 -8.285266
237 10 4.888357 34.19623016942102 -9.881385
238 11 3.292238 36.96078937234705 -6.689147
239 4 4.888357 36.03926963803838 -8.285266
240 12 3.292238 36.96078937234705 -9.881385
241 5 0.1 33.27471043511235 -13.378294
242 1 1.6961190000000002 34.19623016942102 -14.974413
243 6 0.1 33.27471043511235 -16.570532
244 7 1.6961190000000002 36.03926963803838 -13.378294
245 2 0.1 36.96078937234705 -14.974413
246 8 1.6961190000000002 36.03926963803838 -16.570532
247 9 3.292238 33.27471043511235 -13.378294
248 3 4.888357 34.19623016942102 -14.974413
249 10 3.292238 33.27471043511235 -16.570532
250 11 4.888357 36.03926963803838 -13.378294
251 4 3.292238 36.96078937234705 -14.974413
252 12 4.888357 36.03926963803838 -16.570532
253 5 0.1 38.80382884096441 0.0
254 1 1.6961190000000002 39.72534857527308 -1.596119
255 6 0.1 38.80382884096441 -3.192238
256 7 1.6961190000000002 41.56838804389044 0.0
257 2 0.1 42.48990777819911 -1.596119
258 8 1.6961190000000002 41.56838804389044 -3.192238
259 9 3.292238 38.80382884096441 0.0
260 3 4.888357 39.72534857527308 -1.596119
261 10 3.292238 38.80382884096441 -3.192238
262 11 4.888357 41.56838804389044 0.0
263 4 3.292238 42.48990777819911 -1.596119
264 12 4.888357 41.56838804389044 -3.192238
265 5 1.6961190000000002 39.72534857527308 -6.689147
266 1 0.1 38.80382884096441 -8.285266
267 6 1.6961190000000002 39.72534857527308 -9.881385
268 7 0.1 42.48990777819911 -6.689147
269 2 1.6961190000000002 41.56838804389044 -8.285266
270 8 0.1 42.48990777819911 -9.881385
271 9 4.888357 39.72534857527308 -6.689147
272 3 3.292238 38.80382884096441 -8.285266
273 10 4.888357 39.72534857527308 -9.881385
274 11 3.292238 42.48990777819911 -6.689147
275 4 4.888357 41.56838804389044 -8.285266
276 12 3.292238 42.48990777819911 -9.881385
277 5 0.1 38.80382884096441 -13.378294
278 1 1.6961190000000002 39.72534857527308 -14.974413
279 6 0.1 38.80382884096441 -16.570532
280 7 1.6961190000000002 41.56838804389044 -13.378294
281 2 0.1 42.48990777819911 -14.974413
282 8 1.6961190000000002 41.56838804389044 -16.570532
283 9 3.292238 38.80382884096441 -13.378294
284 3 4.888357 39.72534857527308 -14.974413
285 10 3.292238 38.80382884096441 -16.570532
286 11 4.888357 41.56838804389044 -13.378294
287 4 3.292238 42.48990777819911 -14.974413
288 12 4.888357 41.56838804389044 -16.570532
289 5 0.1 44.33294724681647 0.0
290 1 1.6961190000000002 45.25446698112514 -1.596119
291 6 0.1 44.33294724681647 -3.192238
292 7 1.6961190000000002 47.0975064497425 0.0
293 2 0.1 48.01902618405117 -1.596119
294 8 1.6961190000000002 47.0975064497425 -3.192238
295 9 3.292238 44.33294724681647 0.0
296 3 4.888357 45.25446698112514 -1.596119
297 10 3.292238 44.33294724681647 -3.192238
298 11 4.888357 47.0975064497425 0.0
299 4 3.292238 48.01902618405117 -1.596119
300 12 4.888357 47.0975064497425 -3.192238
301 5 1.6961190000000002 45.25446698112514 -6.689147
302 1 0.1 44.33294724681647 -8.285266
303 6 1.6961190000000002 45.25446698112514 -9.881385
304 7 0.1 48.01902618405117 -6.689147
305 2 1.6961190000000002 47.0975064497425 -8.285266
306 8 0.1 48.01902618405117 -9.881385
307 9 4.888357 45.25446698112514 -6.689147
308 3 3.292238 44.33294724681647 -8.285266
309 10 4.888357 45.25446698112514 -9.881385
310 11 3.292238 48.01902618405117 -6.689147
311 4 4.888357 47.0975064497425 -8.285266
312 12 3.292238 48.01902618405117 -9.881385
313 5 0.1 44.33294724681647 -13.378294
314 1 1.6961190000000002 45.25446698112514 -14.974413
315 6 0.1 44.33294724681647 -16.570532
316 7 1.6961190000000002 47.0975064497425 -13.378294
317 2 0.1 48.01902618405117 -14.974413
318 8 1.6961190000000002 47.0975064497425 -16.570532
319 9 3.292238 44.33294724681647 -13.378294
320 3 4.888357 45.25446698112514 -14.974413
321 10 3.292238 44.33294724681647 -16.570532
322 11 4.888357 47.0975064497425 -13.378294
323 4 3.292238 48.01902618405117 -14.974413
324 12 4.888357 47.0975064497425 -16.570532
325 5 0.1 49.86206565266853 0.0
326 1 1.6961190000000002 50.7835853869772 -1.596119
327 6 0.1 49.86206565266853 -3.192238
328 7 1.6961190000000002 52.62662485559456 0.0
329 2 0.1 53.54814458990323 -1.596119
330 8 1.6961190000000002 52.62662485559456 -3.192238
331 9 3.292238 49.86206565266853 0.0
332 3 4.888357 50.7835853869772 -1.596119
333 10 3.292238 49.86206565266853 -3.192238
334 11 4.888357 52.62662485559456 0.0
335 4 3.292238 53.54814458990323 -1.596119
336 12 4.888357 52.62662485559456 -3.192238
337 5 1.6961190000000002 50.7835853869772 -6.689147
338 1 0.1 49.86206565266853 -8.285266
339 6 1.6961190000000002 50.7835853869772 -9.881385
340 7 0.1 53.54814458990323 -6.689147
341 2 1.6961190000000002 52.62662485559456 -8.285266
342 8 0.1 53.54814458990323 -9.881385
343 9 4.888357 50.7835853869772 -6.689147
344 3 3.292238 49.86206565266853 -8.285266
345 10 4.888357 50.7835853869772 -9.881385
346 11 3.292238 53.54814458990323 -6.689147
347 4 4.888357 52.62662485559456 -8.285266
348 12 3.292238 53.54814458990323 -9.881385
349 5 0.1 49.86206565266853 -13.378294
350 1 1.6961190000000002 50.7835853869772 -14.974413
351 6 0.1 49.86206565266853 -16.570532
352 7 1.6961190000000002 52.62662485559456 -13.378294
353 2 0.1 53.54814458990323 -14.974413
354 8 1.6961190000000002 52.62662485559456 -16.570532
355 9 3.292238 49.86206565266853 -13.378294
356 3 4.888357 50.7835853869772 -14.974413
357 10 3.292238 49.86206565266853 -16.570532
358 11 4.888357 52.62662485559456 -13.378294
359 4 3.292238 53.54814458990323 -14.974413
360 12 4.888357 52.62662485559456 -16.570532
361 5 0.1 55.39118405852059 0.0
362 1 1.6961190000000002 56.31270379282926 -1.596119
363 6 0.1 55.39118405852059 -3.192238
364 7 1.6961190000000002 58.15574326144662 0.0
365 2 0.1 59.07726299575529 -1.596119
366 8 1.6961190000000002 58.15574326144662 -3.192238
367 9 3.292238 55.39118405852059 0.0
368 3 4.888357 56.31270379282926 -1.596119
369 10 3.292238 55.39118405852059 -3.192238
370 11 4.888357 58.15574326144662 0.0
371 4 3.292238 59.07726299575529 -1.596119
372 12 4.888357 58.15574326144662 -3.192238
373 5 1.6961190000000002 56.31270379282926 -6.689147
374 1 0.1 55.39118405852059 -8.285266
375 6 1.6961190000000002 56.31270379282926 -9.881385
376 7 0.1 59.07726299575529 -6.689147
377 2 1.6961190000000002 58.15574326144662 -8.285266
378 8 0.1 59.07726299575529 -9.881385
379 9 4.888357 56.31270379282926 -6.689147
380 3 3.292238 55.39118405852059 -8.285266
381 10 4.888357 56.31270379282926 -9.881385
382 11 3.292238 59.07726299575529 -6.689147
383 4 4.888357 58.15574326144662 -8.285266
384 12 3.292238 59.07726299575529 -9.881385
385 5 0.1 55.39118405852059 -13.378294
386 1 1.6961190000000002 56.31270379282926 -14.974413
387 6 0.1 55.39118405852059 -16.570532
388 7 1.6961190000000002 58.15574326144662 -13.378294
389 2 0.1 59.07726299575529 -14.974413
390 8 1.6961190000000002 58.15574326144662 -16.570532
391 9 3.292238 55.39118405852059 -13.378294
392 3 4.888357 56.31270379282926 -14.974413
393 10 3.292238 55.39118405852059 -16.570532
394 11 4.888357 58.15574326144662 -13.378294
395 4 3.292238 59.07726299575529 -14.974413
396 12 4.888357 58.15574326144662 -16.570532
397 5 0.1 60.92030246437264 0.0
398 1 1.6961190000000002 61.841822198681314 -1.596119
399 6 0.1 60.92030246437264 -3.192238
400 7 1.6961190000000002 63.68486166729867 0.0
401 2 0.1 64.60638140160734 -1.596119
402 8 1.6961190000000002 63.68486166729867 -3.192238
403 9 3.292238 60.92030246437264 0.0
404 3 4.888357 61.841822198681314 -1.596119
405 10 3.292238 60.92030246437264 -3.192238
406 11 4.888357 63.68486166729867 0.0
407 4 3.292238 64.60638140160734 -1.596119
408 12 4.888357 63.68486166729867 -3.192238
409 5 1.6961190000000002 61.841822198681314 -6.689147
410 1 0.1 60.92030246437264 -8.285266
411 6 1.6961190000000002 61.841822198681314 -9.881385
412 7 0.1 64.60638140160734 -6.689147
413 2 1.6961190000000002 63.68486166729867 -8.285266
414 8 0.1 64.60638140160734 -9.881385
415 9 4.888357 61.841822198681314 -6.689147
416 3 3.292238 60.92030246437264 -8.285266
417 10 4.888357 61.841822198681314 -9.881385
418 11 3.292238 64.60638140160734 -6.689147
419 4 4.888357 63.68486166729867 -8.285266
420 12 3.292238 64.60638140160734 -9.881385
421 5 0.1 60.92030246437264 -13.378294
422 1 1.6961190000000002 61.841822198681314 -14.974413
423 6 0.1 60.92030246437264 -16.570532
424 7 1.6961190000000002 63.68486166729867 -13.378294
425 2 0.1 64.60638140160734 -14.974413
426 8 1.6961190000000002 63.68486166729867 -16.570532
427 9 3.292238 60.92030246437264 -13.378294
428 3 4.888357 61.841822198681314 -14.974413
429 10 3.292238 60.92030246437264 -16.570532
430 11 4.888357 63.68486166729867 -13.378294
431 4 3.292238 64.60638140160734 -14.974413
432 12 4.888357 63.68486166729867 -16.570532
433 5 0.1 66.44942087022469 0.0
434 1 1.6961190000000002 67.37094060453336 -1.596119
435 6 0.1 66.44942087022469 -3.192238
436 7 1.6961190000000002 69.21398007315071 0.0
437 2 0.1 70.1354998074594 -1.596119
438 8 1.6961190000000002 69.21398007315071 -3.192238
439 9 3.292238 66.44942087022469 0.0
440 3 4.888357 67.37094060453336 -1.596119
441 10 3.292238 66.44942087022469 -3.192238
442 11 4.888357 69.21398007315071 0.0
443 4 3.292238 70.1354998074594 -1.596119
444 12 4.888357 69.21398007315071 -3.192238
445 5 1.6961190000000002 67.37094060453336 -6.689147
446 1 0.1 66.44942087022469 -8.285266
447 6 1.6961190000000002 67.37094060453336 -9.881385
448 7 0.1 70.1354998074594 -6.689147
449 2 1.6961190000000002 69.21398007315071 -8.285266
450 8 0.1 70.1354998074594 -9.881385
451 9 4.888357 67.37094060453336 -6.689147
452 3 3.292238 66.44942087022469 -8.285266
453 10 4.888357 67.37094060453336 -9.881385
454 11 3.292238 70.1354998074594 -6.689147
455 4 4.888357 69.21398007315071 -8.285266
456 12 3.292238 70.1354998074594 -9.881385
457 5 0.1 66.44942087022469 -13.378294
458 1 1.6961190000000002 67.37094060453336 -14.974413
459 6 0.1 66.44942087022469 -16.570532
460 7 1.6961190000000002 69.21398007315071 -13.378294
461 2 0.1 70.1354998074594 -14.974413
462 8 1.6961190000000002 69.21398007315071 -16.570532
463 9 3.292238 66.44942087022469 -13.378294
464 3 4.888357 67.37094060453336 -14.974413
465 10 3.292238 66.44942087022469 -16.570532
466 11 4.888357 69.21398007315071 -13.378294
467 4 3.292238 70.1354998074594 -14.974413
468 12 4.888357 69.21398007315071 -16.570532
469 5 0.1 71.97853927607675 0.0
470 1 1.6961190000000002 72.90005901038542 -1.596119
471 6 0.1 71.97853927607675 -3.192238
472 7 1.6961190000000002 74.74309847900277 0.0
473 2 0.1 75.66461821331146 -1.596119
474 8 1.6961190000000002 74.74309847900277 -3.192238
475 9 3.292238 71.97853927607675 0.0
476 3 4.888357 72.90005901038542 -1.596119
477 10 3.292238 71.97853927607675 -3.192238
478 11 4.888357 74.74309847900277 0.0
479 4 3.292238 75.66461821331146 -1.596119
480 12 4.888357 74.74309847900277 -3.192238
481 5 1.6961190000000002 72.90005901038542 -6.689147
482 1 0.1 71.97853927607675 -8.285266
483 6 1.6961190000000002 72.90005901038542 -9.881385
484 7 0.1 75.66461821331146 -6.689147
485 2 1.6961190000000002 74.74309847900277 -8.285266
486 8 0.1 75.66461821331146 -9.881385
487 9 4.888357 72.90005901038542 -6.689147
488 3 3.292238 71.97853927607675 -8.285266
489 10 4.888357 72.90005901038542 -9.881385
490 11 3.292238 75.66461821331146 -6.689147
491 4 4.888357 74.74309847900277 -8.285266
492 12 3.292238 75.66461821331146 -9.881385
493 5 0.1 71.97853927607675 -13.378294
494 1 1.6961190000000002 72.90005901038542 -14.974413
495 6 0.1 71.97853927607675 -16.570532
496 7 1.6961190000000002 74.74309847900277 -13.378294
497 2 0.1 75.66461821331146 -14.974413
498 8 1.6961190000000002 74.74309847900277 -16.570532
499 9 3.292238 71.97853927607675 -13.378294
500 3 4.888357 72.90005901038542 -14.974413
501 10 3.292238 71.97853927607675 -16.570532
502 11 4.888357 74.74309847900277 -13.378294
503 4 3.292238 75.66461821331146 -14.974413
504 12 4.888357 74.74309847900277 -16.570532
505 5 0.1 77.5076576819288 0.0
506 1 1.6961190000000002 78.42917741623748 -1.596119
507 6 0.1 77.5076576819288 -3.192238
508 7 1.6961190000000002 80.27221688485483 0.0
509 2 0.1 81.19373661916352 -1.596119
510 8 1.6961190000000002 80.27221688485483 -3.192238
511 9 3.292238 77.5076576819288 0.0
512 3 4.888357 78.42917741623748 -1.596119
513 10 3.292238 77.5076576819288 -3.192238
514 11 4.888357 80.27221688485483 0.0
515 4 3.292238 81.19373661916352 -1.596119
516 12 4.888357 80.27221688485483 -3.192238
517 5 1.6961190000000002 78.42917741623748 -6.689147
518 1 0.1 77.5076576819288 -8.285266
519 6 1.6961190000000002 78.42917741623748 -9.881385
520 7 0.1 81.19373661916352 -6.689147
521 2 1.6961190000000002 80.27221688485483 -8.285266
522 8 0.1 81.19373661916352 -9.881385
523 9 4.888357 78.42917741623748 -6.689147
524 3 3.292238 77.5076576819288 -8.285266
525 10 4.888357 78.42917741623748 -9.881385
526 11 3.292238 81.19373661916352 -6.689147
527 4 4.888357 80.27221688485483 -8.285266
528 12 3.292238 81.19373661916352 -9.881385
529 5 0.1 77.5076576819288 -13.378294
530 1 1.6961190000000002 78.42917741623748 -14.974413
531 6 0.1 77.5076576819288 -16.570532
532 7 1.6961190000000002 80.27221688485483 -13.378294
533 2 0.1 81.19373661916352 -14.974413
534 8 1.6961190000000002 80.27221688485483 -16.570532
535 9 3.292238 77.5076576819288 -13.378294
536 3 4.888357 78.42917741623748 -14.974413
537 10 3.292238 77.5076576819288 -16.570532
538 11 4.888357 80.27221688485483 -13.378294
539 4 3.292238 81.19373661916352 -14.974413
540 12 4.888357 80.27221688485483 -16.570532
541 5 0.1 83.03677608778086 0.0
542 1 1.6961190000000002 83.95829582208954 -1.596119
543 6 0.1 83.03677608778086 -3.192238
544 7 1.6961190000000002 85.80133529070689 0.0
545 2 0.1 86.72285502501558 -1.596119
546 8 1.6961190000000002 85.80133529070689 -3.192238
547 9 3.292238 83.03677608778086 0.0
548 3 4.888357 83.95829582208954 -1.596119
549 10 3.292238 83.03677608778086 -3.192238
550 11 4.888357 85.80133529070689 0.0
551 4 3.292238 86.72285502501558 -1.596119
552 12 4.888357 85.80133529070689 -3.192238
553 5 1.6961190000000002 83.95829582208954 -6.689147
554 1 0.1 83.03677608778086 -8.285266
555 6 1.6961190000000002 83.95829582208954 -9.881385
556 7 0.1 86.72285502501558 -6.689147
557 2 1.6961190000000002 85.80133529070689 -8.285266
558 8 0.1 86.72285502501558 -9.881385
559 9 4.888357 83.95829582208954 -6.689147
560 3 3.292238 83.03677608778086 -8.285266
561 10 4.888357 83.95829582208954 -9.881385
562 11 3.292238 86.72285502501558 -6.689147
563 4 4.888357 85.80133529070689 -8.285266
564 12 3.292238 86.72285502501558 -9.881385
565 5 0.1 83.03677608778086 -13.378294
566 1 1.6961190000000002 83.95829582208954 -14.974413
567 6 0.1 83.03677608778086 -16.570532
568 7 1.6961190000000002 85.80133529070689 -13.378294
569 2 0.1 86.72285502501558 -14.974413
570 8 1.6961190000000002 85.80133529070689 -16.570532
571 9 3.292238 83.03677608778086 -13.378294
572 3 4.888357 83.95829582208954 -14.974413
573 10 3.292238 83.03677608778086 -16.570532
574 11 4.888357 85.80133529070689 -13.378294
575 4 3.292238 86.72285502501558 -14.974413
576 12 4.888357 85.80133529070689 -16.570532
577 5 0.1 88.56589449363292 0.0
578 1 1.6961190000000002 89.4874142279416 -1.596119
579 6 0.1 88.56589449363292 -3.192238
580 7 1.6961190000000002 91.33045369655895 0.0
581 2 0.1 92.25197343086764 -1.596119
582 8 1.6961190000000002 91.33045369655895 -3.192238
583 9 3.292238 88.56589449363292 0.0
584 3 4.888357 89.4874142279416 -1.596119
585 10 3.292238 88.56589449363292 -3.192238
586 11 4.888357 91.33045369655895 0.0
587 4 3.292238 92.25197343086764 -1.596119
588 12 4.888357 91.33045369655895 -3.192238
589 5 1.6961190000000002 89.4874142279416 -6.689147
590 1 0.1 88.56589449363292 -8.285266
591 6 1.6961190000000002 89.4874142279416 -9.881385
592 7 0.1 92.25197343086764 -6.689147
593 2 1.6961190000000002 91.33045369655895 -8.285266
594 8 0.1 92.25197343086764 -9.881385
595 9 4.888357 89.4874142279416 -6.689147
596 3 3.292238 88.56589449363292 -8.285266
597 10 4.888357 89.4874142279416 -9.881385
598 11 3.292238 92.25197343086764 -6.689147
599 4 4.888357 91.33045369655895 -8.285266
600 12 3.292238 92.25197343086764 -9.881385
601 5 0.1 88.56589449363292 -13.378294
602 1 1.6961190000000002 89.4874142279416 -14.974413
603 6 0.1 88.56589449363292 -16.570532
604 7 1.6961190000000002 91.33045369655895 -13.378294
605 2 0.1 92.25197343086764 -14.974413
606 8 1.6961190000000002 91.33045369655895 -16.570532
607 9 3.292238 88.56589449363292 -13.378294
608 3 4.888357 89.4874142279416 -14.974413
609 10 3.292238 88.56589449363292 -16.570532
610 11 4.888357 91.33045369655895 -13.378294
611 4 3.292238 92.25197343086764 -14.974413
612 12 4.888357 91.33045369655895 -16.570532
613 5 0.1 94.09501289948498 0.0
614 1 1.6961190000000002 95.01653263379366 -1.596119
615 6 0.1 94.09501289948498 -3.192238
616 7 1.6961190000000002 96.85957210241101 0.0
617 2 0.1 97.7810918367197 -1.596119
618 8 1.6961190000000002 96.85957210241101 -3.192238
619 9 3.292238 94.09501289948498 0.0
620 3 4.888357 95.01653263379366 -1.596119
621 10 3.292238 94.09501289948498 -3.192238
622 11 4.888357 96.85957210241101 0.0
623 4 3.292238 97.7810918367197 -1.596119
624 12 4.888357 96.85957210241101 -3.192238
625 5 1.6961190000000002 95.01653263379366 -6.689147
626 1 0.1 94.09501289948498 -8.285266
627 6 1.6961190000000002 95.01653263379366 -9.881385
628 7 0.1 97.7810918367197 -6.689147
629 2 1.6961190000000002 96.85957210241101 -8.285266
630 8 0.1 97.7810918367197 -9.881385
631 9 4.888357 95.01653263379366 -6.689147
632 3 3.292238 94.09501289948498 -8.285266
633 10 4.888357 95.01653263379366 -9.881385
634 11 3.292238 97.7810918367197 -6.689147
635 4 4.888357 96.85957210241101 -8.285266
636 12 3.292238 97.7810918367197 -9.881385
637 5 0.1 94.09501289948498 -13.378294
638 1 1.6961190000000002 95.01653263379366 -14.974413
639 6 0.1 94.09501289948498 -16.570532
640 7 1.6961190000000002 96.85957210241101 -13.378294
641 2 0.1 97.7810918367197 -14.974413
642 8 1.6961190000000002 96.85957210241101 -16.570532
643 9 3.292238 94.09501289948498 -13.378294
644 3 4.888357 95.01653263379366 -14.974413
645 10 3.292238 94.09501289948498 -16.570532
646 11 4.888357 96.85957210241101 -13.378294
647 4 3.292238 97.7810918367197 -14.974413
648 12 4.888357 96.85957210241101 -16.570532
649 5 6.484476 0.1 0.0
650 1 8.080595 1.0215197343086764 -1.596119
651 6 6.484476 0.1 -3.192238
652 7 8.080595 2.864559202926029 0.0
653 2 6.484476 3.7860789372347057 -1.596119
654 8 8.080595 2.864559202926029 -3.192238
655 9 9.676714 0.1 0.0
656 3 11.272833 1.0215197343086764 -1.596119
657 10 9.676714 0.1 -3.192238
658 11 11.272833 2.864559202926029 0.0
659 4 9.676714 3.7860789372347057 -1.596119
660 12 11.272833 2.864559202926029 -3.192238
661 5 8.080595 1.0215197343086764 -6.689147
662 1 6.484476 0.1 -8.285266
663 6 8.080595 1.0215197343086764 -9.881385
664 7 6.484476 3.7860789372347057 -6.689147
665 2 8.080595 2.864559202926029 -8.285266
666 8 6.484476 3.7860789372347057 -9.881385
667 9 11.272833 1.0215197343086764 -6.689147
668 3 9.676714 0.1 -8.285266
669 10 11.272833 1.0215197343086764 -9.881385
670 11 9.676714 3.7860789372347057 -6.689147
671 4 11.272833 2.864559202926029 -8.285266
672 12 9.676714 3.7860789372347057 -9.881385
673 5 6.484476 0.1 -13.378294
674 1 8.080595 1.0215197343086764 -14.974413
675 6 6.484476 0.1 -16.570532
676 7 8.080595 2.864559202926029 -13.378294
677 2 6.484476 3.7860789372347057 -14.974413
678 8 8.080595 2.864559202926029 -16.570532
679 9 9.676714 0.1 -13.378294