LAMMPS structure data file for MoS2 with 2 layers

6480 atoms
12 atom types

0.0 95.76714 xlo xhi
0.0 99.52413130533705 ylo yhi
-20 23.378294 zlo zhi

Masses 

1 95.95 #Mo
2 95.95 #Mo
3 95.95 #Mo
4 95.95 #Mo
5 32.06 #S
6 32.06 #S
7 32.06 #S
8 32.06 #S
9 32.06 #S
10 32.06 #S
11 32.06 #S
12 32.06 #S

Atoms

1 5 0.1 0.1 0.0
2 1 1.6961190000000002 1.0215197343086764 -1.596119
3 6 0.1 0.1 -3.192238
4 7 1.6961190000000002 2.864559202926029 0.0
5 2 0.1 3.7860789372347057 -1.596119
6 8 1.6961190000000002 2.864559202926029 -3.192238
7 9 3.292238 0.1 0.0
8 3 4.888357 1.0215197343086764 -1.596119
9 10 3.292238 0.1 -3.192238
10 11 4.888357 2.864559202926029 0.0
11 4 3.292238 3.7860789372347057 -1.596119
12 12 4.888357 2.864559202926029 -3.192238
13 5 1.6961190000000002 1.0215197343086764 -6.689147
14 1 0.1 0.1 -8.285266
15 6 1.6961190000000002 1.0215197343086764 -9.881385
16 7 0.1 3.7860789372347057 -6.689147
17 2 1.6961190000000002 2.864559202926029 -8.285266
18 8 0.1 3.7860789372347057 -9.881385
19 9 4.888357 1.0215197343086764 -6.689147
20 3 3.292238 0.1 -8.285266
21 10 4.888357 1.0215197343086764 -9.881385
22 11 3.292238 3.7860789372347057 -6.689147
23 4 4.888357 2.864559202926029 -8.285266
24 12 3.292238 3.7860789372347057 -9.881385
25 5 0.1 5.629118405852058 0.0
26 1 1.6961190000000002 6.550638140160734 -1.596119
27 6 0.1 5.629118405852058 -3.192238
28 7 1.6961190000000002 8.393677608778086 0.0
29 2 0.1 9.315197343086764 -1.596119
30 8 1.6961190000000002 8.393677608778086 -3.192238
31 9 3.292238 5.629118405852058 0.0
32 3 4.888357 6.550638140160734 -1.596119
33 10 3.292238 5.629118405852058 -3.192238
34 11 4.888357 8.393677608778086 0.0
35 4 3.292238 9.315197343086764 -1.596119
36 12 4.888357 8.393677608778086 -3.192238
37 5 1.6961190000000002 6.550638140160734 -6.689147
38 1 0.1 5.629118405852058 -8.285266
39 6 1.6961190000000002 6.550638140160734 -9.881385
40 7 0.1 9.315197343086764 -6.689147
41 2 1.6961190000000002 8.393677608778086 -8.285266
42 8 0.1 9.315197343086764 -9.881385
43 9 4.888357 6.550638140160734 -6.689147
44 3 3.292238 5.629118405852058 -8.285266
45 10 4.888357 6.550638140160734 -9.881385
46 11 3.292238 9.315197343086764 -6.689147
47 4 4.888357 8.393677608778086 -8.285266
48 12 3.292238 9.315197343086764 -9.881385
49 5 0.1 11.158236811704116 0.0
50 1 1.6961190000000002 12.079756546012792 -1.596119
51 6 0.1 11.158236811704116 -3.192238
52 7 1.6961190000000002 13.922796014630146 0.0
53 2 0.1 14.844315748938822 -1.596119
54 8 1.6961190000000002 13.922796014630146 -3.192238
55 9 3.292238 11.158236811704116 0.0
56 3 4.888357 12.079756546012792 -1.596119
57 10 3.292238 11.158236811704116 -3.192238
58 11 4.888357 13.922796014630146 0.0
59 4 3.292238 14.844315748938822 -1.596119
60 12 4.888357 13.922796014630146 -3.192238
61 5 1.6961190000000002 12.079756546012792 -6.689147
62 1 0.1 11.158236811704116 -8.285266
63 6 1.6961190000000002 12.079756546012792 -9.881385
64 7 0.1 14.844315748938822 -6.689147
65 2 1.6961190000000002 13.922796014630146 -8.285266
66 8 0.1 14.844315748938822 -9.881385
67 9 4.888357 12.079756546012792 -6.689147
68 3 3.292238 11.158236811704116 -8.285266
69 10 4.888357 12.079756546012792 -9.881385
70 11 3.292238 14.844315748938822 -6.689147
71 4 4.888357 13.922796014630146 -8.285266
72 12 3.292238 14.844315748938822 -9.881385
73 5 0.1 16.687355217556174 0.0
74 1 1.6961190000000002 17.608874951864852 -1.596119
75 6 0.1 16.687355217556174 -3.192238
76 7 1.6961190000000002 19.451914420482204 0.0
77 2 0.1 20.37343415479088 -1.596119
78 8 1.6961190000000002 19.451914420482204 -3.192238
79 9 3.292238 16.687355217556174 0.0
80 3 4.888357 17.608874951864852 -1.596119
81 10 3.292238 16.687355217556174 -3.192238
82 11 4.888357 19.451914420482204 0.0
83 4 3.292238 20.37343415479088 -1.596119
84 12 4.888357 19.451914420482204 -3.192238
85 5 1.6961190000000002 17.608874951864852 -6.689147
86 1 0.1 16.687355217556174 -8.285266
87 6 1.6961190000000002 17.608874951864852 -9.881385
88 7 0.1 20.37343415479088 -6.689147
89 2 1.6961190000000002 19.451914420482204 -8.285266
90 8 0.1 20.37343415479088 -9.881385
91 9 4.888357 17.608874951864852 -6.689147
92 3 3.292238 16.687355217556174 -8.285266
93 10 4.888357 17.608874951864852 -9.881385
94 11 3.292238 20.37343415479088 -6.689147
95 4 4.888357 19.451914420482204 -8.285266
96 12 3.292238 20.37343415479088 -9.881385
97 5 0.1 22.216473623408234 0.0
98 1 1.6961190000000002 23.137993357716912 -1.596119
99 6 0.1 22.216473623408234 -3.192238
100 7 1.6961190000000002 24.981032826334264 0.0
101 2 0.1 25.90255256064294 -1.596119
102 8 1.6961190000000002 24.981032826334264 -3.192238
103 9 3.292238 22.216473623408234 0.0
104 3 4.888357 23.137993357716912 -1.596119
105 10 3.292238 22.216473623408234 -3.192238
106 11 4.888357 24.981032826334264 0.0
107 4 3.292238 25.90255256064294 -1.596119
108 12 4.888357 24.981032826334264 -3.192238
109 5 1.6961190000000002 23.137993357716912 -6.689147
110 1 0.1 22.216473623408234 -8.285266
111 6 1.6961190000000002 23.137993357716912 -9.881385
112 7 0.1 25.90255256064294 -6.689147
113 2 1.6961190000000002 24.981032826334264 -8.285266
114 8 0.1 25.90255256064294 -9.881385
115 9 4.888357 23.137993357716912 -6.689147
116 3 3.292238 22.216473623408234 -8.285266
117 10 4.888357 23.137993357716912 -9.881385
118 11 3.292238 25.90255256064294 -6.689147
119 4 4.888357 24.981032826334264 -8.285266
120 12 3.292238 25.90255256064294 -9.881385
121 5 0.1 27.745592029260294 0.0
122 1 1.6961190000000002 28.667111763568972 -1.596119
123 6 0.1 27.745592029260294 -3.192238
124 7 1.6961190000000002 30.510151232186324 0.0
125 2 0.1 31.431670966495 -1.596119
126 8 1.6961190000000002 30.510151232186324 -3.192238
127 9 3.292238 27.745592029260294 0.0
128 3 4.888357 28.667111763568972 -1.596119
129 10 3.292238 27.745592029260294 -3.192238
130 11 4.888357 30.510151232186324 0.0
131 4 3.292238 31.431670966495 -1.596119
132 12 4.888357 30.510151232186324 -3.192238
133 5 1.6961190000000002 28.667111763568972 -6.689147
134 1 0.1 27.745592029260294 -8.285266
135 6 1.6961190000000002 28.667111763568972 -9.881385
136 7 0.1 31.431670966495 -6.689147
137 2 1.6961190000000002 30.510151232186324 -8.285266
138 8 0.1 31.431670966495 -9.881385
139 9 4.888357 28.667111763568972 -6.689147
140 3 3.292238 27.745592029260294 -8.285266
141 10 4.888357 28.667111763568972 -9.881385
142 11 3.292238 31.431670966495 -6.689147
143 4 4.888357 30.510151232186324 -8.285266
144 12 3.292238 31.431670966495 -9.881385
145 5 0.1 33.27471043511235 0.0
146 1 1.6961190000000002 34.19623016942102 -1.596119
147 6 0.1 33.27471043511235 -3.192238
148 7 1.6961190000000002 36.03926963803838 0.0
149 2 0.1 36.96078937234705 -1.596119
150 8 1.6961190000000002 36.03926963803838 -3.192238
151 9 3.292238 33.27471043511235 0.0
152 3 4.888357 34.19623016942102 -1.596119
153 10 3.292238 33.27471043511235 -3.192238
154 11 4.888357 36.03926963803838 0.0
155 4 3.292238 36.96078937234705 -1.596119
156 12 4.888357 36.03926963803838 -3.192238
157 5 1.6961190000000002 34.19623016942102 -6.689147
158 1 0.1 33.27471043511235 -8.285266
159 6 1.6961190000000002 34.19623016942102 -9.881385
160 7 0.1 36.96078937234705 -6.689147
161 2 1.6961190000000002 36.03926963803838 -8.285266
162 8 0.1 36.96078937234705 -9.881385
163 9 4.888357 34.19623016942102 -6.689147
164 3 3.292238 33.27471043511235 -8.285266
165 10 4.888357 34.19623016942102 -9.881385
166 11 3.292238 36.96078937234705 -6.689147
167 4 4.888357 36.03926963803838 -8.285266
168 12 3.292238 36.96078937234705 -9.881385
169 5 0.1 38.80382884096441 0.0
170 1 1.6961190000000002 39.72534857527308 -1.596119
171 6 0.1 38.80382884096441 -3.192238
172 7 1.6961190000000002 41.56838804389044 0.0
173 2 0.1 42.48990777819911 -1.596119
174 8 1.6961190000000002 41.56838804389044 -3.192238
175 9 3.292238 38.80382884096441 0.0
176 3 4.888357 39.72534857527308 -1.596119
177 10 3.292238 38.80382884096441 -3.192238
178 11 4.888357 41.56838804389044 0.0
179 4 3.292238 42.48990777819911 -1.596119
180 12 4.888357 41.56838804389044 -3.192238
181 5 1.6961190000000002 39.72534857527308 -6.689147
182 1 0.1 38.80382884096441 -8.285266
183 6 1.6961190000000002 39.72534857527308 -9.881385
184 7 0.1 42.48990777819911 -6.689147
185 2 1.6961190000000002 41.56838804389044 -8.285266
186 8 0.1 42.48990777819911 -9.881385
187 9 4.888357 39.72534857527308 -6.689147
188 3 3.292238 38.80382884096441 -8.285266
189 10 4.888357 39.72534857527308 -9.881385
190 11 3.292238 42.48990777819911 -6.689147
191 4 4.888357 41.56838804389044 -8.285266
192 12 3.292238 42.48990777819911 -9.881385
193 5 0.1 44.33294724681647 0.0
194 1 1.6961190000000002 45.25446698112514 -1.596119
195 6 0.1 44.33294724681647 -3.192238
196 7 1.6961190000000002 47.0975064497425 0.0
197 2 0.1 48.01902618405117 -1.596119
198 8 1.6961190000000002 47.0975064497425 -3.192238
199 9 3.292238 44.33294724681647 0.0
200 3 4.888357 45.25446698112514 -1.596119
201 10 3.292238 44.33294724681647 -3.192238
202 11 4.888357 47.0975064497425 0.0
203 4 3.292238 48.01902618405117 -1.596119
204 12 4.888357 47.0975064497425 -3.192238
205 5 1.6961190000000002 45.25446698112514 -6.689147
206 1 0.1 44.33294724681647 -8.285266
207 6 1.6961190000000002 45.25446698112514 -9.881385
208 7 0.1 48.01902618405117 -6.689147
209 2 1.6961190000000002 47.0975064497425 -8.285266
210 8 0.1 48.01902618405117 -9.881385
211 9 4.888357 45.25446698112514 -6.689147
212 3 3.292238 44.33294724681647 -8.285266
213 10 4.888357 45.25446698112514 -9.881385
214 11 3.292238 48.01902618405117 -6.689147
215 4 4.888357 47.0975064497425 -8.285266
216 12 3.292238 48.01902618405117 -9.881385
217 5 0.1 49.86206565266853 0.0
218 1 1.6961190000000002 50.7835853869772 -1.596119
219 6 0.1 49.86206565266853 -3.192238
220 7 1.6961190000000002 52.62662485559456 0.0
221 2 0.1 53.54814458990323 -1.596119
222 8 1.6961190000000002 52.62662485559456 -3.192238
223 9 3.292238 49.86206565266853 0.0
224 3 4.888357 50.7835853869772 -1.596119
225 10 3.292238 49.86206565266853 -3.192238
226 11 4.888357 52.62662485559456 0.0
227 4 3.292238 53.54814458990323 -1.596119
228 12 4.888357 52.62662485559456 -3.192238
229 5 1.6961190000000002 50.7835853869772 -6.689147
230 1 0.1 49.86206565266853 -8.285266
231 6 1.6961190000000002 50.7835853869772 -9.881385
232 7 0.1 53.54814458990323 -6.689147
233 2 1.6961190000000002 52.62662485559456 -8.285266
234 8 0.1 53.54814458990323 -9.881385
235 9 4.888357 50.7835853869772 -6.689147
236 3 3.292238 49.86206565266853 -8.285266
237 10 4.888357 50.7835853869772 -9.881385
238 11 3.292238 53.54814458990323 -6.689147
239 4 4.888357 52.62662485559456 -8.285266
240 12 3.292238 53.54814458990323 -9.881385
241 5 0.1 55.39118405852059 0.0
242 1 1.6961190000000002 56.31270379282926 -1.596119
243 6 0.1 55.39118405852059 -3.192238
244 7 1.6961190000000002 58.15574326144662 0.0
245 2 0.1 59.07726299575529 -1.596119
246 8 1.6961190000000002 58.15574326144662 -3.192238
247 9 3.292238 55.39118405852059 0.0
248 3 4.888357 56.31270379282926 -1.596119
249 10 3.292238 55.39118405852059 -3.192238
250 11 4.888357 58.15574326144662 0.0
251 4 3.292238 59.07726299575529 -1.596119
252 12 4.888357 58.15574326144662 -3.192238
253 5 1.6961190000000002 56.31270379282926 -6.689147
254 1 0.1 55.39118405852059 -8.285266
255 6 1.6961190000000002 56.31270379282926 -9.881385
256 7 0.1 59.07726299575529 -6.689147
257 2 1.6961190000000002 58.15574326144662 -8.285266
258 8 0.1 59.07726299575529 -9.881385
259 9 4.888357 56.31270379282926 -6.689147
260 3 3.292238 55.39118405852059 -8.285266
261 10 4.888357 56.31270379282926 -9.881385
262 11 3.292238 59.07726299575529 -6.689147
263 4 4.888357 58.15574326144662 -8.285266
264 12 3.292238 59.07726299575529 -9.881385
265 5 0.1 60.92030246437264 0.0
266 1 1.6961190000000002 61.841822198681314 -1.596119
267 6 0.1 60.92030246437264 -3.192238
268 7 1.6961190000000002 63.68486166729867 0.0
269 2 0.1 64.60638140160734 -1.596119
270 8 1.6961190000000002 63.68486166729867 -3.192238
271 9 3.292238 60.92030246437264 0.0
272 3 4.888357 61.841822198681314 -1.596119
273 10 3.292238 60.92030246437264 -3.192238
274 11 4.888357 63.68486166729867 0.0
275 4 3.292238 64.60638140160734 -1.596119
276 12 4.888357 63.68486166729867 -3.192238
277 5 1.6961190000000002 61.841822198681314 -6.689147
278 1 0.1 60.92030246437264 -8.285266
279 6 1.6961190000000002 61.841822198681314 -9.881385
280 7 0.1 64.60638140160734 -6.689147
281 2 1.6961190000000002 63.68486166729867 -8.285266
282 8 0.1 64.60638140160734 -9.881385
283 9 4.888357 61.841822198681314 -6.689147
284 3 3.292238 60.92030246437264 -8.285266
285 10 4.888357 61.841822198681314 -9.881385
286 11 3.292238 64.60638140160734 -6.689147
287 4 4.888357 63.68486166729867 -8.285266
288 12 3.292238 64.60638140160734 -9.881385
289 5 0.1 66.44942087022469 0.0
290 1 1.6961190000000002 67.37094060453336 -1.596119
291 6 0.1 66.44942087022469 -3.192238
292 7 1.6961190000000002 69.21398007315071 0.0
293 2 0.1 70.1354998074594 -1.596119
294 8 1.6961190000000002 69.21398007315071 -3.192238
295 9 3.292238 66.44942087022469 0.0
296 3 4.888357 67.37094060453336 -1.596119
297 10 3.292238 66.44942087022469 -3.192238
298 11 4.888357 69.21398007315071 0.0
299 4 3.292238 70.1354998074594 -1.596119
300 12 4.888357 69.21398007315071 -3.192238
301 5 1.6961190000000002 67.37094060453336 -6.689147
302 1 0.1 66.44942087022469 -8.285266
303 6 1.6961190000000002 67.37094060453336 -9.881385
304 7 0.1 70.1354998074594 -6.689147
305 2 1.6961190000000002 69.21398007315071 -8.285266
306 8 0.1 70.1354998074594 -9.881385
307 9 4.888357 67.37094060453336 -6.689147
308 3 3.292238 66.44942087022469 -8.285266
309 10 4.888357 67.37094060453336 -9.881385
310 11 3.292238 70.1354998074594 -6.689147
311 4 4.888357 69.21398007315071 -8.285266
312 12 3.292238 70.1354998074594 -9.881385
313 5 0.1 71.97853927607675 0.0
314 1 1.6961190000000002 72.90005901038542 -1.596119
315 6 0.1 71.97853927607675 -3.192238
316 7 1.6961190000000002 74.74309847900277 0.0
317 2 0.1 75.66461821331146 -1.596119
318 8 1.6961190000000002 74.74309847900277 -3.192238
319 9 3.292238 71.97853927607675 0.0
320 3 4.888357 72.90005901038542 -1.596119
321 10 3.292238 71.97853927607675 -3.192238
322 11 4.888357 74.74309847900277 0.0
323 4 3.292238 75.66461821331146 -1.596119
324 12 4.888357 74.74309847900277 -3.192238
325 5 1.6961190000000002 72.90005901038542 -6.689147
326 1 0.1 71.97853927607675 -8.285266
327 6 1.6961190000000002 72.90005901038542 -9.881385
328 7 0.1 75.66461821331146 -6.689147
329 2 1.6961190000000002 74.74309847900277 -8.285266
330 8 0.1 75.66461821331146 -9.881385
331 9 4.888357 72.90005901038542 -6.689147
332 3 3.292238 71.97853927607675 -8.285266
333 10 4.888357 72.90005901038542 -9.881385
334 11 3.292238 75.66461821331146 -6.689147
335 4 4.888357 74.74309847900277 -8.285266
336 12 3.292238 75.66461821331146 -9.881385
337 5 0.1 77.5076576819288 0.0
338 1 1.6961190000000002 78.42917741623748 -1.596119
339 6 0.1 77.5076576819288 -3.192238
340 7 1.6961190000000002 80.27221688485483 0.0
341 2 0.1 81.19373661916352 -1.596119
342 8 1.6961190000000002 80.27221688485483 -3.192238
343 9 3.292238 77.5076576819288 0.0
344 3 4.888357 78.42917741623748 -1.596119
345 10 3.292238 77.5076576819288 -3.192238
346 11 4.888357 80.27221688485483 0.0
347 4 3.292238 81.19373661916352 -1.596119
348 12 4.888357 80.27221688485483 -3.192238
349 5 1.6961190000000002 78.42917741623748 -6.689147
350 1 0.1 77.5076576819288 -8.285266
351 6 1.6961190000000002 78.42917741623748 -9.881385
352 7 0.1 81.19373661916352 -6.689147
353 2 1.6961190000000002 80.27221688485483 -8.285266
354 8 0.1 81.19373661916352 -9.881385
355 9 4.888357 78.42917741623748 -6.689147
356 3 3.292238 77.5076576819288 -8.285266
357 10 4.888357 78.42917741623748 -9.881385
358 11 3.292238 81.19373661916352 -6.689147
359 4 4.888357 80.27221688485483 -8.285266
360 12 3.292238 81.19373661916352 -9.881385
361 5 0.1 83.03677608778086 0.0
362 1 1.6961190000000002 83.95829582208954 -1.596119
363 6 0.1 83.03677608778086 -3.192238
364 7 1.6961190000000002 85.80133529070689 0.0
365 2 0.1 86.72285502501558 -1.596119
366 8 1.6961190000000002 85.80133529070689 -3.192238
367 9 3.292238 83.03677608778086 0.0
368 3 4.888357 83.95829582208954 -1.596119
369 10 3.292238 83.03677608778086 -3.192238
370 11 4.888357 85.80133529070689 0.0
371 4 3.292238 86.72285502501558 -1.596119
372 12 4.888357 85.80133529070689 -3.192238
373 5 1.6961190000000002 83.95829582208954 -6.689147
374 1 0.1 83.03677608778086 -8.285266
375 6 1.6961190000000002 83.95829582208954 -9.881385
376 7 0.1 86.72285502501558 -6.689147
377 2 1.6961190000000002 85.80133529070689 -8.285266
378 8 0.1 86.72285502501558 -9.881385
379 9 4.888357 83.95829582208954 -6.689147
380 3 3.292238 83.03677608778086 -8.285266
381 10 4.888357 83.95829582208954 -9.881385
382 11 3.292238 86.72285502501558 -6.689147
383 4 4.888357 85.80133529070689 -8.285266
384 12 3.292238 86.72285502501558 -9.881385
385 5 0.1 88.56589449363292 0.0
386 1 1.6961190000000002 89.4874142279416 -1.596119
387 6 0.1 88.56589449363292 -3.192238
388 7 1.6961190000000002 91.33045369655895 0.0
389 2 0.1 92.25197343086764 -1.596119
390 8 1.6961190000000002 91.33045369655895 -3.192238
391 9 3.292238 88.56589449363292 0.0
392 3 4.888357 89.4874142279416 -1.596119
393 10 3.292238 88.56589449363292 -3.192238
394 11 4.888357 91.33045369655895 0.0
395 4 3.292238 92.25197343086764 -1.596119
396 12 4.888357 91.33045369655895 -3.192238
397 5 1.6961190000000002 89.4874142279416 -6.689147
398 1 0.1 88.56589449363292 -8.285266
399 6 1.6961190000000002 89.4874142279416 -9.881385
400 7 0.1 92.25197343086764 -6.689147
401 2 1.6961190000000002 91.33045369655895 -8.285266
402 8 0.1 92.25197343086764 -9.881385
403 9 4.888357 89.4874142279416 -6.689147
404 3 3.292238 88.56589449363292 -8.285266
405 10 4.888357 89.4874142279416 -9.881385
406 11 3.292238 92.25197343086764 -6.689147
407 4 4.888357 91.33045369655895 -8.285266
408 12 3.292238 92.25197343086764 -9.881385
409 5 0.1 94.09501289948498 0.0
410 1 1.6961190000000002 95.01653263379366 -1.596119
411 6 0.1 94.09501289948498 -3.192238
412 7 1.6961190000000002 96.85957210241101 0.0
413 2 0.1 97.7810918367197 -1.596119
414 8 1.6961190000000002 96.85957210241101 -3.192238
415 9 3.292238 94.09501289948498 0.0
416 3 4.888357 95.01653263379366 -1.596119
417 10 3.292238 94.09501289948498 -3.192238
418 11 4.888357 96.85957210241101 0.0
419 4 3.292238 97.7810918367197 -1.596119
420 12 4.888357 96.85957210241101 -3.192238
421 5 1.6961190000000002 95.01653263379366 -6.689147
422 1 0.1 94.09501289948498 -8.285266
423 6 1.6961190000000002 95.01653263379366 -9.881385
424 7 0.1 97.7810918367197 -6.689147
425 2 1.6961190000000002 96.85957210241101 -8.285266
426 8 0.1 97.7810918367197 -9.881385
427 9 4.888357 95.01653263379366 -6.689147
428 3 3.292238 94.09501289948498 -8.285266
429 10 4.888357 95.01653263379366 -9.881385
430 11 3.292238 97.7810918367197 -6.689147
431 4 4.888357 96.85957210241101 -8.285266
432 12 3.292238 97.7810918367197 -9.881385
433 5 6.484476 0.1 0.0
434 1 8.080595 1.0215197343086764 -1.596119
435 6 6.484476 0.1 -3.192238
436 7 8.080595 2.864559202926029 0.0
437 2 6.484476 3.7860789372347057 -1.596119
438 8 8.080595 2.864559202926029 -3.192238
439 9 9.676714 0.1 0.0
440 3 11.272833 1.0215197343086764 -1.596119
441 10 9.676714 0.1 -3.192238
442 11 11.272833 2.864559202926029 0.0
443 4 9.676714 3.7860789372347057 -1.596119
444 12 11.272833 2.864559202926029 -3.192238
445 5 8.080595 1.0215197343086764 -6.689147
446 1 6.484476 0.1 -8.285266
447 6 8.080595 1.0215197343086764 -9.881385
448 7 6.484476 3.7860789372347057 -6.689147
449 2 8.080595 2.864559202926029 -8.285266
450 8 6.484476 3.7860789372347057 -9.881385
451 9 11.272833 1.0215197343086764 -6.689147
452 3 9.676714 0.1 -8.285266
453 10 11.272833 1.0215197343086764 -9.881385
454 11 9.676714 3.7860789372347057 -6.689147
455 4 11.272833 2.864559202926029 -8.285266
456 12 9.676714 3.7860789372347057 -9.881385
457 5 6.484476 5.629118405852058 0.0
458 1 8.080595 6.550638140160734 -1.596119
459 6 6.484476 5.629118405852058 -3.192238
460 7 8.080595 8.393677608778086 0.0
461 2 6.484476 9.315197343086764 -1.596119
462 8 8.080595 8.393677608778086 -3.192238
463 9 9.676714 5.629118405852058 0.0
464 3 11.272833 6.550638140160734 -1.596119
465 10 9.676714 5.629118405852058 -3.192238
466 11 11.272833 8.393677608778086 0.0
467 4 9.676714 9.315197343086764 -1.596119
468 12 11.272833 8.393677608778086 -3.192238
469 5 8.080595 6.550638140160734 -6.689147
470 1 6.484476 5.629118405852058 -8.285266
471 6 8.080595 6.550638140160734 -9.881385
472 7 6.484476 9.315197343086764 -6.689147
473 2 8.080595 8.393677608778086 -8.285266
474 8 6.484476 9.315197343086764 -9.881385
475 9 11.272833 6.550638140160734 -6.689147
476 3 9.676714 5.629118405852058 -8.285266
477 10 11.272833 6.550638140160734 -9.881385
478 11 9.676714 9.315197343086764 -6.689147
479 4 11.272833 8.393677608778086 -8.285266
480 12 9.676714 9.315197343086764 -9.881385
481 5 6.484476 11.158236811704116 0.0
482 1 8.080595 12.079756546012792 -1.596119
483 6 6.484476 11.158236811704116 -3.192238
484 7 8.080595 13.922796014630146 0.0
485 2 6.484476 14.844315748938822 -1.596119
486 8 8.080595 13.922796014630146 -3.192238
487 9 9.676714 11.158236811704116 0.0
488 3 11.272833 12.079756546012792 -1.596119
489 10 9.676714 11.158236811704116 -3.192238
490 11 11.272833 13.922796014630146 0.0
491 4 9.676714 14.844315748938822 -1.596119
492 12 11.272833 13.922796014630146 -3.192238
493 5 8.080595 12.079756546012792 -6.689147
494 1 6.484476 11.158236811704116 -8.285266
495 6 8.080595 12.079756546012792 -9.881385
496 7 6.484476 14.844315748938822 -6.689147
497 2 8.080595 13.922796014630146 -8.285266
498 8 6.484476 14.844315748938822 -9.881385
499 9 11.272833 12.079756546012792 -6.689147
500 3 9.676714 11.158236811704116 -8.285266
501 10 11.272833 12.079756546012792 -9.881385
502 11 9.676714 14.844315748938822 -6.689147
503 4 11.272833 13.922796014630146 -8.285266
504 12 9.676714 14.844315748938822 -9.881385
505 5 6.484476 16.687355217556174 0.0
506 1 8.080595 17.608874951864852 -1.596119
507 6 6.484476 16.687355217556174 -3.192238
508 7 8.080595 19.451914420482204 0.0
509 2 6.484476 20.37343415479088 -1.596119
510 8 8.080595 19.451914420482204 -3.192238
511 9 9.676714 16.687355217556174 0.0
512 3 11.272833 17.608874951864852 -1.596119
513 10 9.676714 16.687355217556174 -3.192238
514 11 11.272833 19.451914420482204 0.0
515 4 9.676714 20.37343415479088 -1.596119
516 12 11.272833 19.451914420482204 -3.192238
517 5 8.080595 17.608874951864852 -6.689147
518 1 6.484476 16.687355217556174 -8.285266
519 6 8.080595 17.608874951864852 -9.881385
520 7 6.484476 20.37343415479088 -6.689147
521 2 8.080595 19.451914420482204 -8.285266
522 8 6.484476 20.37343415479088 -9.881385
523 9 11.272833 17.608874951864852 -6.689147
524 3 9.676714 16.687355217556174 -8.285266
525 10 11.272833 17.608874951864852 -9.881385
526 11 9.676714 20.37343415479088 -6.689147
527 4 11.272833 19.451914420482204 -8.285266
528 12 9.676714 20.37343415479088 -9.881385
529 5 6.484476 22.216473623408234 0.0
530 1 8.080595 23.137993357716912 -1.596119
531 6 6.484476 22.216473623408234 -3.192238
532 7 8.080595 24.981032826334264 0.0
533 2 6.484476 25.90255256064294 -1.596119
534 8 8.080595 24.981032826334264 -3.192238
535 9 9.676714 22.216473623408234 0.0
536 3 11.272833 23.137993357716912 -1.596119
537 10 9.676714 22.216473623408234 -3.192238
538 11 11.272833 24.981032826334264 0.0
539 4 9.676714 25.90255256064294 -1.596119
540 12 11.272833 24.981032826334264 -3.192238
541 5 8.080595 23.137993357716912 -6.689147
542 1 6.484476 22.216473623408234 -8.285266
543 6 8.080595 23.137993357716912 -9.881385
544 7 6.484476 25.90255256064294 -6.689147
545 2 8.080595 24.981032826334264 -8.285266
546 8 6.484476 25.90255256064294 -9.881385
547 9 11.272833 23.137993357716912 -6.689147
548 3 9.676714 22.216473623408234 -8.285266
549 10 11.272833 23.137993357716912 -9.881385
550 11 9.676714 25.90255256064294 -6.689147
551 4 11.272833 24.981032826334264 -8.285266
552 12 9.676714 25.90255256064294 -9.881385
553 5 6.484476 27.745592029260294 0.0
554 1 8.080595 28.667111763568972 -1.596119
555 6 6.484476 27.745592029260294 -3.192238
556 7 8.080595 30.510151232186324 0.0
557 2 6.484476 31.431670966495 -1.596119
558 8 8.080595 30.510151232186324 -3.192238
559 9 9.676714 27.745592029260294 0.0
560 3 11.272833 28.667111763568972 -1.596119
561 10 9.676714 27.745592029260294 -3.192238
562 11 11.272833 30.510151232186324 0.0
563 4 9.676714 31.431670966495 -1.596119
564 12 11.272833 30.510151232186324 -3.192238
565 5 8.080595 28.667111763568972 -6.689147
566 1 6.484476 27.745592029260294 -8.285266
567 6 8.080595 28.667111763568972 -9.881385
568 7 6.484476 31.431670966495 -6.689147
569 2 8.080595 30.510151232186324 -8.285266
570 8 6.484476 31.431670966495 -9.881385
571 9 11.272833 28.667111763568972 -6.689147
572 3 9.676714 27.745592029260294 -8.285266
573 10 11.272833 28.667111763568972 -9.881385
574 11 9.676714 31.431670966495 -6.689147
575 4 11.272833 30.510151232186324 -8.285266
576 12 9.676714 31.431670966495 -9.881385
577 5 6.484476 33.27471043511235 0.0
578 1 8.080595 34.19623016942102 -1.596119
579 6 6.484476 33.27471043511235 -3.192238
580 7 8.080595 36.03926963803838 0.0
581 2 6.484476 36.96078937234705 -1.596119
582 8 8.080595 36.03926963803838 -3.192238
583 9 9.676714 33.27471043511235 0.0
584 3 11.272833 34.19623016942102 -1.596119
585 10 9.676714 33.27471043511235 -3.192238
586 11 11.272833 36.03926963803838 0.0
587 4 9.676714 36.96078937234705 -1.596119
588 12 11.272833 36.03926963803838 -3.192238
589 5 8.080595 34.19623016942102 -6.689147
590 1 6.484476 33.27471043511235 -8.285266
591 6 8.080595 34.19623016942102 -9.881385
592 7 6.484476 36.96078937234705 -6.689147
593 2 8.080595 36.03926963803838 -8.285266
594 8 6.484476 36.96078937234705 -9.881385
595 9 11.272833 34.19623016942102 -6.689147
596 3 9.676714 33.27471043511235 -8.285266
597 10 11.272833 34.19623016942102 -9.881385
598 11 9.676714 36.96078937234705 -6.689147
599 4 11.272833 36.03926963803838 -8.285266
600 12 9.676714 36.96078937234705 -9.881385
601 5 6.484476 38.80382884096441 0.0
602 1 8.080595 39.72534857527308 -1.596119
603 6 6.484476 38.80382884096441 -3.192238
604 7 8.080595 41.56838804389044 0.0
605 2 6.484476 42.48990777819911 -1.596119
606 8 8.080595 41.56838804389044 -3.192238
607 9 9.676714 38.80382884096441 0.0
608 3 11.272833 39.72534857527308 -1.596119
609 10 9.676714 38.80382884096441 -3.192238
610 11 11.272833 41.56838804389044 0.0
611 4 9.676714 42.48990777819911 -1.596119
612 12 11.272833 41.56838804389044 -3.192238
613 5 8.080595 39.72534857527308 -6.689147
614 1 6.484476 38.80382884096441 -8.285266
615 6 8.080595 39.72534857527308 -9.881385
616 7 6.484476 42.48990777819911 -6.689147
617 2 8.080595 41.56838804389044 -8.285266
618 8 6.484476 42.48990777819911 -9.881385
619 9 11.272833 39.72534857527308 -6.689147
620 3 9.676714 38.80382884096441 -8.285266
621 10 11.272833 39.72534857527308 -9.881385
622 11 9.676714 42.48990777819911 -6.689147
623 4 11.272833 41.56838804389044 -8.285266
624 12 9.676714 42.48990777819911 -9.881385
625 5 6.484476 44.33294724681647 0.0
626 1 8.080595 45.25446698112514 -1.596119
627 6 6.484476 44.33294724681647 -3.192238
628 7 8.080595 47.0975064497425 0.0
629 2 6.484476 48.01902618405117 -1.596119
630 8 8.080595 47.0975064497425 -3.192238
631 9 9.676714 44.33294724681647 0.0
632 3 11.272833 45.25446698112514 -1.596119
633 10 9.676714 44.33294724681647 -3.192238
634 11 11.272833 47.0975064497425 0.0
635 4 9.676714 48.01902618405117 -1.596119
636 12 11.272833 47.0975064497425 -3.192238
637 5 8.080595 45.25446698112514 -6.689147
638 1 6.484476 44.33294724681647 -8.285266
639 6 8.080595 45.25446698112514 -9.881385
640 7 6.484476 48.01902618405117 -6.689147
641 2 8.080595 47.0975064497425 -8.285266
642 8 6.484476 48.01902618405117 -9.881385
643 9 11.272833 45.25446698112514 -6.689147
644 3 9.676714 44.33294724681647 -8.285266
645 10 11.272833 45.25446698112514 -9.881385
646 11 9.676714 48.01902618405117 -6.689147
647 4 11.272833 47.0975064497425 -8.285266
648 12 9.676714 48.01902618405117 -9.881385
649 5 6.484476 49.86206565266853 0.0
650 1 8.080595 50.7835853869772 -1.596119
651 6 6.484476 49.86206565266853 -3.192238
652 7 8.080595 52.62662485559456 0.0
653 2 6.484476 53.54814458990323 -1.596119
654 8 8.080595 52.62662485559456 -3.192238
655 9 9.676714 49.86206565266853 0.0
656 3 11.272833 50.7835853869772 -1.596119
657 10 9.676714 49.86206565266853 -3.192238
658 11 11.272833 52.62662485559456 0.0
659 4 9.676714 53.54814458990323 -1.596119
660 12 11.272833 52.62662485559456 -3.192238
661 5 8.080595 50.7835853869772 -6.689147
662 1 6.484476 49.86206565266853 -8.285266
663 6 8.080595 50.7835853869772 -9.881385
664 7 6.484476 53.54814458990323 -6.689147
665 2 8.080595 52.62662485559456 -8.285266
666 8 6.484476 53.54814458990323 -9.881385
667 9 11.272833 50.7835853869772 -6.689147
668 3 9.676714 49.86206565266853 -8.285266
669 10 11.272833 50.7835853869772 -9.881385
670 11 9.676714 53.54814458990323 -6.689147
671 4 11.272833 52.62662485559456 -8.285266
672 12 9.676714 53.54814458990323 -9.881385
673 5 6.484476 55.39118405852059 0.0
674 1 8.080595 56.31270379282926 -1.596119
675 6 6.484476 55.39118405852059 -3.192238
676 7 8.080595 58.15574326144662 0.0
677 2 6.484476 59.07726299575529 -1.596119
678 8 8.080595 58.15574326144662 -3.192238
679 9 9.676714 55.39118405852059 0.0
680 3 11.272833 56.31270379282926 -1.596119
681 10 9.676714 55.39118405852059 -3.192238
682 11 11.272833 58.15574326144662 0.0
683 4 9.676714 59.07726299575529 -1.596119
684 12 11.272833 58.15574326144662 -3.192238
685 5 8.080595 56.31270379282926 -6.689147
686 1 6.484476 55.39118405852059 -8.285266
687 6 8.080595 56.31270379282926 -9.881385
688 7 6.484476 59.07726299575529 -6.689147
689 2 8.080595 58.15574326144662 -8.285266
690 8 6.484476 59.07726299575529 -9.881385
691 9 11.272833 56.31270379282926 -6.689147
692 3 9.676714 55.39118405852059 -8.285266