LAMMPS structure data file for MoS2 with 1 layers

3240 atoms
12 atom types

0.0 95.76714 xlo xhi
0.0 99.52413130533705 ylo yhi
-20 16.689147 zlo zhi

Masses 

1 95.95 #Mo
2 95.95 #Mo
3 95.95 #Mo
4 95.95 #Mo
5 32.06 #S
6 32.06 #S
7 32.06 #S
8 32.06 #S
9 32.06 #S
10 32.06 #S
11 32.06 #S
12 32.06 #S

Atoms

1 5 0.1 0.1 0.0
2 1 1.6961190000000002 1.0215197343086764 -1.596119
3 6 0.1 0.1 -3.192238
4 7 1.6961190000000002 2.864559202926029 0.0
5 2 0.1 3.7860789372347057 -1.596119
6 8 1.6961190000000002 2.864559202926029 -3.192238
7 9 3.292238 0.1 0.0
8 3 4.888357 1.0215197343086764 -1.596119
9 10 3.292238 0.1 -3.192238
10 11 4.888357 2.864559202926029 0.0
11 4 3.292238 3.7860789372347057 -1.596119
12 12 4.888357 2.864559202926029 -3.192238
13 5 0.1 5.629118405852058 0.0
14 1 1.6961190000000002 6.550638140160734 -1.596119
15 6 0.1 5.629118405852058 -3.192238
16 7 1.6961190000000002 8.393677608778086 0.0
17 2 0.1 9.315197343086764 -1.596119
18 8 1.6961190000000002 8.393677608778086 -3.192238
19 9 3.292238 5.629118405852058 0.0
20 3 4.888357 6.550638140160734 -1.596119
21 10 3.292238 5.629118405852058 -3.192238
22 11 4.888357 8.393677608778086 0.0
23 4 3.292238 9.315197343086764 -1.596119
24 12 4.888357 8.393677608778086 -3.192238
25 5 0.1 11.158236811704116 0.0
26 1 1.6961190000000002 12.079756546012792 -1.596119
27 6 0.1 11.158236811704116 -3.192238
28 7 1.6961190000000002 13.922796014630146 0.0
29 2 0.1 14.844315748938822 -1.596119
30 8 1.6961190000000002 13.922796014630146 -3.192238
31 9 3.292238 11.158236811704116 0.0
32 3 4.888357 12.079756546012792 -1.596119
33 10 3.292238 11.158236811704116 -3.192238
34 11 4.888357 13.922796014630146 0.0
35 4 3.292238 14.844315748938822 -1.596119
36 12 4.888357 13.922796014630146 -3.192238
37 5 0.1 16.687355217556174 0.0
38 1 1.6961190000000002 17.608874951864852 -1.596119
39 6 0.1 16.687355217556174 -3.192238
40 7 1.6961190000000002 19.451914420482204 0.0
41 2 0.1 20.37343415479088 -1.596119
42 8 1.6961190000000002 19.451914420482204 -3.192238
43 9 3.292238 16.687355217556174 0.0
44 3 4.888357 17.608874951864852 -1.596119
45 10 3.292238 16.687355217556174 -3.192238
46 11 4.888357 19.451914420482204 0.0
47 4 3.292238 20.37343415479088 -1.596119
48 12 4.888357 19.451914420482204 -3.192238
49 5 0.1 22.216473623408234 0.0
50 1 1.6961190000000002 23.137993357716912 -1.596119
51 6 0.1 22.216473623408234 -3.192238
52 7 1.6961190000000002 24.981032826334264 0.0
53 2 0.1 25.90255256064294 -1.596119
54 8 1.6961190000000002 24.981032826334264 -3.192238
55 9 3.292238 22.216473623408234 0.0
56 3 4.888357 23.137993357716912 -1.596119
57 10 3.292238 22.216473623408234 -3.192238
58 11 4.888357 24.981032826334264 0.0
59 4 3.292238 25.90255256064294 -1.596119
60 12 4.888357 24.981032826334264 -3.192238
61 5 0.1 27.745592029260294 0.0
62 1 1.6961190000000002 28.667111763568972 -1.596119
63 6 0.1 27.745592029260294 -3.192238
64 7 1.6961190000000002 30.510151232186324 0.0
65 2 0.1 31.431670966495 -1.596119
66 8 1.6961190000000002 30.510151232186324 -3.192238
67 9 3.292238 27.745592029260294 0.0
68 3 4.888357 28.667111763568972 -1.596119
69 10 3.292238 27.745592029260294 -3.192238
70 11 4.888357 30.510151232186324 0.0
71 4 3.292238 31.431670966495 -1.596119
72 12 4.888357 30.510151232186324 -3.192238
73 5 0.1 33.27471043511235 0.0
74 1 1.6961190000000002 34.19623016942102 -1.596119
75 6 0.1 33.27471043511235 -3.192238
76 7 1.6961190000000002 36.03926963803838 0.0
77 2 0.1 36.96078937234705 -1.596119
78 8 1.6961190000000002 36.03926963803838 -3.192238
79 9 3.292238 33.27471043511235 0.0
80 3 4.888357 34.19623016942102 -1.596119
81 10 3.292238 33.27471043511235 -3.192238
82 11 4.888357 36.03926963803838 0.0
83 4 3.292238 36.96078937234705 -1.596119
84 12 4.888357 36.03926963803838 -3.192238
85 5 0.1 38.80382884096441 0.0
86 1 1.6961190000000002 39.72534857527308 -1.596119
87 6 0.1 38.80382884096441 -3.192238
88 7 1.6961190000000002 41.56838804389044 0.0
89 2 0.1 42.48990777819911 -1.596119
90 8 1.6961190000000002 41.56838804389044 -3.192238
91 9 3.292238 38.80382884096441 0.0
92 3 4.888357 39.72534857527308 -1.596119
93 10 3.292238 38.80382884096441 -3.192238
94 11 4.888357 41.56838804389044 0.0
95 4 3.292238 42.48990777819911 -1.596119
96 12 4.888357 41.56838804389044 -3.192238
97 5 0.1 44.33294724681647 0.0
98 1 1.6961190000000002 45.25446698112514 -1.596119
99 6 0.1 44.33294724681647 -3.192238
100 7 1.6961190000000002 47.0975064497425 0.0
101 2 0.1 48.01902618405117 -1.596119
102 8 1.6961190000000002 47.0975064497425 -3.192238
103 9 3.292238 44.33294724681647 0.0
104 3 4.888357 45.25446698112514 -1.596119
105 10 3.292238 44.33294724681647 -3.192238
106 11 4.888357 47.0975064497425 0.0
107 4 3.292238 48.01902618405117 -1.596119
108 12 4.888357 47.0975064497425 -3.192238
109 5 0.1 49.86206565266853 0.0
110 1 1.6961190000000002 50.7835853869772 -1.596119
111 6 0.1 49.86206565266853 -3.192238
112 7 1.6961190000000002 52.62662485559456 0.0
113 2 0.1 53.54814458990323 -1.596119
114 8 1.6961190000000002 52.62662485559456 -3.192238
115 9 3.292238 49.86206565266853 0.0
116 3 4.888357 50.7835853869772 -1.596119
117 10 3.292238 49.86206565266853 -3.192238
118 11 4.888357 52.62662485559456 0.0
119 4 3.292238 53.54814458990323 -1.596119
120 12 4.888357 52.62662485559456 -3.192238
121 5 0.1 55.39118405852059 0.0
122 1 1.6961190000000002 56.31270379282926 -1.596119
123 6 0.1 55.39118405852059 -3.192238
124 7 1.6961190000000002 58.15574326144662 0.0
125 2 0.1 59.07726299575529 -1.596119
126 8 1.6961190000000002 58.15574326144662 -3.192238
127 9 3.292238 55.39118405852059 0.0
128 3 4.888357 56.31270379282926 -1.596119
129 10 3.292238 55.39118405852059 -3.192238
130 11 4.888357 58.15574326144662 0.0
131 4 3.292238 59.07726299575529 -1.596119
132 12 4.888357 58.15574326144662 -3.192238
133 5 0.1 60.92030246437264 0.0
134 1 1.6961190000000002 61.841822198681314 -1.596119
135 6 0.1 60.92030246437264 -3.192238
136 7 1.6961190000000002 63.68486166729867 0.0
137 2 0.1 64.60638140160734 -1.596119
138 8 1.6961190000000002 63.68486166729867 -3.192238
139 9 3.292238 60.92030246437264 0.0
140 3 4.888357 61.841822198681314 -1.596119
141 10 3.292238 60.92030246437264 -3.192238
142 11 4.888357 63.68486166729867 0.0
143 4 3.292238 64.60638140160734 -1.596119
144 12 4.888357 63.68486166729867 -3.192238
145 5 0.1 66.44942087022469 0.0
146 1 1.6961190000000002 67.37094060453336 -1.596119
147 6 0.1 66.44942087022469 -3.192238
148 7 1.6961190000000002 69.21398007315071 0.0
149 2 0.1 70.1354998074594 -1.596119
150 8 1.6961190000000002 69.21398007315071 -3.192238
151 9 3.292238 66.44942087022469 0.0
152 3 4.888357 67.37094060453336 -1.596119
153 10 3.292238 66.44942087022469 -3.192238
154 11 4.888357 69.21398007315071 0.0
155 4 3.292238 70.1354998074594 -1.596119
156 12 4.888357 69.21398007315071 -3.192238
157 5 0.1 71.97853927607675 0.0
158 1 1.6961190000000002 72.90005901038542 -1.596119
159 6 0.1 71.97853927607675 -3.192238
160 7 1.6961190000000002 74.74309847900277 0.0
161 2 0.1 75.66461821331146 -1.596119
162 8 1.6961190000000002 74.74309847900277 -3.192238
163 9 3.292238 71.97853927607675 0.0
164 3 4.888357 72.90005901038542 -1.596119
165 10 3.292238 71.97853927607675 -3.192238
166 11 4.888357 74.74309847900277 0.0
167 4 3.292238 75.66461821331146 -1.596119
168 12 4.888357 74.74309847900277 -3.192238
169 5 0.1 77.5076576819288 0.0
170 1 1.6961190000000002 78.42917741623748 -1.596119
171 6 0.1 77.5076576819288 -3.192238
172 7 1.6961190000000002 80.27221688485483 0.0
173 2 0.1 81.19373661916352 -1.596119
174 8 1.6961190000000002 80.27221688485483 -3.192238
175 9 3.292238 77.5076576819288 0.0
176 3 4.888357 78.42917741623748 -1.596119
177 10 3.292238 77.5076576819288 -3.192238
178 11 4.888357 80.27221688485483 0.0
179 4 3.292238 81.19373661916352 -1.596119
180 12 4.888357 80.27221688485483 -3.192238
181 5 0.1 83.03677608778086 0.0
182 1 1.6961190000000002 83.95829582208954 -1.596119
183 6 0.1 83.03677608778086 -3.192238
184 7 1.6961190000000002 85.80133529070689 0.0
185 2 0.1 86.72285502501558 -1.596119
186 8 1.6961190000000002 85.80133529070689 -3.192238
187 9 3.292238 83.03677608778086 0.0
188 3 4.888357 83.95829582208954 -1.596119
189 10 3.292238 83.03677608778086 -3.192238
190 11 4.888357 85.80133529070689 0.0
191 4 3.292238 86.72285502501558 -1.596119
192 12 4.888357 85.80133529070689 -3.192238
193 5 0.1 88.56589449363292 0.0
194 1 1.6961190000000002 89.4874142279416 -1.596119
195 6 0.1 88.56589449363292 -3.192238
196 7 1.6961190000000002 91.33045369655895 0.0
197 2 0.1 92.25197343086764 -1.596119
198 8 1.6961190000000002 91.33045369655895 -3.192238
199 9 3.292238 88.56589449363292 0.0
200 3 4.888357 89.4874142279416 -1.596119
201 10 3.292238 88.56589449363292 -3.192238
202 11 4.888357 91.33045369655895 0.0
203 4 3.292238 92.25197343086764 -1.596119
204 12 4.888357 91.33045369655895 -3.192238
205 5 0.1 94.09501289948498 0.0
206 1 1.6961190000000002 95.01653263379366 -1.596119
207 6 0.1 94.09501289948498 -3.192238
208 7 1.6961190000000002 96.85957210241101 0.0
209 2 0.1 97.7810918367197 -1.596119
210 8 1.6961190000000002 96.85957210241101 -3.192238
211 9 3.292238 94.09501289948498 0.0
212 3 4.888357 95.01653263379366 -1.596119
213 10 3.292238 94.09501289948498 -3.192238
214 11 4.888357 96.85957210241101 0.0
215 4 3.292238 97.7810918367197 -1.596119
216 12 4.888357 96.85957210241101 -3.192238
217 5 6.484476 0.1 0.0
218 1 8.080595 1.0215197343086764 -1.596119
219 6 6.484476 0.1 -3.192238
220 7 8.080595 2.864559202926029 0.0
221 2 6.484476 3.7860789372347057 -1.596119
222 8 8.080595 2.864559202926029 -3.192238
223 9 9.676714 0.1 0.0
224 3 11.272833 1.0215197343086764 -1.596119
225 10 9.676714 0.1 -3.192238
226 11 11.272833 2.864559202926029 0.0
227 4 9.676714 3.7860789372347057 -1.596119
228 12 11.272833 2.864559202926029 -3.192238
229 5 6.484476 5.629118405852058 0.0
230 1 8.080595 6.550638140160734 -1.596119
231 6 6.484476 5.629118405852058 -3.192238
232 7 8.080595 8.393677608778086 0.0
233 2 6.484476 9.315197343086764 -1.596119
234 8 8.080595 8.393677608778086 -3.192238
235 9 9.676714 5.629118405852058 0.0
236 3 11.272833 6.550638140160734 -1.596119
237 10 9.676714 5.629118405852058 -3.192238
238 11 11.272833 8.393677608778086 0.0
239 4 9.676714 9.315197343086764 -1.596119
240 12 11.272833 8.393677608778086 -3.192238
241 5 6.484476 11.158236811704116 0.0
242 1 8.080595 12.079756546012792 -1.596119
243 6 6.484476 11.158236811704116 -3.192238
244 7 8.080595 13.922796014630146 0.0
245 2 6.484476 14.844315748938822 -1.596119
246 8 8.080595 13.922796014630146 -3.192238
247 9 9.676714 11.158236811704116 0.0
248 3 11.272833 12.079756546012792 -1.596119
249 10 9.676714 11.158236811704116 -3.192238
250 11 11.272833 13.922796014630146 0.0
251 4 9.676714 14.844315748938822 -1.596119
252 12 11.272833 13.922796014630146 -3.192238
253 5 6.484476 16.687355217556174 0.0
254 1 8.080595 17.608874951864852 -1.596119
255 6 6.484476 16.687355217556174 -3.192238
256 7 8.080595 19.451914420482204 0.0
257 2 6.484476 20.37343415479088 -1.596119
258 8 8.080595 19.451914420482204 -3.192238
259 9 9.676714 16.687355217556174 0.0
260 3 11.272833 17.608874951864852 -1.596119
261 10 9.676714 16.687355217556174 -3.192238
262 11 11.272833 19.451914420482204 0.0
263 4 9.676714 20.37343415479088 -1.596119
264 12 11.272833 19.451914420482204 -3.192238
265 5 6.484476 22.216473623408234 0.0
266 1 8.080595 23.137993357716912 -1.596119
267 6 6.484476 22.216473623408234 -3.192238
268 7 8.080595 24.981032826334264 0.0
269 2 6.484476 25.90255256064294 -1.596119
270 8 8.080595 24.981032826334264 -3.192238
271 9 9.676714 22.216473623408234 0.0
272 3 11.272833 23.137993357716912 -1.596119
273 10 9.676714 22.216473623408234 -3.192238
274 11 11.272833 24.981032826334264 0.0
275 4 9.676714 25.90255256064294 -1.596119
276 12 11.272833 24.981032826334264 -3.192238
277 5 6.484476 27.745592029260294 0.0
278 1 8.080595 28.667111763568972 -1.596119
279 6 6.484476 27.745592029260294 -3.192238
280 7 8.080595 30.510151232186324 0.0
281 2 6.484476 31.431670966495 -1.596119
282 8 8.080595 30.510151232186324 -3.192238
283 9 9.676714 27.745592029260294 0.0
284 3 11.272833 28.667111763568972 -1.596119
285 10 9.676714 27.745592029260294 -3.192238
286 11 11.272833 30.510151232186324 0.0
287 4 9.676714 31.431670966495 -1.596119
288 12 11.272833 30.510151232186324 -3.192238
289 5 6.484476 33.27471043511235 0.0
290 1 8.080595 34.19623016942102 -1.596119
291 6 6.484476 33.27471043511235 -3.192238
292 7 8.080595 36.03926963803838 0.0
293 2 6.484476 36.96078937234705 -1.596119
294 8 8.080595 36.03926963803838 -3.192238
295 9 9.676714 33.27471043511235 0.0
296 3 11.272833 34.19623016942102 -1.596119
297 10 9.676714 33.27471043511235 -3.192238
298 11 11.272833 36.03926963803838 0.0
299 4 9.676714 36.96078937234705 -1.596119
300 12 11.272833 36.03926963803838 -3.192238
301 5 6.484476 38.80382884096441 0.0
302 1 8.080595 39.72534857527308 -1.596119
303 6 6.484476 38.80382884096441 -3.192238
304 7 8.080595 41.56838804389044 0.0
305 2 6.484476 42.48990777819911 -1.596119
306 8 8.080595 41.56838804389044 -3.192238
307 9 9.676714 38.80382884096441 0.0
308 3 11.272833 39.72534857527308 -1.596119
309 10 9.676714 38.80382884096441 -3.192238
310 11 11.272833 41.56838804389044 0.0
311 4 9.676714 42.48990777819911 -1.596119
312 12 11.272833 41.56838804389044 -3.192238
313 5 6.484476 44.33294724681647 0.0
314 1 8.080595 45.25446698112514 -1.596119
315 6 6.484476 44.33294724681647 -3.192238
316 7 8.080595 47.0975064497425 0.0
317 2 6.484476 48.01902618405117 -1.596119
318 8 8.080595 47.0975064497425 -3.192238
319 9 9.676714 44.33294724681647 0.0
320 3 11.272833 45.25446698112514 -1.596119
321 10 9.676714 44.33294724681647 -3.192238
322 11 11.272833 47.0975064497425 0.0
323 4 9.676714 48.01902618405117 -1.596119
324 12 11.272833 47.0975064497425 -3.192238
325 5 6.484476 49.86206565266853 0.0
326 1 8.080595 50.7835853869772 -1.596119
327 6 6.484476 49.86206565266853 -3.192238
328 7 8.080595 52.62662485559456 0.0
329 2 6.484476 53.54814458990323 -1.596119
330 8 8.080595 52.62662485559456 -3.192238
331 9 9.676714 49.86206565266853 0.0
332 3 11.272833 50.7835853869772 -1.596119
333 10 9.676714 49.86206565266853 -3.192238
334 11 11.272833 52.62662485559456 0.0
335 4 9.676714 53.54814458990323 -1.596119
336 12 11.272833 52.62662485559456 -3.192238
337 5 6.484476 55.39118405852059 0.0
338 1 8.080595 56.31270379282926 -1.596119
339 6 6.484476 55.39118405852059 -3.192238
340 7 8.080595 58.15574326144662 0.0
341 2 6.484476 59.07726299575529 -1.596119
342 8 8.080595 58.15574326144662 -3.192238
343 9 9.676714 55.39118405852059 0.0
344 3 11.272833 56.31270379282926 -1.596119
345 10 9.676714 55.39118405852059 -3.192238
346 11 11.272833 58.15574326144662 0.0
347 4 9.676714 59.07726299575529 -1.596119
348 12 11.272833 58.15574326144662 -3.192238
349 5 6.484476 60.92030246437264 0.0
350 1 8.080595 61.841822198681314 -1.596119
351 6 6.484476 60.92030246437264 -3.192238
352 7 8.080595 63.68486166729867 0.0
353 2 6.484476 64.60638140160734 -1.596119
354 8 8.080595 63.68486166729867 -3.192238
355 9 9.676714 60.92030246437264 0.0
356 3 11.272833 61.841822198681314 -1.596119
357 10 9.676714 60.92030246437264 -3.192238
358 11 11.272833 63.68486166729867 0.0
359 4 9.676714 64.60638140160734 -1.596119
360 12 11.272833 63.68486166729867 -3.192238
361 5 6.484476 66.44942087022469 0.0
362 1 8.080595 67.37094060453336 -1.596119
363 6 6.484476 66.44942087022469 -3.192238
364 7 8.080595 69.21398007315071 0.0
365 2 6.484476 70.1354998074594 -1.596119
366 8 8.080595 69.21398007315071 -3.192238
367 9 9.676714 66.44942087022469 0.0
368 3 11.272833 67.37094060453336 -1.596119
369 10 9.676714 66.44942087022469 -3.192238
370 11 11.272833 69.21398007315071 0.0
371 4 9.676714 70.1354998074594 -1.596119
372 12 11.272833 69.21398007315071 -3.192238
373 5 6.484476 71.97853927607675 0.0
374 1 8.080595 72.90005901038542 -1.596119
375 6 6.484476 71.97853927607675 -3.192238
376 7 8.080595 74.74309847900277 0.0
377 2 6.484476 75.66461821331146 -1.596119
378 8 8.080595 74.74309847900277 -3.192238
379 9 9.676714 71.97853927607675 0.0
380 3 11.272833 72.90005901038542 -1.596119
381 10 9.676714 71.97853927607675 -3.192238
382 11 11.272833 74.74309847900277 0.0
383 4 9.676714 75.66461821331146 -1.596119
384 12 11.272833 74.74309847900277 -3.192238
385 5 6.484476 77.5076576819288 0.0
386 1 8.080595 78.42917741623748 -1.596119
387 6 6.484476 77.5076576819288 -3.192238
388 7 8.080595 80.27221688485483 0.0
389 2 6.484476 81.19373661916352 -1.596119
390 8 8.080595 80.27221688485483 -3.192238
391 9 9.676714 77.5076576819288 0.0
392 3 11.272833 78.42917741623748 -1.596119
393 10 9.676714 77.5076576819288 -3.192238
394 11 11.272833 80.27221688485483 0.0
395 4 9.676714 81.19373661916352 -1.596119
396 12 11.272833 80.27221688485483 -3.192238
397 5 6.484476 83.03677608778086 0.0
398 1 8.080595 83.95829582208954 -1.596119
399 6 6.484476 83.03677608778086 -3.192238
400 7 8.080595 85.80133529070689 0.0
401 2 6.484476 86.72285502501558 -1.596119
402 8 8.080595 85.80133529070689 -3.192238
403 9 9.676714 83.03677608778086 0.0
404 3 11.272833 83.95829582208954 -1.596119
405 10 9.676714 83.03677608778086 -3.192238
406 11 11.272833 85.80133529070689 0.0
407 4 9.676714 86.72285502501558 -1.596119
408 12 11.272833 85.80133529070689 -3.192238
409 5 6.484476 88.56589449363292 0.0
410 1 8.080595 89.4874142279416 -1.596119
411 6 6.484476 88.56589449363292 -3.192238
412 7 8.080595 91.33045369655895 0.0
413 2 6.484476 92.25197343086764 -1.596119
414 8 8.080595 91.33045369655895 -3.192238
415 9 9.676714 88.56589449363292 0.0
416 3 11.272833 89.4874142279416 -1.596119
417 10 9.676714 88.56589449363292 -3.192238
418 11 11.272833 91.33045369655895 0.0
419 4 9.676714 92.25197343086764 -1.596119
420 12 11.272833 91.33045369655895 -3.192238
421 5 6.484476 94.09501289948498 0.0
422 1 8.080595 95.01653263379366 -1.596119
423 6 6.484476 94.09501289948498 -3.192238
424 7 8.080595 96.85957210241101 0.0
425 2 6.484476 97.7810918367197 -1.596119
426 8 8.080595 96.85957210241101 -3.192238
427 9 9.676714 94.09501289948498 0.0
428 3 11.272833 95.01653263379366 -1.596119
429 10 9.676714 94.09501289948498 -3.192238
430 11 11.272833 96.85957210241101 0.0
431 4 9.676714 97.7810918367197 -1.596119
432 12 11.272833 96.85957210241101 -3.192238
433 5 12.868952 0.1 0.0
434 1 14.465071 1.0215197343086764 -1.596119
435 6 12.868952 0.1 -3.192238
436 7 14.465071 2.864559202926029 0.0
437 2 12.868952 3.7860789372347057 -1.596119
438 8 14.465071 2.864559202926029 -3.192238
439 9 16.06119 0.1 0.0
440 3 17.657309 1.0215197343086764 -1.596119
441 10 16.06119 0.1 -3.192238
442 11 17.657309 2.864559202926029 0.0
443 4 16.06119 3.7860789372347057 -1.596119
444 12 17.657309 2.864559202926029 -3.192238
445 5 12.868952 5.629118405852058 0.0
446 1 14.465071 6.550638140160734 -1.596119
447 6 12.868952 5.629118405852058 -3.192238
448 7 14.465071 8.393677608778086 0.0
449 2 12.868952 9.315197343086764 -1.596119
450 8 14.465071 8.393677608778086 -3.192238
451 9 16.06119 5.629118405852058 0.0
452 3 17.657309 6.550638140160734 -1.596119
453 10 16.06119 5.629118405852058 -3.192238
454 11 17.657309 8.393677608778086 0.0
455 4 16.06119 9.315197343086764 -1.596119
456 12 17.657309 8.393677608778086 -3.192238
457 5 12.868952 11.158236811704116 0.0
458 1 14.465071 12.079756546012792 -1.596119
459 6 12.868952 11.158236811704116 -3.192238
460 7 14.465071 13.922796014630146 0.0
461 2 12.868952 14.844315748938822 -1.596119
462 8 14.465071 13.922796014630146 -3.192238
463 9 16.06119 11.158236811704116 0.0
464 3 17.657309 12.079756546012792 -1.596119
465 10 16.06119 11.158236811704116 -3.192238
466 11 17.657309 13.922796014630146 0.0
467 4 16.06119 14.844315748938822 -1.596119
468 12 17.657309 13.922796014630146 -3.192238
469 5 12.868952 16.687355217556174 0.0
470 1 14.465071 17.608874951864852 -1.596119
471 6 12.868952 16.687355217556174 -3.192238
472 7 14.465071 19.451914420482204 0.0
473 2 12.868952 20.37343415479088 -1.596119
474 8 14.465071 19.451914420482204 -3.192238
475 9 16.06119 16.687355217556174 0.0
476 3 17.657309 17.608874951864852 -1.596119
477 10 16.06119 16.687355217556174 -3.192238
478 11 17.657309 19.451914420482204 0.0
479 4 16.06119 20.37343415479088 -1.596119
480 12 17.657309 19.451914420482204 -3.192238
481 5 12.868952 22.216473623408234 0.0
482 1 14.465071 23.137993357716912 -1.596119
483 6 12.868952 22.216473623408234 -3.192238
484 7 14.465071 24.981032826334264 0.0
485 2 12.868952 25.90255256064294 -1.596119
486 8 14.465071 24.981032826334264 -3.192238
487 9 16.06119 22.216473623408234 0.0
488 3 17.657309 23.137993357716912 -1.596119
489 10 16.06119 22.216473623408234 -3.192238
490 11 17.657309 24.981032826334264 0.0
491 4 16.06119 25.90255256064294 -1.596119
492 12 17.657309 24.981032826334264 -3.192238
493 5 12.868952 27.745592029260294 0.0
494 1 14.465071 28.667111763568972 -1.596119
495 6 12.868952 27.745592029260294 -3.192238
496 7 14.465071 30.510151232186324 0.0
497 2 12.868952 31.431670966495 -1.596119
498 8 14.465071 30.510151232186324 -3.192238
499 9 16.06119 27.745592029260294 0.0
500 3 17.657309 28.667111763568972 -1.596119
501 10 16.06119 27.745592029260294 -3.192238
502 11 17.657309 30.510151232186324 0.0
503 4 16.06119 31.431670966495 -1.596119
504 12 17.657309 30.510151232186324 -3.192238
505 5 12.868952 33.27471043511235 0.0
506 1 14.465071 34.19623016942102 -1.596119
507 6 12.868952 33.27471043511235 -3.192238
508 7 14.465071 36.03926963803838 0.0
509 2 12.868952 36.96078937234705 -1.596119
510 8 14.465071 36.03926963803838 -3.192238
511 9 16.06119 33.27471043511235 0.0
512 3 17.657309 34.19623016942102 -1.596119
513 10 16.06119 33.27471043511235 -3.192238
514 11 17.657309 36.03926963803838 0.0
515 4 16.06119 36.96078937234705 -1.596119
516 12 17.657309 36.03926963803838 -3.192238
517 5 12.868952 38.80382884096441 0.0
518 1 14.465071 39.72534857527308 -1.596119
519 6 12.868952 38.80382884096441 -3.192238
520 7 14.465071 41.56838804389044 0.0
521 2 12.868952 42.48990777819911 -1.596119
522 8 14.465071 41.56838804389044 -3.192238
523 9 16.06119 38.80382884096441 0.0
524 3 17.657309 39.72534857527308 -1.596119
525 10 16.06119 38.80382884096441 -3.192238
526 11 17.657309 41.56838804389044 0.0
527 4 16.06119 42.48990777819911 -1.596119
528 12 17.657309 41.56838804389044 -3.192238
529 5 12.868952 44.33294724681647 0.0
530 1 14.465071 45.25446698112514 -1.596119
531 6 12.868952 44.33294724681647 -3.192238
532 7 14.465071 47.0975064497425 0.0
533 2 12.868952 48.01902618405117 -1.596119
534 8 14.465071 47.0975064497425 -3.192238
535 9 16.06119 44.33294724681647 0.0
536 3 17.657309 45.25446698112514 -1.596119
537 10 16.06119 44.33294724681647 -3.192238
538 11 17.657309 47.0975064497425 0.0
539 4 16.06119 48.01902618405117 -1.596119
540 12 17.657309 47.0975064497425 -3.192238
541 5 12.868952 49.86206565266853 0.0
542 1 14.465071 50.7835853869772 -1.596119
543 6 12.868952 49.86206565266853 -3.192238
544 7 14.465071 52.62662485559456 0.0
545 2 12.868952 53.54814458990323 -1.596119
546 8 14.465071 52.62662485559456 -3.192238
547 9 16.06119 49.86206565266853 0.0
548 3 17.657309 50.7835853869772 -1.596119
549 10 16.06119 49.86206565266853 -3.192238
550 11 17.657309 52.62662485559456 0.0
551 4 16.06119 53.54814458990323 -1.596119
552 12 17.657309 52.62662485559456 -3.192238
553 5 12.868952 55.39118405852059 0.0
554 1 14.465071 56.31270379282926 -1.596119
555 6 12.868952 55.39118405852059 -3.192238
556 7 14.465071 58.15574326144662 0.0
557 2 12.868952 59.07726299575529 -1.596119
558 8 14.465071 58.15574326144662 -3.192238
559 9 16.06119 55.39118405852059 0.0
560 3 17.657309 56.31270379282926 -1.596119
561 10 16.06119 55.39118405852059 -3.192238
562 11 17.657309 58.15574326144662 0.0
563 4 16.06119 59.07726299575529 -1.596119
564 12 17.657309 58.15574326144662 -3.192238
565 5 12.868952 60.92030246437264 0.0
566 1 14.465071 61.841822198681314 -1.596119
567 6 12.868952 60.92030246437264 -3.192238
568 7 14.465071 63.68486166729867 0.0
569 2 12.868952 64.60638140160734 -1.596119
570 8 14.465071 63.68486166729867 -3.192238
571 9 16.06119 60.92030246437264 0.0
572 3 17.657309 61.841822198681314 -1.596119
573 10 16.06119 60.92030246437264 -3.192238
574 11 17.657309 63.68486166729867 0.0
575 4 16.06119 64.60638140160734 -1.596119
576 12 17.657309 63.68486166729867 -3.192238
577 5 12.868952 66.44942087022469 0.0
578 1 14.465071 67.37094060453336 -1.596119
579 6 12.868952 66.44942087022469 -3.192238
580 7 14.465071 69.21398007315071 0.0
581 2 12.868952 70.1354998074594 -1.596119
582 8 14.465071 69.21398007315071 -3.192238
583 9 16.06119 66.44942087022469 0.0
584 3 17.657309 67.37094060453336 -1.596119
585 10 16.06119 66.44942087022469 -3.192238
586 11 17.657309 69.21398007315071 0.0
587 4 16.06119 70.1354998074594 -1.596119
588 12 17.657309 69.21398007315071 -3.192238
589 5 12.868952 71.97853927607675 0.0
590 1 14.465071 72.90005901038542 -1.596119
591 6 12.868952 71.97853927607675 -3.192238
592 7 14.465071 74.74309847900277 0.0
593 2 12.868952 75.66461821331146 -1.596119
594 8 14.465071 74.74309847900277 -3.192238
595 9 16.06119 71.97853927607675 0.0
596 3 17.657309 72.90005901038542 -1.596119
597 10 16.06119 71.97853927607675 -3.192238
598 11 17.657309 74.74309847900277 0.0
599 4 16.06119 75.66461821331146 -1.596119
600 12 17.657309 74.74309847900277 -3.192238
601 5 12.868952 77.5076576819288 0.0
602 1 14.465071 78.42917741623748 -1.596119
603 6 12.868952 77.5076576819288 -3.192238
604 7 14.465071 80.27221688485483 0.0
605 2 12.868952 81.19373661916352 -1.596119
606 8 14.465071 80.27221688485483 -3.192238
607 9 16.06119 77.5076576819288 0.0
608 3 17.657309 78.42917741623748 -1.596119
609 10 16.06119 77.5076576819288 -3.192238
610 11 17.657309 80.27221688485483 0.0
611 4 16.06119 81.19373661916352 -1.596119
612 12 17.657309 80.27221688485483 -3.192238
613 5 12.868952 83.03677608778086 0.0
614 1 14.465071 83.95829582208954 -1.596119
615 6 12.868952 83.03677608778086 -3.192238
616 7 14.465071 85.80133529070689 0.0
617 2 12.868952 86.72285502501558 -1.596119
618 8 14.465071 85.80133529070689 -3.192238
619 9 16.06119 83.03677608778086 0.0
620 3 17.657309 83.95829582208954 -1.596119
621 10 16.06119 83.03677608778086 -3.192238
622 11 17.657309 85.80133529070689 0.0
623 4 16.06119 86.72285502501558 -1.596119
624 12 17.657309 85.80133529070689 -3.192238
625 5 12.868952 88.56589449363292 0.0
626 1 14.465071 89.4874142279416 -1.596119
627 6 12.868952 88.56589449363292 -3.192238
628 7 14.465071 91.33045369655895 0.0
629 2 12.868952 92.25197343086764 -1.596119
630 8 14.465071 91.33045369655895 -3.192238
631 9 16.06119 88.56589449363292 0.0
632 3 17.657309 89.4874142279416 -1.596119
633 10 16.06119 88.56589449363292 -3.192238
634 11 17.657309 91.33045369655895 0.0
635 4 16.06119 92.25197343086764 -1.596119
636 12 17.657309 91.33045369655895 -3.192238
637 5 12.868952 94.09501289948498 0.0
638 1 14.465071 95.01653263379366 -1.596119
639 6 12.868952 94.09501289948498 -3.192238
640 7 14.465071 96.85957210241101 0.0
641 2 12.868952 97.7810918367197 -1.596119
642 8 14.465071 96.85957210241101 -3.192238
643 9 16.06119 94.09501289948498 0.0
644 3 17.657309 95.01653263379366 -1.596119
645 10 16.06119 94.09501289948498 -3.192238
646 11 17.657309 96.85957210241101 0.0
647 4 16.06119 97.7810918367197 -1.596119
648 12 17.657309 96.85957210241101 -3.192238
649 5 19.253428000000003 0.1 0.0
650 1 20.849547000000005 1.0215197343086764 -1.596119
651 6 19.253428000000003 0.1 -3.192238
652 7 20.849547000000005 2.864559202926029 0.0
653 2 19.253428000000003 3.7860789372347057 -1.596119
654 8 20.849547000000005 2.864559202926029 -3.192238
655 9 22.445666000000003 0.1 0.0
656 3 24.041785000000004 1.0215197343086764 -1.596119
657 10 22.445666000000003 0.1 -3.192238
658 11 24.041785000000004 2.864559202926029 0.0
659 4 22.445666000000003 3.7860789372347057 -1.596119
660 12 24.041785000000004 2.864559202926029 -3.192238
661 5 19.253428000000003 5.629118405852058 0.0
662 1 20.849547000000005 6.550638140160734 -1.596119
663 6 19.253428000000003 5.629118405852058 -3.192238
664 7 20.849547000000005 8.393677608778086 0.0
665 2 19.253428000000003 9.315197343086764 -1.596119
666 8 20.849547000000005 8.393677608778086 -3.192238
667 9 22.445666000000003 5.629118405852058 0.0
668 3 24.041785000000004 6.550638140160734 -1.596119
669 10 22.445666000000003 5.629118405852058 -3.192238
670 11 24.041785000000004 8.393677608778086 0.0
671 4 22.445666000000003 9.315197343086764 -1.596119
672 12 24.041785000000004 8.393677608778086 -3.192238
673 5 19.253428000000003 11.158236811704116 0.0
674 1 20.849547000000005 12.079756546012792 -1.596119
675 6 19.253428000000003 11.158236811704116 -3.192238
676 7 20.849547000000005 13.922796014630146 0.0
677 2 19.253428000000003 14.844315748938822 -1.596119
678 8 20.849547000000005 13.922796014630146 -3.192238
679 9 22.445666000000003 11.158236811704116 0.0
680 3 24.041785000000004 12.079756546012792 -1.596119
681 10 22.445666000000003 11.158236811704116 -3.192238
682 11 24.041785000000004 13.922796014630146 0.0
683 4 22.445666000000003 14.844315748938822 -1.596119
684 12 24.041785000000004 13.922796014630146 -3.192238
685 5 19.253428000000003 16.687355217556174 0.0
686 1 20.849547000000005 17.608874951864852 -1.596119
687 6 19.253428000000003 16.687355217556174 -3.192238
688 7 20.849547000000005 19.451914420482204 0.0
689 2 19.253428000000003 20.37343415479088 -1.596119
690 8 20.849547000000005 19.451914420482204 -3.192238
691 9 22.445666000000003 16.687355217556174 0.0
692 3 24.041785000000004 17.608874951864852 -1.596119
693 10 22.445666000000003 16.687355217556174 -3.192238
694 11 24.041785000000004 19.451914420482204 0.0
695 4 22.445666000000003 20.37343415479088 -1.596119
696 12 24.041785000000004 19.451914420482204 -3.192238
697 5 19.253428000000003 22.216473623408234 0.0
698 1 20.849547000000005 23.137993357716912 -1.596119
699 6 19.253428000000003 22.216473623408234 -3.192238
700 7 20.849547000000005 24.981032826334264 0.0