LAMMPS data file via write_data, version 2 Aug 2023, timestep = 0, units = metal

4735 atoms
1 atom types

0 95.76714 xlo xhi
0 99.524131 ylo yhi
0 10 zlo zhi

Masses

1 28.085

Atoms # atomic

1 1 7.246839723622846 0.8917461255395359 1.4747103942887523 0 1 1
2 1 66.88173588497096 68.46339058422518 2.692317340416416 0 0 0
3 1 14.316832046123986 0.9888601281590818 0.707088342637525 0 0 2
4 1 17.12019078114693 1.176800130889343 1.2030456009370745 0 0 1
5 1 21.31783515968893 0.6582297996728701 1.4320101644169616 1 1 0
6 1 25.066058513675028 0.30836985611814616 0.41910304743125604 0 1 1
7 1 30.44568044002657 1.7900984227840788 0.7555792447850727 0 0 0
8 1 32.43403537922657 0.5823494440833978 1.3049045474717054 0 1 0
9 1 3.4871508650050247 3.3255140216155903 0.6939852794994343 0 0 -1
10 1 7.751542317949714 4.1306994731779065 0.1540383395047717 0 0 -1
11 1 10.952551277615862 3.123912294672945 0.41748661433052675 0 0 0
12 1 13.509506158804587 3.2795260555249723 0.9919140889865223 0 1 -1
13 1 19.413119374969554 2.1040129408782593 0.9134485908484007 0 0 0
14 1 22.816204413530393 2.7429785733435885 1.6376746043518977 0 1 1
15 1 25.18272638259227 2.741790596929004 0.4908514602664951 0 0 0
16 1 27.500754678272298 3.1194458412632025 0.9475993467656755 0 1 0
17 1 9.300217060471287 5.437649421317146 1.5452874353851271 0 0 1
18 1 15.03770797961076 5.587039469286173 1.4080817900483749 0 0 1
19 1 25.184236022017277 4.953825117003283 1.8977818462992266 0 1 1
20 1 27.626651580831336 5.568820017879344 1.290824705666065 0 0 0
21 1 29.9829827770414 5.113944881938491 1.8309888084902715 0 0 1
22 1 2.7081497581131773 7.245361941020571 0.2619257744436326 0 0 0
23 1 5.059412173061649 6.767950640190013 0.3864897873855909 1 0 1
24 1 13.11020641364571 6.821012243212438 1.5328886247708453 0 0 1
25 1 23.349666459292123 6.519229883580414 1.7669023562195623 0 0 1
26 1 31.04574573240978 7.290697234507959 2.130247958678714 1 0 1
27 1 91.70066647735378 56.345507312979755 0.03912864518054431 0 0 -2
28 1 14.168353968004238 8.835570478654644 0.865627545769729 0 1 0
29 1 17.656857371089174 10.218204565636139 1.4440357427947306 0 0 0
30 1 21.579768543891763 10.127765153555183 1.0636949871973997 0 0 0
31 1 23.47197137544993 8.910793925641942 1.7948770374168246 0 0 0
32 1 26.863649309007812 10.287143761160065 0.25602952221846415 0 0 0
33 1 0.4074551066895903 12.32031368571313 0.5441692112950531 0 0 -1
34 1 2.495163231230399 11.166985458733564 0.2153113514102962 1 0 0
35 1 6.047807435052532 10.587926067726965 1.6421142632167243 0 0 -1
36 1 9.481434798281672 11.823582533227869 0.49404014830307635 0 0 0
37 1 14.150971007377043 11.382708956647184 1.2489263158269113 0 0 1
38 1 16.44499620479428 12.358568891148348 0.6971441707355244 0 0 1
39 1 22.332689238983004 12.463712107749128 1.7377733782704432 0 0 1
40 1 29.220517480410315 10.836478182328765 1.3164580817516591 0 1 2
41 1 30.80742209293406 12.287519670505016 0.3343196823360992 0 0 1
42 1 11.095786567952867 13.536148402969918 0.15362391276392212 0 0 1
43 1 20.48638792744019 14.022244698707146 1.9241007755461879 0 0 0
44 1 24.584517325507807 13.44223380283485 1.392176179773379 0 1 0
45 1 26.97657848239344 14.019659722945278 0.9562191560046682 1 0 0
46 1 31.48840430628601 14.125556730525544 1.6616082269492303 0 1 1
47 1 0.29361174467407275 14.908297996493326 0.3121801287304244 1 1 1
48 1 3.6704529779063373 15.34005348640866 0.08101251205086846 0 0 0
49 1 6.199336468345924 15.39691050584526 0.6986725540119475 0 0 1
50 1 14.013712291465142 15.291342445597765 1.1627693607651257 0 0 1
51 1 26.463033607408228 16.40153360722197 1.9373214789851507 0 0 1
52 1 30.95304417605871 16.17273482022801 0.48716965193957695 0 0 1
53 1 0.2763269704140515 17.617219491634582 1.8749846152963765 0 0 1
54 1 4.370339215793439 17.6507539416018 1.1377073374950561 0 0 0
55 1 6.608129680019173 18.365612183178197 1.4812469594325697 1 0 -1
56 1 10.381840740683117 17.832981092050623 0.8761110891295589 1 0 -1
57 1 13.591705409532072 17.44108848078171 0.4617331173816595 1 0 0
58 1 17.195208687279933 17.27040460825189 1.3132812814070967 0 0 1
59 1 20.779430729434303 18.17714966626546 0.27813383166150235 1 0 0
60 1 19.49222625800204 17.717959313887764 2.1886006689493147 0 0 0
61 1 23.11111191049957 18.698806277820655 0.9277661503481763 0 0 0
62 1 25.587893397838634 18.540300082890916 1.2469228921534519 0 0 0
63 1 28.644692465200137 17.305800826591074 0.38286612605020837 0 0 0
64 1 31.473142225758178 18.205923550488514 1.990489077319489 0 1 1
65 1 4.330656225584618 20.830750432415957 1.2511816560129103 0 0 0
66 1 10.682035437534056 20.31000149971441 1.6563891155482449 0 0 1
67 1 31.74740042989017 20.02825415193281 0.5616641138640083 0 0 0
68 1 0.6341827624851323 20.82315705943976 1.5043453062024301 1 0 -1
69 1 6.762077500607845 20.777723662725794 1.2927030887754087 1 0 1
70 1 8.905632150705523 21.465781283602762 0.23722627839628493 0 0 0
71 1 12.008597170984585 22.458795328893537 1.587201741941983 0 0 -1
72 1 15.344848999711731 21.241835665661004 0.20941407794283962 0 0 0
73 1 17.098523661214834 22.043872485293512 1.799491471535385 0 0 -1
74 1 18.90209099382938 21.93155387576219 0.1267182200585379 0 1 0
75 1 22.679792260361882 21.06538614863272 1.7203281915262048 0 0 1
76 1 28.23623810094528 21.71286191996594 0.9254218974507009 0 0 1
77 1 30.54974048972662 21.89424432843736 1.6540080620100521 0 0 1
78 1 1.3084918909083392 23.278513643244555 1.235961381696947 0 0 -1
79 1 3.6566049462352543 23.099254420062216 0.6969045686321523 1 0 -1
80 1 9.963315710447674 23.623192814140367 1.8030668766291402 0 0 0
81 1 26.45932264463219 23.283055651199817 0.9543992425769612 0 0 0
82 1 31.943638392238196 23.640547931819302 0.48630938987234446 0 0 1
83 1 0.2412099637311423 25.332373317931633 0.6551294068530897 1 0 1
84 1 4.73412247009543 25.046344133521533 1.5604735236618748 1 0 0
85 1 8.044539361683169 26.25927936705342 0.2802769379343092 1 0 1
86 1 14.242158843666926 26.253453854369745 0.31830873199452864 0 0 0
87 1 16.555635252056994 27.12573993046149 0.3843535522994097 0 0 0
88 1 18.339447304364406 25.704011583970736 1.178940811148888 0 0 1
89 1 24.9618336211446 26.569375794852395 0.6741225413482766 0 0 0
90 1 26.974960148180134 25.458505850197994 0.06661097136722458 0 0 0
91 1 28.966200156555892 26.44519498577077 1.0507325734095083 0 0 2
92 1 31.560958088151565 26.049769389981844 0.7448642678360313 0 0 0
93 1 1.6850911859771085 27.458595012703228 0.861435454011796 0 0 0
94 1 11.108946659516507 27.235756109904226 0.5606959452449315 0 0 1
95 1 20.767805555735094 28.564751179643597 1.3703756956801538 1 0 0
96 1 24.663117555074525 28.898090712785667 0.9692642506536717 0 0 0
97 1 32.78954746958632 28.150766892961435 0.8628660658791792 0 0 1
98 1 3.6011177414161857 30.44193090561304 1.9486702542605074 0 0 0
99 1 6.851404585775576 29.261810065754936 0.3229273101761569 0 0 -1
100 1 9.737189558954993 30.733012540007284 0.9888345883215846 0 0 0
101 1 12.125734971020433 30.912523570946817 1.3487527056598267 1 0 -1
102 1 16.964661324404222 29.465687009858634 0.24386034817605287 0 0 0
103 1 19.049927311980905 30.190223575542163 1.111564241004702 0 0 0
104 1 26.940496397893053 29.459780447929067 0.6645877153324854 0 0 0
105 1 29.982222228914882 30.366096452446723 1.6919322490867161 0 0 -1
106 1 1.3326838668725414 32.50030364390121 0.7127750491211483 1 0 0
107 1 5.009822585406752 32.28066050869675 1.4921453883036215 0 0 1
108 1 6.777086558087386 31.664796609858367 0.0641764273499529 0 0 0
109 1 8.6939535736973 33.11370132216174 0.9298634256521663 0 0 0
110 1 10.943232571449283 33.40621713881814 0.14966653373877328 1 0 0
111 1 15.466284409772054 32.06505688677996 1.9881130471773378 0 0 0
112 1 19.76896746511717 32.321615068498026 0.349350415454303 0 0 1
113 1 22.0409911480455 31.782696061397974 1.0989582439594408 0 0 -1
114 1 27.195093690009507 31.80141919948709 1.077373716446289 0 0 1
115 1 29.367380165868294 32.69309370095008 0.5752654950974384 0 0 0
116 1 3.3641710711105564 33.69490111523225 0.4125199632648036 1 0 1
117 1 7.233034582041073 35.181651246271464 0.3601388524499804 0 0 1
118 1 12.650843950306918 34.75597917976482 1.5193746539864004 1 0 2
119 1 16.721332866891103 34.04948101602921 2.0898601190822292 1 0 1
120 1 19.092181377891954 33.78209639853924 2.040735187046201 0 0 -1
121 1 23.222605412687997 33.75007220986603 2.0911304963208033 0 0 1
122 1 30.340602548189054 34.817680639471455 1.3188207823137916 0 0 0
123 1 32.53672797606563 34.935422491167806 1.9445140258364795 0 0 -1
124 1 3.0220674604060127 35.933648032908366 1.2042292099472183 1 0 1
125 1 5.467760503327336 35.48811021446564 2.008272753467475 0 0 1
126 1 9.295082537585568 36.78709791023431 0.08734395869613186 0 0 1
127 1 17.820874367744644 37.04096646249221 0.7452056606275862 0 0 0
128 1 20.264851380028812 35.67130828529672 0.9383464130927079 0 0 1
129 1 25.492552811935138 35.76628235480135 2.063409683460546 0 0 0
130 1 33.12398185756785 37.23821150954993 1.1980502841976095 0 0 -1
131 1 3.7690967497283188 38.31842276114973 1.0156216518656376 1 0 2
132 1 5.82865219680633 39.20311738629261 0.39198090600091595 0 0 0
133 1 7.279815738028178 37.727040160877344 1.5274008480547436 0 0 1
134 1 10.483642037140543 39.405495205534066 0.33713477744222947 1 0 1
135 1 13.999310446483571 37.762410467245665 0.0537925402367911 0 0 0
136 1 23.505345191147256 38.65102922537732 1.2536227439128196 0 0 1
137 1 26.815225078216486 37.60065896522748 0.9621396731620383 0 0 -1
138 1 25.507480662158045 39.44664677053634 0.5605266541518918 0 0 0
139 1 2.0979059018567487 41.551512479737774 0.5274708041708304 0 0 0
140 1 5.9827435573520145 41.33143612424408 1.4939057379248006 1 0 2
141 1 15.504147095356709 40.73003470130173 0.7772775195600842 1 0 0
142 1 20.034763619154074 40.34142582142197 0.9200853262491009 0 0 0
143 1 5.78773269485689 43.20205924821751 0.1965439186418045 0 0 0
144 1 9.716914067957694 41.52825732230773 1.1234623839582016 0 0 1
145 1 12.435879703973463 43.52972822531383 0.19760822558557678 1 0 1
146 1 16.934381492571333 42.68424933865894 0.8468762714668656 0 0 1
147 1 22.39314332662604 42.68062500517609 0.911821003071995 0 0 -1
148 1 24.869499411240636 42.92247614764844 1.047952761338431 0 0 0
149 1 29.636740678532355 43.00744606468873 0.7958341905057251 0 0 0
150 1 31.89331458712283 43.16256133906379 1.7170873172042447 0 0 0
151 1 33.210473628744765 17.41848251605421 7.458989382592191 0 0 0
152 1 5.998933471971666 45.05714918704285 1.7190959755044906 0 0 1
153 1 14.211090963201702 45.18201522720101 0.23764438395822826 1 0 0
154 1 15.705823072497722 44.345882595666886 1.8196651898148297 0 0 0
155 1 20.342485983954475 44.19562362237507 1.839868575825894 0 0 0
156 1 25.443354388072866 45.16422001590629 1.8334495093396639 0 0 1
157 1 33.202828667476446 34.93592167392766 9.422013573412025 0 0 0
158 1 2.138182499231674 48.05504027476153 0.20946661219015542 1 0 2
159 1 5.012283853407136 46.87033747352487 0.5437963349883937 0 0 0
160 1 9.698322488008603 46.400304682555564 0.27769637402822533 1 0 1
161 1 11.515936954820877 47.19569451689106 1.6833186458034233 1 0 -1
162 1 13.802340319540741 47.30671565880883 1.2129559310862386 0 0 1
163 1 18.97885656712424 47.71380859229334 0.3546318022218757 0 0 0
164 1 24.03318261482706 46.44575748450714 0.0579082738592598 0 0 2
165 1 27.033396570125007 46.79649766092126 0.5309137102948164 0 0 1
166 1 6.208412271475311 48.8659947725967 2.0846708947963033 1 0 0
167 1 0.11713766381280688 45.83289030397146 1.6397956540183996 1 0 0
168 1 17.626738772557815 49.64542478784276 0.6984243095099919 1 0 0
169 1 22.963452872399216 48.2627548139357 1.118388628201605 1 0 0
170 1 27.285064314238614 48.57266587423914 2.2229953977725887 0 0 1
171 1 31.219852051223167 48.02457824532765 0.18288611233803106 0 0 0
172 1 8.141736670470296 0.41791675174593756 3.623043907421074 0 0 -1
173 1 10.40753867768005 0.781015396042547 3.556654174681133 0 1 0
174 1 16.042155421909072 1.844339431989956 3.2724833533746724 0 0 0
175 1 26.394277663560953 1.2508479271754176 2.9257761011218006 0 0 1
176 1 28.9467674994777 1.8943398905721454 2.699991207904153 0 0 1
177 1 2.25043866312232 3.9844823613128755 2.6771575675098984 0 0 0
178 1 3.244790061219584 2.591880895951392 4.34664657631706 0 0 1
179 1 5.276109566113771 2.479973454264727 2.27858754770678 0 0 1
180 1 10.3231335273753 3.0381292172515244 2.804361240520145 0 0 1
181 1 14.578036242061959 3.8376884338604333 3.386693554908438 0 0 2
182 1 19.370710636444585 3.6598442249347074 2.816875626335676 0 1 0
183 1 21.560527337272045 3.9038381898495764 3.4066636238362276 0 1 -1
184 1 24.45100907662596 2.553422938701806 3.6718531522479005 0 0 -1
185 1 30.1415533699638 3.5148768716299967 3.7445645568901296 0 0 1
186 1 3.3038037115668133 5.813267637797595 3.69111704397338 0 1 1
187 1 6.667268165492467 4.501643115215135 2.5410478892718316 0 0 1
188 1 11.91109408740166 4.305736178645668 4.015617582860528 0 0 0
189 1 18.68800128089416 5.858756900894064 2.2549628248304736 0 0 1
190 1 21.943375446023314 6.1544276454643425 3.694525568771441 0 0 1
191 1 27.186978995975736 6.168195921099918 3.711093638980089 0 0 0
192 1 2.034530871337634 7.504672111585977 2.4794130165931323 1 1 1
193 1 5.392145662084042 6.537114781623867 2.585718801240198 0 0 -1
194 1 10.056122437349428 7.918088178238198 2.5740667285435794 0 0 0
195 1 11.909355552443763 6.807368458450435 3.5765916226390573 0 0 0
196 1 16.500803239464936 6.537687498027239 2.9135287002074346 0 1 0
197 1 19.899263064936072 7.493988944118366 3.5802711289635245 0 0 0
198 1 2.99859605910558 9.50142172449287 3.5908041076331223 0 0 0
199 1 6.553387078539902 8.546370540856833 2.9908513080546273 1 0 2
200 1 10.632213486356507 10.354676415828157 2.2910148861342567 0 0 1
201 1 16.056730136189326 8.833734656676127 2.4716698810612963 0 0 0
202 1 19.725455370487506 9.751598191149581 2.506003633428572 0 0 0
203 1 22.73153019695257 9.031966142767619 4.234164003529881 0 0 1
204 1 25.712657573751272 9.68591996737755 2.3374373300282625 0 0 1
205 1 26.4474455821044 8.303352650643783 4.178944198288615 0 1 0
206 1 29.901740917258596 9.186266951271326 2.9842346273995197 0 0 0
207 1 31.680268931952586 10.17367429323739 4.2502050444014765 0 0 0
208 1 3.7852599826455626 11.183126926587885 2.171198496694761 0 0 2
209 1 7.798023328657012 12.16975678708445 2.142703714536875 1 1 0
210 1 9.375202885702157 11.674135583379936 4.023643582878711 1 0 1
211 1 12.64736119947866 11.124015325430774 3.2199569291185695 0 0 0
212 1 22.678648442270447 11.469655859492613 4.031918526859417 0 0 1
213 1 25.19330906936629 11.759480279744752 3.200119867162165 0 0 1
214 1 3.210707808598851 13.333508010685234 3.1909353556488314 0 0 0
215 1 7.0577741491668355 14.334563684890716 2.7196137516577665 0 0 0
216 1 12.178947467769067 13.306515956120409 4.021746402570936 0 0 -1
217 1 17.099284404631486 13.669101461598055 2.7051559420374915 0 0 1
218 1 19.279942098129 13.40554552397328 3.7234292484117315 0 0 0
219 1 28.498358131397886 12.874593269024347 2.4361566111329966 0 1 1
220 1 30.208410027259312 13.84923870984153 3.8431852815084233 0 0 0
221 1 2.264309695256678 15.154815227976773 2.0883980660099373 0 0 1
222 1 8.536052913504223 15.830367657173865 3.8150326357205806 0 0 -2
223 1 11.915615456589498 14.574523754068876 2.1302567398366583 0 0 -1
224 1 10.561525491232285 16.368128187497973 2.7275966061410943 1 0 0
225 1 15.856360447762352 15.853220002382654 2.6948435654359675 0 0 1
226 1 20.96714170563467 16.17093019956684 3.1560442220492475 0 0 1
227 1 24.57672425670053 15.332219517572204 2.841209834291152 0 0 -1
228 1 3.2703554950293556 17.072291310603628 3.255939381432227 0 0 0
229 1 7.08297712407966 17.591561804009693 3.5998363963396622 0 0 2
230 1 22.99278071729298 17.048851232080803 2.779247866799893 0 0 0
231 1 27.37337256650155 16.814624634416568 4.12147079860698 0 0 0
232 1 29.05311739137392 18.142822101957385 2.7241776670457947 0 0 1
233 1 1.3789861977106594 19.641578229512017 3.536159922223058 0 0 1
234 1 3.653132987549258 20.118217048444325 3.458269324479214 1 0 0
235 1 12.645877563383767 18.740301626634317 2.337407743695011 0 0 0
236 1 14.273227937676149 20.49300510189621 2.3168849541719703 0 0 0
237 1 16.007450964594526 19.014425324421644 3.0428288659128486 1 0 0
238 1 17.53857683542872 20.593887066904326 3.7657129498198545 0 0 1
239 1 19.761679295484292 19.635294776063883 3.6476799461383136 0 0 1
240 1 25.701023085140562 19.82734741016606 3.1431747668318573 0 0 0
241 1 27.988746053814747 20.20213891322525 2.9765069712188 0 0 0
242 1 3.875963513342524 22.47971336749305 3.797823444702507 0 0 0
243 1 6.4834851641388855 22.088199757592566 3.4205652313908645 1 0 -1
244 1 9.64841766215088 20.783995384587072 3.7360421454335144 0 0 0
245 1 20.30841949287574 21.56047011903047 2.130795863987622 0 0 0
246 1 24.40668125293441 21.717475937774662 3.6145781900750564 0 0 0
247 1 30.981994716803094 21.2381955758207 3.996884900050874 0 0 0
248 1 1.914567699626577 23.760058351797845 3.438212338762846 0 0 2
249 1 6.2262807645731915 24.621473902421855 3.345239190023431 0 0 0
250 1 8.727542185531695 22.969358045032735 3.679257399631813 0 0 0
251 1 13.254497834382864 23.535058301470603 3.3441746048494325 0 0 1
252 1 17.04365257681314 24.31929601416675 2.508995398920318 0 0 0
253 1 20.571174400500308 23.45397532567148 3.46183017990163 0 0 0
254 1 21.602869479335272 24.983754110958895 1.9799887028206533 0 0 0
255 1 25.474804091242774 23.773020260206177 3.003672373604302 0 0 0
256 1 27.58117644592404 24.444740444044058 3.9319338689923105 0 0 1
257 1 29.532072840502867 24.445999922167495 2.425982155693998 0 0 0
258 1 2.0260422152199817 26.038535443267683 3.8118524194432637 0 0 -1
259 1 3.4220327406610243 26.88542125735649 2.302062153958412 1 0 0
260 1 7.8239708376861135 26.31530116980206 2.6832835946456677 0 0 1
261 1 10.360446775973575 25.838203799523903 2.5949950243422055 0 0 0
262 1 12.158583197717912 25.510056628215025 4.365730184144511 0 0 0
263 1 14.810204446703532 25.24174869390521 2.5170732878994797 0 0 1
264 1 20.088351849209303 26.802454987059836 2.7827386952180144 0 0 0
265 1 23.89320715745805 25.48991905378218 2.4693071764718857 1 0 -1
266 1 31.655193814453973 25.47534070634202 3.2225687193318695 0 0 0
267 1 0.47954384945071576 29.07936352369824 2.215449933746757 0 0 0
268 1 29.407947508080174 0.20715418499626145 7.294742652022953 0 1 0
269 1 4.572459003758337 28.76133950013106 3.2998871729705006 0 0 1
270 1 6.942734095927854 28.758261239721822 2.6576929931737 1 0 1
271 1 12.012929063289873 28.654013645170355 2.4494069970512427 0 0 0
272 1 13.694063877567698 27.454080102705433 3.730976818155403 0 0 0
273 1 16.161680839460672 27.863401715255673 2.8300895752702333 0 0 0
274 1 17.923726313575415 26.900394289957884 4.1519418076977965 0 0 1
275 1 23.963619497012196 29.010867802874802 3.1875773859424017 0 0 0
276 1 28.411249796782958 28.546153876317646 2.246225571048036 0 0 0
277 1 32.4861431673256 27.87356201456361 3.3202926282842045 0 0 0
278 1 1.4205417390538828 31.065990929326425 2.8174900821950346 1 0 0
279 1 8.548980173446406 30.473019685632018 3.0798861139560585 1 0 0
280 1 10.428016609009019 29.458168872371036 4.065148320184348 1 0 -1
281 1 16.40590933351972 30.18894243231957 3.225966330188923 0 0 1
282 1 18.884025597551123 30.566387254826136 3.4202412458119493 0 0 0
283 1 21.95425435311949 30.12975266982829 2.9439023558016335 0 0 -1
284 1 31.563349593511 30.825519872048208 3.4071571904242877 0 0 0
285 1 8.255428009396402 33.211866863606836 3.299235200036294 1 0 0
286 1 13.139361817398827 32.64109581388329 2.4313261285971755 0 0 0
287 1 23.879587208647557 32.59171188978031 3.975478438515577 0 0 0
288 1 26.700379137138135 32.049272661855866 3.324927559138073 0 0 0
289 1 5.967011830185242 33.53251866525569 3.197944141707507 0 0 1
290 1 9.640532217527031 35.22325635864665 3.974687343073744 0 0 0
291 1 26.135118665905516 34.490086428689864 3.9532328657312887 0 0 0
292 1 1.5057786497363808 36.010258995087085 3.1449838529166865 1 0 0
293 1 5.26841840864961 37.352114828980646 3.57734689920824 0 0 0
294 1 10.725615101881202 36.20069768998971 2.057799746397447 1 0 0
295 1 13.777796494438052 36.17228773029058 3.509866965382989 0 0 0
296 1 16.062876582019946 35.55015472853966 3.8930185833498534 0 0 -2
297 1 21.845719191588255 35.73701071131211 2.789815853407166 1 0 -2
298 1 23.845272907131726 37.017054129436914 2.9359998732168573 0 0 -1
299 1 29.439722529987804 35.98357804751531 3.167564563859224 0 0 1
300 1 1.5159100348730261 38.36649155141977 3.8612366398770885 0 0 1
301 1 3.652611614002629 39.26757275157943 3.335892774344796 1 0 1
302 1 8.668356355333207 38.93226551787756 3.1310144917723766 1 0 1
303 1 11.078017688996534 38.51892612683182 2.5483985212736866 1 0 0
304 1 13.459533076160906 38.184303612539814 2.257752882223617 0 0 0
305 1 18.444637306361507 38.35704584946881 2.7288358547771154 1 0 0
306 1 20.891793954798505 38.20827590968605 3.1369529805526613 0 0 0
307 1 28.240773651248972 38.02432507393544 2.659866606764385 0 0 1
308 1 32.40520753661161 37.796928048406464 3.610426553060695 0 0 0
309 1 3.755950755306896 41.393247343099674 2.392385504294338 1 0 1
310 1 7.826594413484518 41.26063771833691 2.9277544060454144 0 0 0
311 1 14.553179144782892 40.136296333122615 2.9409468571108213 0 0 1
312 1 17.221048337356596 40.37407923171313 3.0900625550830414 1 0 -1
313 1 22.090169177426013 40.229995989658896 2.0792928014721337 0 0 -1
314 1 22.55467372672768 41.60273724840754 3.9425928539675117 0 0 1
315 1 25.982870114500937 41.225600403181396 2.1902306512913605 0 0 0
316 1 28.29431906953571 41.750961777681965 2.310335683188207 0 0 0
317 1 29.58724092376391 39.86740561871951 2.2531937989889093 0 0 0
318 1 31.57203041517194 40.054593879441434 3.560748872081033 0 0 -1
319 1 93.73766057658987 50.138358543970554 3.420772386215838 0 0 -1
320 1 0.4133796746076351 41.815208961608185 2.3071422607614402 0 0 0
321 1 3.7462047734766606 43.10645900110372 4.060032081073495 0 0 1
322 1 9.027451895812783 43.62029573704583 3.0217880571879507 0 0 -1
323 1 11.417539555290704 43.29392132353664 2.283157541050004 0 0 0
324 1 13.2386988547722 42.05458265629285 3.415321099850232 0 0 1
325 1 14.445505217367371 43.9169702276413 3.9105247774122653 1 0 -1
326 1 18.93165760407488 42.15032313580345 2.077843793075887 1 0 1
327 1 1.0536293080592332 45.493398276672764 3.8480450031089495 1 0 -1
328 1 4.7805923877902545 45.20734828073038 3.704821081785926 1 0 -1
329 1 8.234251981583935 45.77029943265259 2.130862261711627 0 0 -1
330 1 11.2420510369197 45.63698189915068 3.4446603374748768 0 0 0
331 1 17.004399475011063 45.867732550033864 3.13809091026793 1 0 0
332 1 22.03830238077254 43.91751271923316 3.6567751055975526 0 0 0
333 1 23.760195791611313 45.623201646094564 3.5561240598860455 0 0 1
334 1 27.36722383818346 45.335232734485686 3.3769868905122364 0 0 -1
335 1 29.389651752330874 45.383569740783244 2.226624546870139 0 0 -1
336 1 30.795615535960813 44.168627080610754 3.781816548680346 0 0 1
337 1 3.0065752392083884 46.80127730839216 3.801323222109348 1 0 0
338 1 7.558303616975635 47.52663893756005 3.6265063639525437 0 0 0
339 1 15.367143348295874 47.536180685942675 3.1744582715934717 1 0 0
340 1 19.192705477365163 46.26193016005589 2.23340363825844 0 0 0
341 1 20.29460846252487 47.16741843599146 4.093028929760552 0 0 -2
342 1 22.572726576885838 47.63425979987581 3.395665178400556 0 0 0
343 1 30.068259783666342 47.640790886657925 2.261570780393353 0 0 0
344 1 31.71284873197747 47.12220384406097 4.125139717915439 0 0 0
345 1 3.501142143890758 48.49885925240777 2.060508632708193 0 0 1
346 1 10.776908356720428 49.282860440826575 2.6483872955455188 0 0 0
347 1 16.047600684384026 49.64355825970794 2.612171341141977 1 0 1
348 1 2.0395317521654626 0.34508702384295187 4.256707121984718 1 1 -1
349 1 5.183470632035669 0.8873126070901154 4.462998645859376 1 1 0
350 1 7.3493957673755 2.225780798811834 5.221770767679606 1 0 0
351 1 12.108356041538222 0.774833581853395 5.254995042197427 0 1 -1
352 1 15.939076205893086 0.270281147354759 5.336758404156002 0 0 1
353 1 23.525079253500316 1.8384074185730281 5.718224445030659 0 0 1
354 1 27.392885034314993 1.705999559422968 5.271005105031425 0 0 0
355 1 32.16459130186213 0.9964483848761266 5.612698224117244 0 0 0
356 1 0.03296601366109164 9.595130315854844 6.014438245887811 0 0 -1
357 1 2.1231396704048917 3.9406878516535544 6.037456277871932 0 1 1
358 1 5.328412036797016 4.074180736725764 5.050163689202944 1 0 1
359 1 8.414736609067859 4.222712694673405 4.249794382559907 1 1 -1
360 1 13.272067003730974 2.8242557286725534 5.510787774927756 0 0 1
361 1 18.23305017403704 2.4271888993227386 4.41008539096046 0 0 0
362 1 17.135001082829092 3.8140617950122473 5.920511335417203 0 0 1
363 1 21.6768063244926 3.222436040452051 5.697340485766902 0 1 0
364 1 26.34773660584513 3.6410203194033954 6.227615937488838 0 0 -1
365 1 29.740688211241842 2.1896160552269954 6.047546793916555 0 0 0
366 1 32.411280422195205 2.9413739792277207 4.144921102179448 0 0 0
367 1 7.339608201896082 6.091851863692771 5.362234993099038 1 1 0
368 1 10.359130493463969 5.022576013653829 5.900599057713448 0 0 -1
369 1 15.715651829257773 5.510347985272635 4.993822674580094 0 0 0
370 1 23.575362144561904 6.123958930890694 5.456708940976295 0 1 0
371 1 25.262845945424257 4.712881959550598 4.45278626845325 0 1 0
372 1 29.142818608788293 5.484216528374583 4.932329438931031 0 0 0
373 1 0.10662431318806381 30.57196787558755 6.624443551819518 1 0 0
374 1 0.15100280229574486 7.276810557242346 5.369275244473683 0 0 1
375 1 2.231800060244078 6.291864894540616 5.965506512320577 1 1 0
376 1 4.90465493133102 6.726523253601384 5.8956498493699945 1 0 0
377 1 8.520549932322373 8.098074334635713 4.447010436503017 1 0 0
378 1 12.718928705001558 7.963384019076717 5.73669956300891 0 0 0
379 1 18.143951147733436 6.802062556279797 5.373111342256345 0 0 0
380 1 20.72301030217324 8.296431593345456 5.800424647153031 0 0 2
381 1 31.399552042213113 6.524926735126832 4.51396128664836 0 1 0
382 1 5.025526373058673 8.911668136855392 4.837938097553276 0 0 1
383 1 8.489279084125043 10.155117336499565 5.658497790370388 1 0 0
384 1 13.678321997671423 10.071907611333849 5.16480740783283 0 0 -1
385 1 15.981699531329477 10.02090213629622 4.563160064215626 0 0 0
386 1 17.265586393133184 8.945042029185704 6.2361423982616175 0 1 0
387 1 24.520236132790757 8.599774315787451 5.667901595804712 0 0 -1
388 1 28.50657912926627 8.981667707090248 5.084964685755838 0 1 2
389 1 31.546629676716922 8.447876491194675 5.88044919345727 0 0 0
390 1 1.904591352076768 10.846131108445482 5.311618972185306 0 1 -1
391 1 6.1262921580138245 10.606258251427736 6.124456307677359 0 0 -1
392 1 20.268017617243697 11.163968474575453 4.360153820437158 0 0 1
393 1 28.296692114499617 11.244852422438601 5.981004691841301 0 0 -1
394 1 30.613426250206917 12.069287753066241 5.339421934200494 0 0 0
395 1 1.4276539577150298 12.959990539162892 4.523786330147921 1 1 1
396 1 5.178502504072794 14.19662053272862 4.3247184545548905 0 0 0
397 1 10.331530737301673 13.417852303471612 5.580839887340498 0 0 -1
398 1 14.211774927877602 13.387492823744495 5.3715284833445 0 0 -1
399 1 16.1575881079538 12.371490143656759 4.43986563667422 0 0 0
400 1 23.776444989893275 12.72866811426634 5.846896409635878 0 0 0
401 1 25.42906383443289 14.492799976800809 4.968737409694201 0 0 0
402 1 27.130417376080022 12.679941329594874 4.485744868161592 0 0 0
403 1 0.6432967996955824 15.170591032067277 5.1955771651134155 0 1 0
404 1 5.102803198691243 16.669443578293546 4.6991504979032515 1 1 1
405 1 8.76301389232812 15.213478861311978 6.078993044015938 0 0 0
406 1 11.896343476201075 15.466078634263964 6.216591121037546 0 0 -1
407 1 14.77165085024846 15.463754498983413 6.284702555800014 1 0 0
408 1 20.540056563429008 15.247868058346008 5.344757140036255 0 0 1
409 1 28.45479335717027 14.884861870273483 5.106180198944889 0 0 0
410 1 32.42453043116626 15.317809979168748 4.13404767279602 0 0 -1
411 1 31.646131423471456 16.00003039610128 6.300345075226487 0 0 -1
412 1 1.4039431735090375 17.545720784691 4.97703995594658 1 0 0
413 1 12.269039150462955 17.310555409365598 4.3716598857807165 0 0 0
414 1 11.634568139003214 18.721041219938268 6.168330233460421 0 0 0
415 1 14.74188096797968 17.089626072700685 4.554321843402807 0 0 1
416 1 23.329601206678937 18.176893180827804 4.842590714528038 0 0 0
417 1 25.73386846452628 18.369020893322986 5.145720717051623 0 0 0
418 1 29.90728188534969 17.691872905475382 5.351258702197133 0 0 1
419 1 0.7268120172376831 20.83768230504353 5.616307815947549 1 0 -1
420 1 4.525736284861778 19.043197877531576 5.606611454132345 0 0 -2
421 1 6.150967502130205 20.769854232136524 5.5213716217879885 0 0 0
422 1 8.023226173520287 19.43021481038409 4.777449941118969 0 0 0
423 1 14.912028652011669 19.401449752805224 5.525420211428477 1 0 0
424 1 19.041671419904052 18.773816333682834 6.141429018315884 0 0 1
425 1 21.696151010769498 19.82807554604682 5.2603795727776745 0 0 1
426 1 31.652194997687843 18.971315726911136 4.337597158519592 0 0 0
427 1 4.426389547575858 22.997832446358267 6.048648256645867 1 0 1
428 1 11.422690094847075 20.957909268043643 5.274758571286961 1 0 1
429 1 13.706973411125327 21.421054171984963 4.6439707775430685 0 0 -1
430 1 17.32312255262539 22.44947223545366 5.686955257308174 0 0 0
431 1 22.1597862263373 22.10029790602112 4.702818888019616 0 0 1
432 1 25.66483916184391 22.230280494585305 5.827751366165813 0 0 -1
433 1 28.926157844227347 21.006149819861115 4.979554453513827 0 0 -1
434 1 27.83375968831831 22.910789418946507 5.618571467300584 0 0 1
435 1 32.64730511061555 22.571273523599885 4.791741960579458 0 0 1
436 1 0.5082152616958899 23.145933834916427 5.168115913818875 1 0 0
437 1 9.132365832897234 24.050211327696253 5.785419440537428 0 0 0
438 1 13.670736642198742 24.71585506687376 6.224652415492668 0 0 1
439 1 18.47406249402934 24.30186938355424 4.471645137127091 0 0 -1
440 1 20.667667299784387 25.019651618000122 5.9969627888978705 0 0 -1
441 1 32.01712323249595 24.344369066633224 6.285759717924625 0 0 0