LAMMPS data file via write_data, version 2 Aug 2023, timestep = 0, units = metal

211 atoms
1 atom types

-20 20 xlo xhi
-20 20 ylo yhi
-3 8 zlo zhi

Masses

1 28.085

Atoms # atomic

1 1 12.530675000000002 10.002274999999997 5.893 0 0 0
2 1 10.606025000000002 11.113453888599999 6.6787301904 0 0 0
3 1 8.681375000000003 10.002274999999997 5.893 0 0 0
4 1 6.756724999999999 8.8910894443 2.7500698096 0 0 0
5 1 6.756724999999999 13.335825 5.893 0 0 0
6 1 8.681375000000003 14.447003888600001 6.6787301904 0 0 0
7 1 6.756724999999999 11.113453888599999 6.6787301904 0 0 0
8 1 4.832075 10.002274999999997 5.893 0 0 0
9 1 2.907425 8.8910894443 2.7500698096 0 0 0
10 1 2.907425 13.335825 5.893 0 0 0
11 1 4.832075 10.002274999999997 3.5358 0 0 0
12 1 4.832075 14.447003888600001 6.6787301904 0 0 0
13 1 2.907425 11.113453888599999 6.6787301904 0 0 0
14 1 0.9827750000000002 10.002274999999997 5.893 0 0 0
15 1 -0.9418749999999996 8.8910894443 2.7500698096 0 0 0
16 1 -0.9418749999999996 13.335825 5.893 0 0 0
17 1 0.9827750000000002 10.002274999999997 3.5358 0 0 0
18 1 0.9827750000000002 14.447003888600001 6.6787301904 0 0 0
19 1 -0.9418749999999996 11.113453888599999 6.6787301904 0 0 0
20 1 -2.8665249999999993 10.002274999999997 5.893 0 0 0
21 1 -4.791174999999999 8.8910894443 2.7500698096 0 0 0
22 1 -4.791174999999999 13.335825 5.893 0 0 0
23 1 -2.8665249999999993 10.002274999999997 3.5358 0 0 0
24 1 -2.8665249999999993 14.447003888600001 6.6787301904 0 0 0
25 1 -4.791174999999999 11.113453888599999 6.6787301904 0 0 0
26 1 -6.715824999999999 10.002274999999997 5.893 0 0 0
27 1 -8.640474999999999 13.335825 5.893 0 0 0
28 1 -6.715824999999999 10.002274999999997 3.5358 0 0 0
29 1 -6.715824999999999 14.447003888600001 6.6787301904 0 0 0
30 1 -8.640474999999999 11.113453888599999 6.6787301904 0 0 0
31 1 -10.565125 10.002274999999997 5.893 0 0 0
32 1 -12.489775 11.113453888599999 6.6787301904 0 0 0
33 1 14.455325000000002 6.6687249999999985 5.893 0 0 0
34 1 14.455325000000002 4.446353888600001 6.6787301904 0 0 0
35 1 12.530675000000002 3.3351749999999996 5.893 0 0 0
36 1 10.606025000000002 2.223989444299999 2.7500698096 0 0 0
37 1 10.606025000000002 6.6687249999999985 5.893 0 0 0
38 1 12.530675000000002 7.779903888600003 6.6787301904 0 0 0
39 1 10.606025000000002 6.6687249999999985 3.5358 0 0 0
40 1 10.606025000000002 4.446353888600001 6.6787301904 0 0 0
41 1 8.681375000000003 5.5575394443000015 2.7500698096 0 0 0
42 1 8.681375000000003 3.3351749999999996 5.893 0 0 0
43 1 6.756724999999999 2.223989444299999 2.7500698096 0 0 0
44 1 6.756724999999999 6.6687249999999985 5.893 0 0 0
45 1 8.681375000000003 3.3351749999999996 3.5358 0 0 0
46 1 8.681375000000003 7.779903888600003 6.6787301904 0 0 0
47 1 6.756724999999999 6.6687249999999985 3.5358 0 0 0
48 1 6.756724999999999 4.446353888600001 6.6787301904 0 0 0
49 1 4.832075 5.5575394443000015 2.7500698096 0 0 0
50 1 4.832075 3.3351749999999996 5.893 0 0 0
51 1 2.907425 2.223989444299999 2.7500698096 0 0 0
52 1 2.907425 6.6687249999999985 5.893 0 0 0
53 1 4.832075 3.3351749999999996 3.5358 0 0 0
54 1 2.907425 2.223989444299999 0.3928698096 0 0 0
55 1 4.832075 7.779903888600003 6.6787301904 0 0 0
56 1 2.907425 6.6687249999999985 3.5358 0 0 0
57 1 2.907425 4.446353888600001 6.6787301904 0 0 0
58 1 0.9827750000000002 5.5575394443000015 2.7500698096 0 0 0
59 1 0.9827750000000002 3.3351749999999996 5.893 0 0 0
60 1 -0.9418749999999996 2.223989444299999 2.7500698096 0 0 0
61 1 -0.9418749999999996 6.6687249999999985 5.893 0 0 0
62 1 0.9827750000000002 3.3351749999999996 3.5358 0 0 0
63 1 -0.9418749999999996 2.223989444299999 0.3928698096 0 0 0
64 1 0.9827750000000002 7.779903888600003 6.6787301904 0 0 0
65 1 -0.9418749999999996 6.6687249999999985 3.5358 0 0 0
66 1 -0.9418749999999996 4.446353888600001 6.6787301904 0 0 0
67 1 -2.8665249999999993 5.5575394443000015 2.7500698096 0 0 0
68 1 -2.8665249999999993 3.3351749999999996 5.893 0 0 0
69 1 -4.791174999999999 2.223989444299999 2.7500698096 0 0 0
70 1 -4.791174999999999 6.6687249999999985 5.893 0 0 0
71 1 -2.8665249999999993 3.3351749999999996 3.5358 0 0 0
72 1 -2.8665249999999993 7.779903888600003 6.6787301904 0 0 0
73 1 -4.791174999999999 6.6687249999999985 3.5358 0 0 0
74 1 -4.791174999999999 4.446353888600001 6.6787301904 0 0 0
75 1 -6.715824999999999 5.5575394443000015 2.7500698096 0 0 0
76 1 -6.715824999999999 3.3351749999999996 5.893 0 0 0
77 1 -8.640474999999999 2.223989444299999 2.7500698096 0 0 0
78 1 -8.640474999999999 6.6687249999999985 5.893 0 0 0
79 1 -6.715824999999999 3.3351749999999996 3.5358 0 0 0
80 1 -6.715824999999999 7.779903888600003 6.6787301904 0 0 0
81 1 -8.640474999999999 6.6687249999999985 3.5358 0 0 0
82 1 -8.640474999999999 4.446353888600001 6.6787301904 0 0 0
83 1 -10.565125 3.3351749999999996 5.893 0 0 0
84 1 -12.489775 6.6687249999999985 5.893 0 0 0
85 1 -10.565125 3.3351749999999996 3.5358 0 0 0
86 1 -10.565125 7.779903888600003 6.6787301904 0 0 0
87 1 -12.489775 4.446353888600001 6.6787301904 0 0 0
88 1 -14.414425 3.3351749999999996 5.893 0 0 0
89 1 -14.414425 7.779903888600003 6.6787301904 0 0 0
90 1 -16.339075 4.446353888600001 6.6787301904 0 0 0
91 1 14.455325000000002 0.0016250000000006537 5.893 0 0 0
92 1 16.379975 1.1128038885999985 6.6787301904 0 0 0
93 1 14.455325000000002 -2.2207461114000004 6.6787301904 0 0 0
94 1 12.530675000000002 -3.3319249999999982 5.893 0 0 0
95 1 10.606025000000002 0.0016250000000006537 5.893 0 0 0
96 1 12.530675000000002 1.1128038885999985 6.6787301904 0 0 0
97 1 10.606025000000002 0.0016250000000006537 3.5358 0 0 0
98 1 10.606025000000002 -2.2207461114000004 6.6787301904 0 0 0
99 1 8.681375000000003 -1.1095605557 2.7500698096 0 0 0
100 1 8.681375000000003 -3.3319249999999982 5.893 0 0 0
101 1 6.756724999999999 -4.443110555699999 2.7500698096 0 0 0
102 1 6.756724999999999 0.0016250000000006537 5.893 0 0 0
103 1 8.681375000000003 -3.3319249999999982 3.5358 0 0 0
104 1 8.681375000000003 1.1128038885999985 6.6787301904 0 0 0
105 1 6.756724999999999 0.0016250000000006537 3.5358 0 0 0
106 1 6.756724999999999 -2.2207461114000004 6.6787301904 0 0 0
107 1 4.832075 -1.1095605557 2.7500698096 0 0 0
108 1 4.832075 -3.3319249999999982 5.893 0 0 0
109 1 2.907425 -4.443110555699999 2.7500698096 0 0 0
110 1 2.907425 0.0016250000000006537 5.893 0 0 0
111 1 4.832075 -3.3319249999999982 3.5358 0 0 0
112 1 4.832075 1.1128038885999985 6.6787301904 0 0 0
113 1 2.907425 0.0016250000000006537 3.5358 0 0 0
114 1 2.907425 -2.2207461114000004 6.6787301904 0 0 0
115 1 0.9827750000000002 -1.1095605557 2.7500698096 0 0 0
116 1 0.9827750000000002 -3.3319249999999982 5.893 0 0 0
117 1 -0.9418749999999996 -4.443110555699999 2.7500698096 0 0 0
118 1 -0.9418749999999996 0.0016250000000006537 5.893 0 0 0
119 1 0.9827750000000002 -1.1095605557 0.3928698096 0 0 0
120 1 0.9827750000000002 -3.3319249999999982 3.5358 0 0 0
121 1 0.9827750000000002 1.1128038885999985 6.6787301904 0 0 0
122 1 -0.9418749999999996 0.0016250000000006537 3.5358 0 0 0
123 1 -0.9418749999999996 -2.2207461114000004 6.6787301904 0 0 0
124 1 -2.8665249999999993 -1.1095605557 2.7500698096 0 0 0
125 1 -2.8665249999999993 -3.3319249999999982 5.893 0 0 0
126 1 -4.791174999999999 -4.443110555699999 2.7500698096 0 0 0
127 1 -4.791174999999999 0.0016250000000006537 5.893 0 0 0
128 1 -2.8665249999999993 -1.1095605557 0.3928698096 0 0 0
129 1 -2.8665249999999993 -3.3319249999999982 3.5358 0 0 0
130 1 -2.8665249999999993 1.1128038885999985 6.6787301904 0 0 0
131 1 -4.791174999999999 0.0016250000000006537 3.5358 0 0 0
132 1 -4.791174999999999 -2.2207461114000004 6.6787301904 0 0 0
133 1 -6.715824999999999 -1.1095605557 2.7500698096 0 0 0
134 1 -6.715824999999999 -3.3319249999999982 5.893 0 0 0
135 1 -8.640474999999999 -4.443110555699999 2.7500698096 0 0 0
136 1 -8.640474999999999 0.0016250000000006537 5.893 0 0 0
137 1 -6.715824999999999 -3.3319249999999982 3.5358 0 0 0
138 1 -6.715824999999999 1.1128038885999985 6.6787301904 0 0 0
139 1 -8.640474999999999 0.0016250000000006537 3.5358 0 0 0
140 1 -8.640474999999999 -2.2207461114000004 6.6787301904 0 0 0
141 1 -10.565125 -1.1095605557 2.7500698096 0 0 0
142 1 -10.565125 -3.3319249999999982 5.893 0 0 0
143 1 -12.489775 0.0016250000000006537 5.893 0 0 0
144 1 -10.565125 -3.3319249999999982 3.5358 0 0 0
145 1 -10.565125 1.1128038885999985 6.6787301904 0 0 0
146 1 -12.489775 0.0016250000000006537 3.5358 0 0 0
147 1 -12.489775 -2.2207461114000004 6.6787301904 0 0 0
148 1 -14.414425 -3.3319249999999982 5.893 0 0 0
149 1 -14.414425 1.1128038885999985 6.6787301904 0 0 0
150 1 -16.339075 -2.2207461114000004 6.6787301904 0 0 0
151 1 14.455325000000002 -6.665475000000001 5.893 0 0 0
152 1 14.455325000000002 -8.887846111399998 6.6787301904 0 0 0
153 1 12.530675000000002 -9.999025 5.893 0 0 0
154 1 10.606025000000002 -6.665475000000001 5.893 0 0 0
155 1 12.530675000000002 -5.554296111399999 6.6787301904 0 0 0
156 1 10.606025000000002 -6.665475000000001 3.5358 0 0 0
157 1 10.606025000000002 -8.887846111399998 6.6787301904 0 0 0
158 1 8.681375000000003 -9.999025 5.893 0 0 0
159 1 6.756724999999999 -6.665475000000001 5.893 0 0 0
160 1 8.681375000000003 -5.554296111399999 6.6787301904 0 0 0
161 1 6.756724999999999 -6.665475000000001 3.5358 0 0 0
162 1 6.756724999999999 -8.887846111399998 6.6787301904 0 0 0
163 1 4.832075 -7.776660555700001 2.7500698096 0 0 0
164 1 4.832075 -9.999025 5.893 0 0 0
165 1 2.907425 -6.665475000000001 5.893 0 0 0
166 1 4.832075 -9.999025 3.5358 0 0 0
167 1 4.832075 -5.554296111399999 6.6787301904 0 0 0
168 1 2.907425 -6.665475000000001 3.5358 0 0 0
169 1 2.907425 -8.887846111399998 6.6787301904 0 0 0
170 1 0.9827750000000002 -7.776660555700001 2.7500698096 0 0 0
171 1 0.9827750000000002 -9.999025 5.893 0 0 0
172 1 -0.9418749999999996 -11.1102105557 2.7500698096 0 0 0
173 1 -0.9418749999999996 -6.665475000000001 5.893 0 0 0
174 1 0.9827750000000002 -9.999025 3.5358 0 0 0
175 1 0.9827750000000002 -5.554296111399999 6.6787301904 0 0 0
176 1 -0.9418749999999996 -6.665475000000001 3.5358 0 0 0
177 1 -0.9418749999999996 -8.887846111399998 6.6787301904 0 0 0
178 1 -2.8665249999999993 -7.776660555700001 2.7500698096 0 0 0
179 1 -2.8665249999999993 -9.999025 5.893 0 0 0
180 1 -4.791174999999999 -6.665475000000001 5.893 0 0 0
181 1 -2.8665249999999993 -9.999025 3.5358 0 0 0
182 1 -2.8665249999999993 -5.554296111399999 6.6787301904 0 0 0
183 1 -4.791174999999999 -6.665475000000001 3.5358 0 0 0
184 1 -4.791174999999999 -8.887846111399998 6.6787301904 0 0 0
185 1 -6.715824999999999 -7.776660555700001 2.7500698096 0 0 0
186 1 -6.715824999999999 -9.999025 5.893 0 0 0
187 1 -8.640474999999999 -6.665475000000001 5.893 0 0 0
188 1 -6.715824999999999 -9.999025 3.5358 0 0 0
189 1 -6.715824999999999 -5.554296111399999 6.6787301904 0 0 0
190 1 -8.640474999999999 -6.665475000000001 3.5358 0 0 0
191 1 -8.640474999999999 -8.887846111399998 6.6787301904 0 0 0
192 1 -10.565125 -9.999025 5.893 0 0 0
193 1 -12.489775 -6.665475000000001 5.893 0 0 0
194 1 -10.565125 -5.554296111399999 6.6787301904 0 0 0
195 1 -10.565125 -12.2213961114 6.6787301904 0 0 0
196 1 -12.489775 -8.887846111399998 6.6787301904 0 0 0
197 1 -14.414425 -5.554296111399999 6.6787301904 0 0 0
198 1 6.756724999999999 -13.332575 5.893 0 0 0
199 1 8.681375000000003 -12.2213961114 6.6787301904 0 0 0
200 1 6.756724999999999 -15.5549461114 6.6787301904 0 0 0
201 1 2.907425 -13.332575 5.893 0 0 0
202 1 4.832075 -12.2213961114 6.6787301904 0 0 0
203 1 2.907425 -15.5549461114 6.6787301904 0 0 0
204 1 -0.9418749999999996 -13.332575 5.893 0 0 0
205 1 0.9827750000000002 -12.2213961114 6.6787301904 0 0 0
206 1 -0.9418749999999996 -15.5549461114 6.6787301904 0 0 0
207 1 -6.715824999999999 -12.2213961114 6.6787301904 0 0 0
208 1 -4.791174999999999 -13.332575 5.893 0 0 0
209 1 -2.8665249999999993 -12.2213961114 6.6787301904 0 0 0
210 1 -4.791174999999999 -15.5549461114 6.6787301904 0 0 0
211 1 -8.640474999999999 -13.332575 5.893 0 0 0

Velocities

1 0 0 0
2 0 0 0
3 0 0 0
4 0 0 0
5 0 0 0
6 0 0 0
7 0 0 0
8 0 0 0
9 0 0 0
10 0 0 0
11 0 0 0
12 0 0 0
13 0 0 0
14 0 0 0
15 0 0 0
16 0 0 0
17 0 0 0
18 0 0 0
19 0 0 0
20 0 0 0
21 0 0 0
22 0 0 0
23 0 0 0
24 0 0 0
25 0 0 0
26 0 0 0
27 0 0 0
28 0 0 0
29 0 0 0
30 0 0 0
31 0 0 0
32 0 0 0
33 0 0 0
34 0 0 0
35 0 0 0
36 0 0 0
37 0 0 0
38 0 0 0
39 0 0 0
40 0 0 0
41 0 0 0
42 0 0 0
43 0 0 0
44 0 0 0
45 0 0 0
46 0 0 0
47 0 0 0
48 0 0 0
49 0 0 0
50 0 0 0
51 0 0 0
52 0 0 0
53 0 0 0
54 0 0 0
55 0 0 0
56 0 0 0
57 0 0 0
58 0 0 0
59 0 0 0
60 0 0 0
61 0 0 0
62 0 0 0
63 0 0 0
64 0 0 0
65 0 0 0
66 0 0 0
67 0 0 0
68 0 0 0
69 0 0 0
70 0 0 0
71 0 0 0
72 0 0 0
73 0 0 0
74 0 0 0
75 0 0 0
76 0 0 0
77 0 0 0
78 0 0 0
79 0 0 0
80 0 0 0
81 0 0 0
82 0 0 0
83 0 0 0
84 0 0 0
85 0 0 0
86 0 0 0
87 0 0 0
88 0 0 0
89 0 0 0
90 0 0 0
91 0 0 0
92 0 0 0
93 0 0 0
94 0 0 0
95 0 0 0
96 0 0 0
97 0 0 0
98 0 0 0
99 0 0 0
100 0 0 0
101 0 0 0
102 0 0 0
103 0 0 0
104 0 0 0
105 0 0 0
106 0 0 0
107 0 0 0
108 0 0 0
109 0 0 0
110 0 0 0
111 0 0 0
112 0 0 0
113 0 0 0
114 0 0 0
115 0 0 0
116 0 0 0
117 0 0 0
118 0 0 0
119 0 0 0
120 0 0 0
121 0 0 0
122 0 0 0
123 0 0 0
124 0 0 0
125 0 0 0
126 0 0 0
127 0 0 0
128 0 0 0
129 0 0 0
130 0 0 0
131 0 0 0
132 0 0 0
133 0 0 0
134 0 0 0
135 0 0 0
136 0 0 0
137 0 0 0
138 0 0 0
139 0 0 0
140 0 0 0
141 0 0 0
142 0 0 0
143 0 0 0
144 0 0 0
145 0 0 0
146 0 0 0
147 0 0 0
148 0 0 0
149 0 0 0
150 0 0 0
151 0 0 0
152 0 0 0
153 0 0 0
154 0 0 0
155 0 0 0
156 0 0 0
157 0 0 0
158 0 0 0
159 0 0 0
160 0 0 0
161 0 0 0
162 0 0 0
163 0 0 0
164 0 0 0
165 0 0 0
166 0 0 0
167 0 0 0
168 0 0 0
169 0 0 0
170 0 0 0
171 0 0 0
172 0 0 0
173 0 0 0
174 0 0 0
175 0 0 0
176 0 0 0
177 0 0 0
178 0 0 0
179 0 0 0
180 0 0 0
181 0 0 0
182 0 0 0
183 0 0 0
184 0 0 0
185 0 0 0
186 0 0 0
187 0 0 0
188 0 0 0
189 0 0 0
190 0 0 0
191 0 0 0
192 0 0 0
193 0 0 0
194 0 0 0
195 0 0 0
196 0 0 0
197 0 0 0
198 0 0 0
199 0 0 0
200 0 0 0
201 0 0 0
202 0 0 0
203 0 0 0
204 0 0 0
205 0 0 0
206 0 0 0
207 0 0 0
208 0 0 0
209 0 0 0
210 0 0 0
211 0 0 0
