LAMMPS data file via write_data, version 29 Aug 2024, timestep = 2, units = metal

8064 atoms
12 atom types

0 98.032971034464 xlo xhi
0 99.048883878364 ylo yhi
-50 50 zlo zhi

Masses

1 114.818
2 114.818
3 114.818
4 114.818
5 114.818
6 114.818
7 78.971
8 78.971
9 78.971
10 78.971
11 78.971
12 78.971

Atoms # atomic

1445 7 2.0422979307250024 1.179266295726587 -0.009023004320680157 0 0 0
1441 1 4.084629168867985 2.3584777003777666 1.2790473843706924 0 0 0
1454 7 4.084651493943006 4.716726434239584 -0.009023004320681852 0 0 0
1453 7 6.1270050571610035 1.1792662957265843 -0.00902300432068248 0 0 0
1461 7 10.211712183597001 1.1792662957265856 -0.009023004320681236 0 0 0
1449 1 8.16933629530398 2.3584777003777675 1.2790473843706938 0 0 0
1462 7 8.169358620379002 4.716726434239583 -0.009023004320683191 0 0 0
1469 7 14.296419310033002 1.179266295726586 -0.00902300432068078 0 0 0
1457 1 12.25404342173998 2.358477700377766 1.2790473843706922 0 0 0
1465 1 16.33875054817598 2.358477700377766 1.279047384370692 0 0 0
1470 7 12.254065746815002 4.716726434239585 -0.00902300432068177 0 0 0
1478 7 16.338772873251003 4.716726434239585 -0.009023004320681057 0 0 0
1477 7 18.381126436469003 1.1792662957265856 -0.009023004320681363 0 0 0
1485 7 22.465833562905004 1.1792662957265856 -0.009023004320681318 0 0 0
1473 1 20.42345767461198 2.358477700377766 1.2790473843706922 0 0 0
1486 7 20.423479999687004 4.716726434239585 -0.009023004320681611 0 0 0
1493 7 26.550540689341005 1.1792662957265856 -0.009023004320681318 0 0 0
1481 1 24.508164801047982 2.358477700377766 1.2790473843706922 0 0 0
1489 1 28.592871927483984 2.358477700377766 1.279047384370692 0 0 0
1494 7 24.508187126123005 4.716726434239585 -0.009023004320681611 0 0 0
1502 7 28.592894252559006 4.716726434239585 -0.00902300432068161 0 0 0
1501 7 30.635247815777007 1.1792662957265847 -0.009023004320682336 0 0 0
1497 1 32.677579053919985 2.358477700377766 1.279047384370692 0 0 0
1510 7 32.67760137899501 4.716726434239584 -0.00902300432068261 0 0 0
1509 7 34.71995494221301 1.1792662957265856 -0.00902300432068128 0 0 0
1517 7 38.80466206864901 1.1792662957265856 -0.009023004320681276 0 0 0
1505 1 36.762286180355986 2.358477700377766 1.279047384370692 0 0 0
1518 7 36.76230850543101 4.716726434239585 -0.009023004320681543 0 0 0
1525 7 42.88936919508501 1.1792662957265856 -0.009023004320681378 0 0 0
1513 1 40.84699330679199 2.358477700377766 1.279047384370692 0 0 0
1521 1 44.93170043322799 2.3584777003777653 1.279047384370691 0 0 0
1526 7 40.84701563186701 4.716726434239585 -0.009023004320681535 0 0 0
1534 7 44.931722758303 4.716726434239583 -0.009023004320684203 0 0 0
1533 7 46.974076321521004 1.1792662957265838 -0.009023004320683143 0 0 0
1349 7 51.058783447957005 1.1792662957265863 -0.009023004320680046 -1 0 0
1529 1 49.01640755966398 2.358477700377767 1.2790473843706933 0 0 0
1350 7 49.016429884739004 4.716726434239586 -0.009023004320680945 -1 0 0
1357 7 55.143490574393 1.179266295726584 -0.009023004320682902 -1 0 0
1345 1 53.101114686099976 2.358477700377768 1.2790473843706944 -1 0 0
1353 1 57.18582181253598 2.358477700377766 1.279047384370692 -1 0 0
1358 7 53.101137011175 4.716726434239583 -0.009023004320683346 -1 0 0
1366 7 57.185844137611 4.716726434239585 -0.00902300432068155 -1 0 0
1365 7 59.228197700829 1.1792662957265856 -0.009023004320681283 -1 0 0
1373 7 63.312904827265 1.1792662957265876 -0.009023004320678929 -1 0 0
1361 1 61.27052893897198 2.358477700377766 1.279047384370692 -1 0 0
1374 7 61.270551264047 4.716726434239585 -0.009023004320681535 -1 0 0
1381 7 67.397611953701 1.1792662957265858 -0.0090230043206811 -1 0 0
1369 1 65.35523606540798 2.358477700377766 1.279047384370692 -1 0 0
1382 7 65.355258390483 4.716726434239587 -0.009023004320679413 -1 0 0
1389 7 71.482319080137 1.1792662957265858 -0.0090230043206811 -1 0 0
1377 1 69.43994319184398 2.358477700377766 1.279047384370692 -1 0 0
1385 1 73.52465031827998 2.358477700377766 1.279047384370692 -1 0 0
1390 7 69.439965516919 4.716726434239585 -0.009023004320681574 -1 0 0
1398 7 73.524672643355 4.716726434239585 -0.009023004320681574 -1 0 0
1397 7 75.567026206573 1.1792662957265858 -0.009023004320681099 -1 0 0
1405 7 79.651733333009 1.179266295726582 -0.009023004320684251 -1 0 0
1393 1 77.60935744471598 2.358477700377766 1.2790473843706915 -1 0 0
1406 7 77.609379769791 4.716726434239582 -0.009023004320685106 -1 0 0
1413 7 83.73644045944499 1.1792662957265863 -0.009023004320680327 -1 0 0
1401 1 81.69406457115198 2.3584777003777657 1.279047384370692 -1 0 0
1409 1 85.77877169758798 2.358477700377766 1.279047384370692 -1 0 0
1414 7 81.69408689622699 4.716726434239586 -0.009023004320680966 -1 0 0
1422 7 85.77879402266299 4.716726434239585 -0.009023004320681791 -1 0 0
1421 7 87.821147585881 1.1792662957265856 -0.009023004320681313 -1 0 0
1429 7 91.905854712317 1.1792662957265856 -0.009023004320681323 -1 0 0
1417 1 89.86347882402399 2.358477700377766 1.2790473843706922 -1 0 0
1430 7 89.863501149099 4.716726434239585 -0.009023004320681796 -1 0 0
1446 7 98.032915401971 4.716726434239587 -0.00902300432068071 -1 0 0
1437 7 95.990561838753 1.1792662957265856 -0.009023004320681264 -1 0 0
1425 1 93.94818595045999 2.358477700377766 1.2790473843706915 -1 0 0
1433 1 98.03289307689599 2.358477700377765 1.279047384370692 -1 0 0
1438 7 93.948208275535 4.716726434239585 -0.009023004320681755 -1 0 0
1442 1 2.042275605649985 5.895937838890766 1.2790473843706915 0 0 0
1637 7 2.0422979307250024 8.25418657275259 -0.009023004320679128 0 0 0
1633 1 4.084629168867985 9.433397977403768 1.2790473843706922 0 0 0
1450 1 6.126982732085982 5.8959378388907675 1.2790473843706924 0 0 0
1458 1 10.211689858521979 5.895937838890767 1.2790473843706915 0 0 0
1645 7 6.1270050571610035 8.254186572752586 -0.009023004320681342 0 0 0
1653 7 10.211712183597001 8.254186572752587 -0.009023004320680652 0 0 0
1641 1 8.16933629530398 9.433397977403768 1.279047384370693 0 0 0
1466 1 14.29639698495798 5.895937838890767 1.2790473843706904 0 0 0
1661 7 14.296419310033002 8.254186572752587 -0.009023004320679377 0 0 0
1649 1 12.25404342173998 9.433397977403768 1.2790473843706922 0 0 0
1657 1 16.33875054817598 9.433397977403766 1.279047384370691 0 0 0
1474 1 18.38110411139398 5.895937838890767 1.279047384370691 0 0 0
1482 1 22.465811237829982 5.895937838890767 1.2790473843706909 0 0 0
1669 7 18.381126436469003 8.254186572752587 -0.00902300432067995 0 0 0
1677 7 22.465833562905004 8.254186572752587 -0.009023004320679918 0 0 0
1665 1 20.42345767461198 9.433397977403766 1.279047384370692 0 0 0
1490 1 26.550518364265983 5.895937838890767 1.2790473843706909 0 0 0
1685 7 26.550540689341005 8.254186572752587 -0.009023004320679918 0 0 0
1673 1 24.508164801047982 9.433397977403766 1.279047384370692 0 0 0
1681 1 28.592871927483984 9.433397977403766 1.279047384370692 0 0 0
1498 1 30.635225490701984 5.895937838890767 1.2790473843706909 0 0 0
1693 7 30.635247815777007 8.254186572752586 -0.00902300432068095 0 0 0
1689 1 32.677579053919985 9.433397977403766 1.279047384370692 0 0 0
1506 1 34.719932617137985 5.895937838890767 1.2790473843706909 0 0 0
1514 1 38.804639743573986 5.895937838890767 1.2790473843706909 0 0 0
1701 7 34.71995494221301 8.254186572752587 -0.009023004320679928 0 0 0
1709 7 38.80466206864901 8.254186572752587 -0.00902300432067993 0 0 0
1697 1 36.762286180355986 9.433397977403766 1.279047384370692 0 0 0
1522 1 42.88934687000999 5.895937838890766 1.2790473843706902 0 0 0
1717 7 42.88936919508501 8.254186572752587 -0.009023004320680223 0 0 0
1705 1 40.84699330679199 9.433397977403766 1.279047384370692 0 0 0
1713 1 44.93170043322799 9.433397977403766 1.279047384370691 0 0 0
1530 1 46.97405399644598 5.8959378388907675 1.2790473843706922 0 0 0
1346 1 51.058761122881975 5.895937838890768 1.279047384370693 -1 0 0
1725 7 46.974076321521004 8.254186572752586 -0.009023004320682669 0 0 0
1541 7 51.058783447957005 8.254186572752587 -0.009023004320679578 -1 0 0
1721 1 49.01640755966398 9.433397977403768 1.2790473843706929 0 0 0
1354 1 55.143468249317976 5.895937838890767 1.2790473843706907 -1 0 0
1549 7 55.143490574393 8.254186572752586 -0.00902300432068208 -1 0 0
1537 1 53.101114686099976 9.43339797740377 1.2790473843706947 -1 0 0
1545 1 57.18582181253598 9.433397977403766 1.279047384370692 -1 0 0
1362 1 59.22817537575398 5.895937838890767 1.2790473843706909 -1 0 0
1370 1 63.31288250218998 5.895937838890767 1.2790473843706904 -1 0 0
1557 7 59.228197700829 8.254186572752587 -0.009023004320679932 -1 0 0
1565 7 63.312904827265 8.25418657275259 -0.009023004320677742 -1 0 0
1553 1 61.27052893897198 9.433397977403766 1.279047384370691 -1 0 0
1378 1 67.39758962862598 5.895937838890767 1.279047384370691 -1 0 0
1573 7 67.397611953701 8.254186572752587 -0.009023004320679923 -1 0 0
1561 1 65.35523606540798 9.433397977403766 1.2790473843706922 -1 0 0
1386 1 71.48229675506198 5.895937838890767 1.2790473843706909 -1 0 0
1581 7 71.482319080137 8.254186572752587 -0.009023004320679923 -1 0 0
1569 1 69.43994319184398 9.433397977403766 1.279047384370692 -1 0 0
1577 1 73.52465031827998 9.433397977403766 1.279047384370692 -1 0 0
1394 1 75.56700388149798 5.895937838890767 1.2790473843706909 -1 0 0
1402 1 79.65171100793398 5.895937838890767 1.2790473843706907 -1 0 0
1589 7 75.567026206573 8.254186572752587 -0.009023004320679926 -1 0 0
1597 7 79.651733333009 8.254186572752584 -0.009023004320684034 -1 0 0
1585 1 77.60935744471598 9.433397977403768 1.2790473843706918 -1 0 0
1410 1 83.73641813436998 5.895937838890767 1.279047384370691 -1 0 0
1605 7 83.73644045944499 8.254186572752587 -0.009023004320679161 -1 0 0
1593 1 81.69406457115198 9.433397977403766 1.2790473843706918 -1 0 0
1601 1 85.77877169758798 9.433397977403768 1.2790473843706924 -1 0 0
1418 1 87.82112526080599 5.895937838890767 1.279047384370691 -1 0 0
1426 1 91.90583238724199 5.895937838890767 1.27904738437069 -1 0 0
1613 7 87.821147585881 8.254186572752587 -0.009023004320680306 -1 0 0
1621 7 91.905854712317 8.254186572752587 -0.009023004320680286 -1 0 0
1609 1 89.86347882402399 9.433397977403768 1.2790473843706924 -1 0 0
1434 1 95.99053951367799 5.895937838890766 1.2790473843706902 -1 0 0
1629 7 95.990561838753 8.254186572752586 -0.009023004320680268 -1 0 0
1617 1 93.94818595045999 9.433397977403768 1.2790473843706913 -1 0 0
1625 1 98.03289307689599 9.433397977403766 1.2790473843706915 -1 0 0
1646 7 4.084651493943006 11.791646711265589 -0.009023004320681866 0 0 0
1634 1 2.042275605649985 12.970858115916768 1.2790473843706913 0 0 0
1829 7 2.042297930725002 15.32910684977859 -0.009023004320679926 0 0 0
1825 1 4.084629168867985 16.50831825442977 1.2790473843706915 0 0 0
1654 7 8.169358620379002 11.791646711265587 -0.009023004320682966 0 0 0
1642 1 6.126982732085982 12.97085811591677 1.279047384370693 0 0 0
1650 1 10.211689858521979 12.97085811591677 1.2790473843706915 0 0 0
1837 7 6.127005057161004 15.32910684977859 -0.009023004320681965 0 0 0
1833 1 8.16933629530398 16.50831825442977 1.2790473843706938 0 0 0
1845 7 10.211712183597 15.32910684977859 -0.00902300432068047 0 0 0
1662 7 12.254065746815002 11.791646711265589 -0.00902300432068196 0 0 0
1670 7 16.338772873251003 11.791646711265589 -0.009023004320681243 0 0 0
1658 1 14.29639698495798 12.97085811591677 1.2790473843706907 0 0 0
1841 1 12.25404342173998 16.50831825442977 1.2790473843706913 0 0 0
1853 7 14.296419310033002 15.329106849778588 -0.009023004320680088 0 0 0
1849 1 16.33875054817598 16.50831825442977 1.279047384370691 0 0 0
1678 7 20.423479999687004 11.791646711265589 -0.009023004320681727 0 0 0
1666 1 18.38110411139398 12.97085811591677 1.2790473843706909 0 0 0
1674 1 22.465811237829982 12.97085811591677 1.2790473843706909 0 0 0
1861 7 18.381126436469003 15.329106849778588 -0.009023004320680695 0 0 0
1857 1 20.42345767461198 16.50831825442977 1.2790473843706913 0 0 0
1869 7 22.465833562905004 15.329106849778588 -0.009023004320680655 0 0 0
1686 7 24.508187126123005 11.791646711265589 -0.009023004320681727 0 0 0
1694 7 28.592894252559006 11.791646711265589 -0.009023004320681727 0 0 0
1682 1 26.550518364265983 12.97085811591677 1.2790473843706909 0 0 0
1865 1 24.508164801047982 16.50831825442977 1.2790473843706913 0 0 0
1877 7 26.550540689341005 15.329106849778588 -0.009023004320680655 0 0 0
1873 1 28.592871927483984 16.50831825442977 1.2790473843706913 0 0 0
1702 7 32.67760137899501 11.791646711265587 -0.009023004320682756 0 0 0
1690 1 30.635225490701984 12.97085811591677 1.2790473843706909 0 0 0
1885 7 30.635247815777007 15.329106849778588 -0.009023004320681666 0 0 0
1881 1 32.677579053919985 16.50831825442977 1.2790473843706913 0 0 0
1710 7 36.76230850543101 11.791646711265589 -0.009023004320681743 0 0 0
1698 1 34.719932617137985 12.97085811591677 1.2790473843706909 0 0 0
1706 1 38.804639743573986 12.97085811591677 1.2790473843706909 0 0 0
1893 7 34.71995494221301 15.329106849778588 -0.009023004320680612 0 0 0
1889 1 36.762286180355986 16.50831825442977 1.2790473843706913 0 0 0
1901 7 38.80466206864901 15.329106849778588 -0.009023004320680612 0 0 0
1718 7 40.84701563186701 11.791646711265589 -0.00902300432068188 0 0 0
1726 7 44.931722758303 11.791646711265587 -0.009023004320684203 0 0 0
1714 1 42.88934687000999 12.970858115916768 1.27904738437069 0 0 0
1897 1 40.84699330679199 16.50831825442977 1.2790473843706913 0 0 0
1909 7 42.88936919508501 15.329106849778588 -0.009023004320680738 0 0 0
1905 1 44.93170043322799 16.50831825442977 1.2790473843706909 0 0 0
1542 7 49.016429884739004 11.791646711265589 -0.009023004320680391 -1 0 0
1722 1 46.97405399644599 12.97085811591677 1.2790473843706924 0 0 0
1538 1 51.058761122881975 12.97085811591677 1.2790473843706929 -1 0 0
1917 7 46.974076321521004 15.329106849778588 -0.00902300432068304 0 0 0
1913 1 49.01640755966398 16.50831825442977 1.2790473843706922 0 0 0
1733 7 51.058783447957005 15.329106849778592 -0.009023004320679151 -1 0 0
1550 7 53.101137011175 11.791646711265587 -0.00902300432068321 -1 0 0
1558 7 57.185844137611 11.791646711265589 -0.00902300432068175 -1 0 0
1546 1 55.143468249317976 12.97085811591677 1.2790473843706909 -1 0 0
1729 1 53.101114686099976 16.508318254429774 1.2790473843706938 -1 0 0
1741 7 55.143490574393 15.329106849778588 -0.009023004320681916 -1 0 0
1737 1 57.18582181253598 16.50831825442977 1.2790473843706913 -1 0 0
1566 7 61.270551264047 11.791646711265589 -0.009023004320681746 -1 0 0
1554 1 59.22817537575398 12.97085811591677 1.2790473843706909 -1 0 0
1562 1 63.31288250218998 12.97085811591677 1.2790473843706907 -1 0 0
1749 7 59.228197700829 15.329106849778588 -0.00902300432068061 -1 0 0
1745 1 61.27052893897198 16.50831825442977 1.279047384370691 -1 0 0
1757 7 63.312904827265 15.32910684977859 -0.009023004320678454 -1 0 0
1574 7 65.355258390483 11.79164671126559 -0.009023004320679592 -1 0 0
1570 1 67.39758962862598 12.97085811591677 1.2790473843706909 -1 0 0
1753 1 65.35523606540798 16.50831825442977 1.2790473843706915 -1 0 0
1765 7 67.397611953701 15.329106849778588 -0.009023004320680653 -1 0 0
1582 7 69.439965516919 11.791646711265589 -0.009023004320681727 -1 0 0
1590 7 73.524672643355 11.791646711265589 -0.00902300432068173 -1 0 0
1578 1 71.48229675506198 12.97085811591677 1.2790473843706909 -1 0 0
1761 1 69.43994319184398 16.50831825442977 1.2790473843706913 -1 0 0
1773 7 71.482319080137 15.329106849778588 -0.009023004320680653 -1 0 0
1769 1 73.52465031827998 16.50831825442977 1.2790473843706913 -1 0 0
1598 7 77.609379769791 11.791646711265585 -0.00902300432068551 -1 0 0
1586 1 75.56700388149798 12.97085811591677 1.2790473843706909 -1 0 0
1594 1 79.65171100793398 12.970858115916768 1.2790473843706904 -1 0 0
1781 7 75.567026206573 15.329106849778588 -0.009023004320680659 -1 0 0
1777 1 77.60935744471598 16.50831825442977 1.279047384370691 -1 0 0
1789 7 79.651733333009 15.329106849778587 -0.009023004320684208 -1 0 0
1606 7 81.69408689622699 11.791646711265589 -0.009023004320681158 -1 0 0
1614 7 85.77879402266299 11.791646711265589 -0.009023004320682121 -1 0 0
1602 1 83.73641813436998 12.97085811591677 1.2790473843706913 -1 0 0
1785 1 81.69406457115198 16.50831825442977 1.279047384370691 -1 0 0
1797 7 83.73644045944499 15.32910684977859 -0.009023004320679581 -1 0 0
1793 1 85.77877169758798 16.50831825442977 1.2790473843706915 -1 0 0
1622 7 89.863501149099 11.791646711265589 -0.009023004320682128 -1 0 0
1610 1 87.82112526080599 12.97085811591677 1.2790473843706913 -1 0 0
1618 1 91.90583238724199 12.97085811591677 1.2790473843706902 -1 0 0
1805 7 87.821147585881 15.329106849778588 -0.009023004320680648 -1 0 0
1801 1 89.86347882402399 16.50831825442977 1.2790473843706913 -1 0 0
1813 7 91.905854712317 15.329106849778588 -0.00902300432068062 -1 0 0
1638 7 98.032915401971 11.79164671126559 -0.009023004320680674 -1 0 0
1630 7 93.948208275535 11.791646711265589 -0.00902300432068208 -1 0 0
1626 1 95.99053951367799 12.970858115916768 1.27904738437069 -1 0 0
1809 1 93.94818595045999 16.50831825442977 1.2790473843706902 -1 0 0
1821 7 95.990561838753 15.329106849778588 -0.0090230043206806 -1 0 0
1817 1 98.03289307689599 16.508318254429767 1.2790473843706913 -1 0 0
1838 7 4.0846514939430065 18.866566988291588 -0.009023004320681488 0 0 0
1826 1 2.042275605649985 20.04577839294277 1.2790473843706929 0 0 0
2021 7 2.0422979307250024 22.40402712680459 -0.009023004320680952 0 0 0
1846 7 8.169358620379 18.86656698829159 -0.00902300432068389 0 0 0
1834 1 6.126982732085983 20.04577839294277 1.2790473843706938 0 0 0
1842 1 10.211689858521979 20.04577839294277 1.2790473843706918 0 0 0
2029 7 6.127005057161004 22.40402712680459 -0.009023004320683748 0 0 0
2037 7 10.211712183597 22.404027126804586 -0.009023004320681247 0 0 0
1854 7 12.254065746815002 18.866566988291588 -0.00902300432068192 0 0 0
1862 7 16.338772873251003 18.866566988291588 -0.009023004320681465 0 0 0
1850 1 14.29639698495798 20.045778392942772 1.2790473843706918 0 0 0
2045 7 14.296419310033002 22.404027126804586 -0.00902300432068133 0 0 0
1870 7 20.423479999687004 18.866566988291588 -0.009023004320682001 0 0 0
1858 1 18.38110411139398 20.045778392942772 1.279047384370692 0 0 0
1866 1 22.465811237829982 20.045778392942772 1.279047384370692 0 0 0
2053 7 18.381126436469003 22.404027126804586 -0.009023004320681932 0 0 0
2061 7 22.465833562905004 22.404027126804586 -0.009023004320681897 0 0 0
1878 7 24.508187126123005 18.866566988291588 -0.009023004320682001 0 0 0
1886 7 28.592894252559006 18.866566988291588 -0.009023004320682001 0 0 0
1874 1 26.550518364265983 20.045778392942772 1.279047384370692 0 0 0
2069 7 26.550540689341005 22.404027126804586 -0.009023004320681897 0 0 0
1894 7 32.67760137899501 18.866566988291588 -0.009023004320683016 0 0 0
1882 1 30.635225490701984 20.045778392942772 1.279047384370692 0 0 0
2077 7 30.635247815777007 22.404027126804586 -0.009023004320682922 0 0 0
1902 7 36.76230850543101 18.866566988291588 -0.00902300432068198 0 0 0
1890 1 34.719932617137985 20.045778392942772 1.279047384370692 0 0 0
1898 1 38.804639743573986 20.045778392942772 1.279047384370692 0 0 0
2085 7 34.71995494221301 22.404027126804586 -0.009023004320681878 0 0 0
2093 7 38.80466206864901 22.404027126804586 -0.009023004320681878 0 0 0
1910 7 40.84701563186701 18.866566988291588 -0.009023004320681935 0 0 0
1918 7 44.931722758303 18.866566988291588 -0.009023004320683812 0 0 0
1906 1 42.88934687000999 20.04577839294277 1.2790473843706907 0 0 0
2101 7 42.88936919508501 22.404027126804586 -0.009023004320682189 0 0 0
1734 7 49.016429884739004 18.86656698829159 -0.009023004320680917 -1 0 0
1914 1 46.97405399644598 20.04577839294277 1.2790473843706938 0 0 0
1730 1 51.058761122881975 20.045778392942772 1.2790473843706938 -1 0 0
2109 7 46.974076321521004 22.40402712680459 -0.0090230043206846 0 0 0
1925 7 51.058783447957005 22.40402712680459 -0.009023004320680764 -1 0 0
1742 7 53.101137011175 18.866566988291588 -0.00902300432068413 -1 0 0
1750 7 57.185844137611 18.866566988291588 -0.009023004320681982 -1 0 0
1738 1 55.143468249317976 20.045778392942772 1.279047384370692 -1 0 0
1933 7 55.143490574393 22.404027126804586 -0.009023004320682928 -1 0 0
1758 7 61.270551264047 18.866566988291588 -0.009023004320681979 -1 0 0
1746 1 59.22817537575398 20.045778392942772 1.279047384370692 -1 0 0
1754 1 63.31288250218998 20.045778392942772 1.2790473843706918 -1 0 0
1941 7 59.228197700829 22.404027126804586 -0.009023004320681873 -1 0 0
1949 7 63.312904827265 22.40402712680459 -0.009023004320679703 -1 0 0
1766 7 65.355258390483 18.86656698829159 -0.009023004320679819 -1 0 0
1762 1 67.39758962862598 20.045778392942772 1.279047384370692 -1 0 0
1957 7 67.397611953701 22.404027126804586 -0.009023004320681701 -1 0 0
1774 7 69.439965516919 18.866566988291588 -0.009023004320681807 -1 0 0
1782 7 73.524672643355 18.866566988291588 -0.009023004320681809 -1 0 0
1770 1 71.48229675506198 20.04577839294277 1.2790473843706918 -1 0 0
1965 7 71.482319080137 22.404027126804586 -0.009023004320681701 -1 0 0
1790 7 77.609379769791 18.866566988291584 -0.009023004320685174 -1 0 0
1778 1 75.56700388149798 20.04577839294277 1.2790473843706918 -1 0 0
1786 1 79.65171100793398 20.04577839294277 1.2790473843706915 -1 0 0
1973 7 75.567026206573 22.404027126804586 -0.009023004320681705 -1 0 0
1981 7 79.651733333009 22.404027126804586 -0.0090230043206859 -1 0 0
1798 7 81.69408689622699 18.86656698829159 -0.009023004320681724 -1 0 0
1806 7 85.77879402266299 18.866566988291588 -0.00902300432068202 -1 0 0
1794 1 83.73641813436998 20.045778392942772 1.279047384370692 -1 0 0
1989 7 83.73644045944499 22.404027126804586 -0.009023004320680787 -1 0 0
1814 7 89.863501149099 18.866566988291588 -0.009023004320682012 -1 0 0
1802 1 87.82112526080599 20.045778392942772 1.279047384370692 -1 0 0
1810 1 91.90583238724199 20.045778392942772 1.279047384370691 -1 0 0
1997 7 87.821147585881 22.404027126804586 -0.009023004320681914 -1 0 0
2005 7 91.905854712317 22.404027126804586 -0.009023004320681908 -1 0 0
1830 7 98.032915401971 18.86656698829159 -0.009023004320681037 -1 0 0
1822 7 93.948208275535 18.866566988291588 -0.009023004320681965 -1 0 0
1818 1 95.99053951367799 20.04577839294277 1.279047384370691 -1 0 0
2013 7 95.990561838753 22.404027126804586 -0.009023004320681875 -1 0 0
2017 1 4.084629168867985 23.583238531455766 1.2790473843706915 0 0 0
2018 1 2.042275605649985 27.120698669968764 1.2790473843706929 0 0 0
2030 7 4.0846514939430065 25.941487265317583 -0.00902300432068128 0 0 0
2025 1 8.16933629530398 23.583238531455766 1.279047384370694 0 0 0
2026 1 6.126982732085983 27.120698669968764 1.2790473843706938 0 0 0
2038 7 8.169358620379 25.941487265317587 -0.009023004320683627 0 0 0
2034 1 10.211689858521979 27.120698669968768 1.2790473843706918 0 0 0
2033 1 12.25404342173998 23.58323853145577 1.279047384370692 0 0 0
2041 1 16.33875054817598 23.58323853145577 1.2790473843706913 0 0 0
2046 7 12.254065746815002 25.941487265317583 -0.009023004320681878 0 0 0
2042 1 14.29639698495798 27.120698669968768 1.2790473843706913 0 0 0
2054 7 16.338772873251003 25.941487265317583 -0.009023004320681417 0 0 0
2049 1 20.42345767461198 23.58323853145577 1.279047384370692 0 0 0
2050 1 18.38110411139398 27.120698669968768 1.2790473843706924 0 0 0
2062 7 20.423479999687004 25.941487265317583 -0.009023004320681953 0 0 0
2058 1 22.465811237829982 27.120698669968768 1.2790473843706922 0 0 0
2057 1 24.508164801047982 23.58323853145577 1.279047384370692 0 0 0
2065 1 28.592871927483984 23.58323853145577 1.279047384370692 0 0 0
2070 7 24.508187126123005 25.941487265317583 -0.009023004320681953 0 0 0
2066 1 26.550518364265983 27.120698669968768 1.2790473843706922 0 0 0
2078 7 28.592894252559006 25.941487265317583 -0.009023004320681953 0 0 0
2073 1 32.677579053919985 23.58323853145577 1.279047384370692 0 0 0
2074 1 30.635225490701984 27.120698669968768 1.2790473843706922 0 0 0
2086 7 32.67760137899501 25.941487265317583 -0.00902300432068296 0 0 0
2081 1 36.762286180355986 23.58323853145577 1.279047384370692 0 0 0
2082 1 34.719932617137985 27.120698669968768 1.2790473843706922 0 0 0
2094 7 36.76230850543101 25.941487265317583 -0.009023004320681923 0 0 0
2090 1 38.804639743573986 27.120698669968768 1.2790473843706922 0 0 0
2089 1 40.84699330679199 23.58323853145577 1.279047384370692 0 0 0
2097 1 44.93170043322799 23.583238531455766 1.2790473843706913 0 0 0
2102 7 40.84701563186701 25.941487265317583 -0.009023004320681876 0 0 0
2098 1 42.88934687000999 27.120698669968764 1.2790473843706909 0 0 0
2110 7 44.931722758303 25.941487265317583 -0.009023004320683585 0 0 0
2105 1 49.01640755966398 23.58323853145577 1.2790473843706922 0 0 0
2106 1 46.97405399644598 27.120698669968764 1.2790473843706938 0 0 0
1926 7 49.016429884739004 25.941487265317587 -0.009023004320680683 -1 0 0
1922 1 51.058761122881975 27.120698669968768 1.2790473843706935 -1 0 0
1921 1 53.101114686099976 23.58323853145577 1.2790473843706942 -1 0 0
1929 1 57.18582181253598 23.583238531455766 1.279047384370692 -1 0 0
1934 7 53.101137011175 25.941487265317583 -0.009023004320683863 -1 0 0
1930 1 55.143468249317976 27.120698669968768 1.2790473843706922 -1 0 0
1942 7 57.185844137611 25.941487265317583 -0.009023004320681923 -1 0 0
1937 1 61.27052893897198 23.58323853145577 1.2790473843706913 -1 0 0
1938 1 59.22817537575398 27.120698669968768 1.2790473843706922 -1 0 0
1950 7 61.270551264047 25.941487265317583 -0.00902300432068192 -1 0 0
1946 1 63.31288250218998 27.120698669968768 1.2790473843706915 -1 0 0
1945 1 65.35523606540798 23.583238531455766 1.279047384370692 -1 0 0
1958 7 65.355258390483 25.941487265317587 -0.009023004320679562 -1 0 0
1954 1 67.39758962862598 27.120698669968768 1.2790473843706922 -1 0 0
1953 1 69.43994319184398 23.583238531455766 1.279047384370692 -1 0 0
1961 1 73.52465031827998 23.583238531455766 1.279047384370692 -1 0 0
1966 7 69.439965516919 25.941487265317583 -0.009023004320681722 -1 0 0
1962 1 71.48229675506198 27.120698669968768 1.279047384370692 -1 0 0
1974 7 73.524672643355 25.941487265317583 -0.009023004320681722 -1 0 0
1969 1 77.60935744471598 23.58323853145577 1.2790473843706918 -1 0 0
1970 1 75.56700388149798 27.120698669968768 1.279047384370692 -1 0 0
1982 7 77.609379769791 25.94148726531758 -0.00902300432068489 -1 0 0
1978 1 79.65171100793398 27.120698669968768 1.2790473843706915 -1 0 0
1977 1 81.69406457115198 23.583238531455766 1.2790473843706918 -1 0 0
1985 1 85.77877169758798 23.58323853145577 1.279047384370692 -1 0 0
1990 7 81.69408689622699 25.941487265317587 -0.009023004320681437 -1 0 0
1986 1 83.73641813436998 27.120698669968768 1.2790473843706922 -1 0 0
1998 7 85.77879402266299 25.941487265317583 -0.009023004320681925 -1 0 0
1993 1 89.86347882402399 23.58323853145577 1.279047384370692 -1 0 0
1994 1 87.82112526080599 27.120698669968768 1.2790473843706922 -1 0 0
2006 7 89.863501149099 25.941487265317583 -0.00902300432068194 -1 0 0
2002 1 91.90583238724199 27.120698669968768 1.2790473843706913 -1 0 0
2022 7 98.032915401971 25.941487265317587 -0.009023004320680792 -1 0 0
2001 1 93.94818595045999 23.58323853145577 1.279047384370691 -1 0 0
2009 1 98.03289307689599 23.583238531455766 1.2790473843706922 -1 0 0
2014 7 93.948208275535 25.941487265317583 -0.0090230043206819 -1 0 0
2010 1 95.99053951367799 27.120698669968764 1.279047384370691 -1 0 0
2213 7 2.0422979307250024 29.478947403830585 -0.009023004320680886 0 0 0
2209 1 4.084629168867985 30.658158808481762 1.2790473843706938 0 0 0
2222 7 4.084651493943005 33.01640754234358 -0.009023004320681111 0 0 0
2210 1 2.042275605649986 34.19561894699476 1.2790473843706907 0 0 0
2221 7 6.127005057161004 29.478947403830585 -0.009023004320683682 0 0 0
2229 7 10.211712183597 29.47894740383058 -0.00902300432068119 0 0 0
2217 1 8.16933629530398 30.658158808481762 1.2790473843706953 0 0 0
2230 7 8.169358620379002 33.016407542343586 -0.009023004320683327 0 0 0
2218 1 6.126982732085983 34.19561894699477 1.2790473843706893 0 0 0
2226 1 10.211689858521979 34.19561894699476 1.2790473843706884 0 0 0
2237 7 14.296419310033002 29.47894740383058 -0.00902300432068127 0 0 0
2225 1 12.25404342173998 30.658158808481762 1.2790473843706942 0 0 0
2233 1 16.33875054817598 30.658158808481762 1.2790473843706938 0 0 0
2238 7 12.254065746815002 33.01640754234358 -0.009023004320681005 0 0 0
2246 7 16.338772873251003 33.016407542343586 -0.009023004320680457 0 0 0
2234 1 14.29639698495798 34.19561894699476 1.279047384370688 0 0 0
2245 7 18.381126436469003 29.47894740383058 -0.009023004320681883 0 0 0
2253 7 22.465833562905004 29.47894740383058 -0.009023004320681819 0 0 0
2241 1 20.42345767461198 30.658158808481762 1.2790473843706944 0 0 0
2254 7 20.423479999687004 33.01640754234358 -0.009023004320681028 0 0 0
2242 1 18.38110411139398 34.19561894699476 1.2790473843706882 0 0 0
2250 1 22.465811237829982 34.19561894699476 1.2790473843706882 0 0 0
2261 7 26.550540689341005 29.47894740383058 -0.009023004320681819 0 0 0
2249 1 24.508164801047982 30.658158808481762 1.2790473843706944 0 0 0
2257 1 28.592871927483984 30.658158808481762 1.2790473843706944 0 0 0
2262 7 24.508187126123005 33.01640754234358 -0.009023004320681028 0 0 0
2270 7 28.592894252559006 33.01640754234358 -0.009023004320681028 0 0 0
2258 1 26.550518364265983 34.19561894699476 1.2790473843706882 0 0 0
2269 7 30.635247815777007 29.47894740383058 -0.009023004320682843 0 0 0
2265 1 32.677579053919985 30.658158808481762 1.2790473843706942 0 0 0
2278 7 32.67760137899501 33.01640754234358 -0.009023004320682055 0 0 0
2266 1 30.635225490701984 34.19561894699476 1.2790473843706882 0 0 0
2277 7 34.71995494221301 29.47894740383058 -0.009023004320681796 0 0 0
2285 7 38.80466206864901 29.47894740383058 -0.009023004320681796 0 0 0
2273 1 36.762286180355986 30.658158808481762 1.2790473843706944 0 0 0
2286 7 36.76230850543101 33.01640754234358 -0.009023004320681014 0 0 0
2274 1 34.719932617137985 34.19561894699476 1.2790473843706882 0 0 0
2282 1 38.804639743573986 34.19561894699476 1.2790473843706882 0 0 0
2293 7 42.88936919508501 29.47894740383058 -0.009023004320682126 0 0 0