LAMMPS data file via write_data, version 29 Aug 2024, timestep = 2, units = metal

5376 atoms
8 atom types

0 98.032971034464 xlo xhi
0 99.048883878364 ylo yhi
-50 50 zlo zhi

Masses

1 114.818
2 114.818
3 114.818
4 114.818
5 78.971
6 78.971
7 78.971
8 78.971

Atoms # atomic

1445 5 2.0422980241351874 1.1792660407601416 -0.009030724973558073 0 0 0
1441 1 4.084629065966517 2.358477957432298 1.2790439981313146 0 0 0
1454 5 4.084651587353188 4.716726179273138 -0.009030724973557253 0 0 0
1453 5 6.127005150571188 1.17926604076014 -0.009030724973558467 0 0 0
1461 5 10.211712277007186 1.1792660407601412 -0.009030724973558184 0 0 0
1449 1 8.169336192402513 2.3584779574322985 1.279043998131315 0 0 0
1462 5 8.169358713789187 4.716726179273137 -0.009030724973558148 0 0 0
1469 5 14.296419403443187 1.1792660407601414 -0.009030724973558061 0 0 0
1457 1 12.254043318838514 2.358477957432298 1.2790439981313144 0 0 0
1465 1 16.338750445274513 2.3584779574322985 1.2790439981313142 0 0 0
1470 5 12.254065840225186 4.716726179273138 -0.009030724973557088 0 0 0
1478 5 16.338772966661185 4.716726179273138 -0.009030724973557079 0 0 0
1477 5 18.381126529879186 1.1792660407601414 -0.00903072497355807 0 0 0
1485 5 22.465833656315187 1.1792660407601414 -0.009030724973558082 0 0 0
1473 1 20.423457571710514 2.358477957432298 1.2790439981313144 0 0 0
1486 5 20.423480093097186 4.716726179273138 -0.009030724973557098 0 0 0
1493 5 26.550540782751188 1.1792660407601414 -0.009030724973558082 0 0 0
1481 1 24.508164698146516 2.358477957432298 1.2790439981313144 0 0 0
1489 1 28.592871824582517 2.358477957432298 1.2790439981313144 0 0 0
1494 5 24.508187219533188 4.716726179273138 -0.009030724973557098 0 0 0
1502 5 28.59289434596919 4.716726179273138 -0.009030724973557098 0 0 0
1501 5 30.63524790918719 1.1792660407601414 -0.00903072497355812 0 0 0
1497 1 32.67757895101852 2.358477957432298 1.2790439981313144 0 0 0
1510 5 32.67760147240519 4.716726179273138 -0.009030724973557136 0 0 0
1509 5 34.719955035623194 1.1792660407601414 -0.009030724973558082 0 0 0
1517 5 38.804662162059195 1.1792660407601414 -0.00903072497355808 0 0 0
1505 1 36.76228607745452 2.358477957432298 1.2790439981313144 0 0 0
1518 5 36.762308598841194 4.716726179273138 -0.009030724973557098 0 0 0
1525 5 42.889369288495196 1.1792660407601414 -0.009030724973558236 0 0 0
1513 1 40.84699320389052 2.358477957432298 1.2790439981313144 0 0 0
1521 1 44.93170033032652 2.3584779574322967 1.2790439981313135 0 0 0
1526 5 40.847015725277195 4.716726179273138 -0.009030724973557091 0 0 0
1534 5 44.93172285171319 4.716726179273137 -0.009030724973559534 0 0 0
1533 5 46.97407641493119 1.1792660407601394 -0.009030724973559844 0 0 0
1349 5 51.058783541367184 1.1792660407601396 -0.009030724973558637 -1 0 0
1529 1 49.016407456762515 2.358477957432299 1.2790439981313149 0 0 0
1350 5 49.01642997814918 4.716726179273137 -0.009030724973558371 -1 0 0
1357 5 55.143490667803185 1.1792660407601419 -0.009030724973557704 -1 0 0
1345 1 53.10111458319851 2.3584779574323 1.2790439981313166 -1 0 0
1353 1 57.18582170963451 2.358477957432298 1.2790439981313144 -1 0 0
1358 5 53.101137104585185 4.716726179273139 -0.009030724973556541 -1 0 0
1366 5 57.185844231021186 4.716726179273138 -0.009030724973557098 -1 0 0
1365 5 59.228197794239186 1.1792660407601414 -0.009030724973558089 -1 0 0
1373 5 63.31290492067519 1.1792660407601416 -0.009030724973558309 -1 0 0
1361 1 61.27052883607051 2.358477957432298 1.2790439981313138 -1 0 0
1374 5 61.27055135745719 4.716726179273138 -0.009030724973557164 -1 0 0
1381 5 67.39761204711118 1.1792660407601412 -0.009030724973558286 -1 0 0
1369 1 65.35523596250651 2.3584779574322963 1.2790439981313124 -1 0 0
1382 5 65.35525848389318 4.716726179273138 -0.009030724973557348 -1 0 0
1389 5 71.48231917354718 1.1792660407601414 -0.009030724973558217 -1 0 0
1377 1 69.43994308894251 2.358477957432298 1.2790439981313144 -1 0 0
1385 1 73.52465021537851 2.358477957432298 1.2790439981313144 -1 0 0
1390 5 69.43996561032918 4.716726179273138 -0.009030724973557126 -1 0 0
1398 5 73.52467273676518 4.716726179273138 -0.009030724973557126 -1 0 0
1397 5 75.56702629998318 1.1792660407601414 -0.009030724973558219 -1 0 0
1405 5 79.65173342641918 1.179266040760141 -0.009030724973556064 -1 0 0
1393 1 77.60935734181452 2.358477957432298 1.2790439981313142 -1 0 0
1406 5 77.60937986320118 4.716726179273139 -0.009030724973556026 -1 0 0
1413 5 83.73644055285519 1.1792660407601385 -0.009030724973561381 -1 0 0
1401 1 81.69406446825052 2.358477957432302 1.2790439981313184 -1 0 0
1409 1 85.7787715946865 2.358477957432298 1.2790439981313144 -1 0 0
1414 5 81.69408698963719 4.716726179273135 -0.009030724973560361 -1 0 0
1422 5 85.77879411607317 4.716726179273138 -0.00903072497355713 -1 0 0
1421 5 87.82114767929117 1.1792660407601414 -0.009030724973558222 -1 0 0
1429 5 91.90585480572717 1.1792660407601414 -0.009030724973558231 -1 0 0
1417 1 89.8634787211225 2.358477957432298 1.2790439981313144 -1 0 0
1430 5 89.86350124250917 4.716726179273138 -0.009030724973557143 -1 0 0
1446 5 98.03291549538119 4.716726179273138 -0.009030724973557286 -1 0 0
1437 5 95.99056193216317 1.1792660407601412 -0.009030724973558318 -1 0 0
1425 1 93.9481858475585 2.358477957432298 1.2790439981313135 -1 0 0
1433 1 98.03289297399452 2.3584779574322967 1.2790439981313138 -1 0 0
1438 5 93.94820836894517 4.716726179273138 -0.009030724973557275 -1 0 0
1442 1 2.042275502748518 5.895938095945298 1.2790439981313129 0 0 0
1637 5 2.0422980241351874 8.254186317786141 -0.009030724973555707 0 0 0
1633 1 4.084629065966517 9.4333982344583 1.279043998131314 0 0 0
1450 1 6.126982629184516 5.895938095945299 1.2790439981313138 0 0 0
1458 1 10.211689755620514 5.895938095945299 1.2790439981313124 0 0 0
1645 5 6.127005150571188 8.25418631778614 -0.009030724973556635 0 0 0
1653 5 10.211712277007186 8.25418631778614 -0.009030724973555532 0 0 0
1641 1 8.169336192402513 9.433398234458299 1.2790439981313146 0 0 0
1466 1 14.296396882056513 5.895938095945299 1.2790439981313124 0 0 0
1661 5 14.296419403443187 8.25418631778614 -0.00903072497355542 0 0 0
1649 1 12.254043318838514 9.4333982344583 1.2790439981313138 0 0 0
1657 1 16.338750445274513 9.4333982344583 1.279043998131314 0 0 0
1474 1 18.381104008492514 5.895938095945299 1.2790439981313122 0 0 0
1482 1 22.465811134928515 5.895938095945299 1.2790439981313122 0 0 0
1669 5 18.381126529879186 8.25418631778614 -0.009030724973555395 0 0 0
1677 5 22.465833656315187 8.25418631778614 -0.00903072497355542 0 0 0
1665 1 20.423457571710514 9.4333982344583 1.2790439981313138 0 0 0
1490 1 26.550518261364516 5.895938095945299 1.2790439981313122 0 0 0
1685 5 26.550540782751188 8.25418631778614 -0.00903072497355542 0 0 0
1673 1 24.508164698146516 9.4333982344583 1.2790439981313138 0 0 0
1681 1 28.592871824582517 9.4333982344583 1.2790439981313138 0 0 0
1498 1 30.635225387800517 5.895938095945299 1.2790439981313122 0 0 0
1693 5 30.63524790918719 8.25418631778614 -0.009030724973555457 0 0 0
1689 1 32.67757895101852 9.4333982344583 1.2790439981313138 0 0 0
1506 1 34.71993251423652 5.895938095945299 1.2790439981313122 0 0 0
1514 1 38.80463964067252 5.895938095945299 1.2790439981313122 0 0 0
1701 5 34.719955035623194 8.25418631778614 -0.009030724973555417 0 0 0
1709 5 38.804662162059195 8.25418631778614 -0.009030724973555417 0 0 0
1697 1 36.76228607745452 9.4333982344583 1.2790439981313138 0 0 0
1522 1 42.88934676710852 5.895938095945298 1.2790439981313113 0 0 0
1717 5 42.889369288495196 8.25418631778614 -0.009030724973555657 0 0 0
1705 1 40.84699320389052 9.4333982344583 1.2790439981313138 0 0 0
1713 1 44.93170033032652 9.433398234458299 1.2790439981313126 0 0 0
1530 1 46.974053893544514 5.895938095945299 1.2790439981313135 0 0 0
1346 1 51.05876101998051 5.895938095945301 1.279043998131314 -1 0 0
1725 5 46.97407641493119 8.25418631778614 -0.009030724973557785 0 0 0
1541 5 51.058783541367184 8.25418631778614 -0.00903072497355671 -1 0 0
1721 1 49.016407456762515 9.4333982344583 1.2790439981313142 0 0 0
1354 1 55.14346814641651 5.895938095945299 1.2790439981313122 -1 0 0
1549 5 55.143490667803185 8.25418631778614 -0.009030724973555037 -1 0 0
1537 1 53.10111458319851 9.433398234458302 1.2790439981313158 -1 0 0
1545 1 57.18582170963451 9.4333982344583 1.2790439981313138 -1 0 0
1362 1 59.22817527285251 5.895938095945299 1.2790439981313122 -1 0 0
1370 1 63.31288239928851 5.895938095945297 1.2790439981313098 -1 0 0
1557 5 59.228197794239186 8.25418631778614 -0.009030724973555417 -1 0 0
1565 5 63.31290492067519 8.25418631778614 -0.00903072497355562 -1 0 0
1553 1 61.27052883607051 9.4333982344583 1.2790439981313133 -1 0 0
1378 1 67.39758952572451 5.895938095945299 1.2790439981313124 -1 0 0
1573 5 67.39761204711118 8.25418631778614 -0.009030724973555511 -1 0 0
1561 1 65.35523596250651 9.433398234458299 1.2790439981313115 -1 0 0
1386 1 71.48229665216051 5.895938095945299 1.2790439981313124 -1 0 0
1581 5 71.48231917354718 8.25418631778614 -0.009030724973555443 -1 0 0
1569 1 69.43994308894251 9.4333982344583 1.2790439981313138 -1 0 0
1577 1 73.52465021537851 9.4333982344583 1.2790439981313138 -1 0 0
1394 1 75.56700377859651 5.895938095945299 1.2790439981313122 -1 0 0
1402 1 79.65171090503252 5.8959380959453025 1.2790439981313164 -1 0 0
1589 5 75.56702629998318 8.25418631778614 -0.009030724973555442 -1 0 0
1597 5 79.65173342641918 8.254186317786141 -0.009030724973554399 -1 0 0
1585 1 77.60935734181452 9.4333982344583 1.2790439981313138 -1 0 0
1410 1 83.73641803146852 5.895938095945299 1.279043998131312 -1 0 0
1605 5 83.73644055285519 8.254186317786136 -0.009030724973558793 -1 0 0
1593 1 81.69406446825052 9.433398234458304 1.2790439981313177 -1 0 0
1601 1 85.77877159468652 9.4333982344583 1.2790439981313135 -1 0 0
1418 1 87.82112515790452 5.895938095945299 1.2790439981313124 -1 0 0
1426 1 91.9058322843405 5.895938095945299 1.2790439981313118 -1 0 0
1613 5 87.82114767929117 8.25418631778614 -0.009030724973555448 -1 0 0
1621 5 91.90585480572717 8.25418631778614 -0.009030724973555436 -1 0 0
1609 1 89.86347872112252 9.4333982344583 1.2790439981313138 -1 0 0
1434 1 95.99053941077652 5.895938095945298 1.2790439981313113 -1 0 0
1629 5 95.99056193216317 8.25418631778614 -0.0090307249735556 -1 0 0
1617 1 93.9481858475585 9.4333982344583 1.279043998131313 -1 0 0
1625 1 98.03289297399452 9.433398234458299 1.2790439981313133 -1 0 0
1646 5 4.084651587353189 11.79164645629914 -0.009030724973557018 0 0 0
1634 1 2.042275502748518 12.970858372971302 1.279043998131313 0 0 0
1829 5 2.0422980241351874 15.329106594812142 -0.009030724973556396 0 0 0
1825 1 4.084629065966517 16.508318511484305 1.2790439981313133 0 0 0
1654 5 8.169358713789187 11.79164645629914 -0.00903072497355816 0 0 0
1642 1 6.126982629184516 12.970858372971302 1.2790439981313142 0 0 0
1650 1 10.211689755620514 12.970858372971302 1.2790439981313124 0 0 0
1837 5 6.127005150571189 15.329106594812142 -0.009030724973557298 0 0 0
1833 1 8.169336192402513 16.5083185114843 1.2790439981313146 0 0 0
1845 5 10.211712277007184 15.329106594812142 -0.009030724973555527 0 0 0
1662 5 12.254065840225186 11.79164645629914 -0.009030724973557244 0 0 0
1670 5 16.338772966661185 11.79164645629914 -0.009030724973557249 0 0 0
1658 1 14.296396882056513 12.970858372971302 1.2790439981313129 0 0 0
1841 1 12.254043318838514 16.5083185114843 1.2790439981313144 0 0 0
1853 5 14.296419403443187 15.329106594812142 -0.009030724973556078 0 0 0
1849 1 16.338750445274513 16.5083185114843 1.2790439981313146 0 0 0
1678 5 20.423480093097186 11.79164645629914 -0.009030724973557263 0 0 0
1666 1 18.381104008492514 12.970858372971302 1.2790439981313126 0 0 0
1674 1 22.465811134928515 12.970858372971302 1.2790439981313126 0 0 0
1861 5 18.381126529879186 15.329106594812142 -0.00903072497355609 0 0 0
1857 1 20.423457571710514 16.5083185114843 1.2790439981313144 0 0 0
1869 5 22.465833656315187 15.329106594812142 -0.009030724973556085 0 0 0
1686 5 24.508187219533188 11.79164645629914 -0.009030724973557263 0 0 0
1694 5 28.59289434596919 11.79164645629914 -0.009030724973557263 0 0 0
1682 1 26.550518261364516 12.970858372971302 1.2790439981313126 0 0 0
1865 1 24.508164698146516 16.5083185114843 1.2790439981313144 0 0 0
1877 5 26.550540782751188 15.329106594812142 -0.009030724973556085 0 0 0
1873 1 28.592871824582517 16.5083185114843 1.2790439981313144 0 0 0
1702 5 32.67760147240519 11.79164645629914 -0.009030724973557303 0 0 0
1690 1 30.635225387800517 12.970858372971302 1.2790439981313126 0 0 0
1885 5 30.63524790918719 15.329106594812142 -0.009030724973556125 0 0 0
1881 1 32.67757895101852 16.5083185114843 1.2790439981313144 0 0 0
1710 5 36.762308598841194 11.79164645629914 -0.009030724973557263 0 0 0
1698 1 34.71993251423652 12.970858372971302 1.2790439981313126 0 0 0
1706 1 38.80463964067252 12.970858372971302 1.2790439981313126 0 0 0
1893 5 34.719955035623194 15.329106594812142 -0.009030724973556087 0 0 0
1889 1 36.76228607745452 16.5083185114843 1.2790439981313144 0 0 0
1901 5 38.804662162059195 15.329106594812142 -0.009030724973556087 0 0 0
1718 5 40.847015725277195 11.79164645629914 -0.009030724973557256 0 0 0
1726 5 44.93172285171319 11.79164645629914 -0.009030724973559289 0 0 0
1714 1 42.88934676710852 12.9708583729713 1.279043998131312 0 0 0
1897 1 40.84699320389052 16.5083185114843 1.2790439981313144 0 0 0
1909 5 42.889369288495196 15.329106594812142 -0.009030724973556337 0 0 0
1905 1 44.93170033032652 16.5083185114843 1.2790439981313129 0 0 0
1542 5 49.01642997814918 11.79164645629914 -0.009030724973557626 -1 0 0
1722 1 46.974053893544514 12.970858372971302 1.2790439981313135 0 0 0
1538 1 51.05876101998051 12.970858372971303 1.2790439981313142 -1 0 0
1917 5 46.97407641493119 15.329106594812142 -0.009030724973558116 0 0 0
1913 1 49.016407456762515 16.5083185114843 1.2790439981313149 0 0 0
1733 5 51.058783541367184 15.329106594812142 -0.009030724973556344 -1 0 0
1550 5 53.101137104585185 11.79164645629914 -0.009030724973556186 -1 0 0
1558 5 57.185844231021186 11.79164645629914 -0.009030724973557265 -1 0 0
1546 1 55.14346814641651 12.970858372971302 1.2790439981313126 -1 0 0
1729 1 53.10111458319851 16.5083185114843 1.2790439981313162 -1 0 0
1741 5 55.14349066780318 15.329106594812142 -0.009030724973554992 -1 0 0
1737 1 57.18582170963451 16.5083185114843 1.2790439981313144 -1 0 0
1566 5 61.27055135745719 11.79164645629914 -0.009030724973557341 -1 0 0
1554 1 59.22817527285251 12.970858372971302 1.2790439981313126 -1 0 0
1562 1 63.31288239928851 12.9708583729713 1.27904399813131 -1 0 0
1749 5 59.228197794239186 15.329106594812142 -0.009030724973556115 -1 0 0
1745 1 61.27052883607051 16.5083185114843 1.279043998131314 -1 0 0
1757 5 63.31290492067519 15.329106594812142 -0.009030724973556305 -1 0 0
1574 5 65.35525848389318 11.79164645629914 -0.009030724973557516 -1 0 0
1570 1 67.39758952572451 12.970858372971302 1.2790439981313126 -1 0 0
1753 1 65.35523596250651 16.5083185114843 1.2790439981313122 -1 0 0
1765 5 67.39761204711118 15.329106594812142 -0.009030724973556146 -1 0 0
1582 5 69.43996561032918 11.79164645629914 -0.009030724973557287 -1 0 0
1590 5 73.52467273676518 11.79164645629914 -0.009030724973557287 -1 0 0
1578 1 71.48229665216051 12.970858372971302 1.2790439981313126 -1 0 0
1761 1 69.43994308894251 16.5083185114843 1.2790439981313144 -1 0 0
1773 5 71.48231917354718 15.329106594812142 -0.009030724973556076 -1 0 0
1769 1 73.52465021537851 16.5083185114843 1.2790439981313144 -1 0 0
1598 5 77.60937986320118 11.791646456299143 -0.009030724973556186 -1 0 0
1586 1 75.56700377859651 12.970858372971302 1.2790439981313126 -1 0 0
1594 1 79.65171090503252 12.970858372971305 1.2790439981313173 -1 0 0
1781 5 75.56702629998318 15.329106594812142 -0.009030724973556096 -1 0 0
1777 1 77.60935734181452 16.508318511484305 1.279043998131313 -1 0 0
1789 5 79.65173342641918 15.329106594812144 -0.009030724973554682 -1 0 0
1606 5 81.69408698963719 11.791646456299139 -0.009030724973560486 -1 0 0
1614 5 85.77879411607317 11.79164645629914 -0.009030724973557289 -1 0 0
1602 1 83.73641803146852 12.970858372971302 1.2790439981313124 -1 0 0
1785 1 81.69406446825052 16.508318511484305 1.2790439981313184 -1 0 0
1797 5 83.73644055285519 15.329106594812139 -0.009030724973559081 -1 0 0
1793 1 85.77877159468652 16.5083185114843 1.2790439981313142 -1 0 0
1622 5 89.86350124250917 11.79164645629914 -0.0090307249735573 -1 0 0
1610 1 87.82112515790452 12.970858372971302 1.2790439981313126 -1 0 0
1618 1 91.90583228434052 12.970858372971302 1.279043998131312 -1 0 0
1805 5 87.82114767929117 15.329106594812142 -0.009030724973556076 -1 0 0
1801 1 89.86347872112252 16.5083185114843 1.2790439981313144 -1 0 0
1813 5 91.90585480572717 15.329106594812142 -0.009030724973556083 -1 0 0
1638 5 98.03291549538119 11.79164645629914 -0.009030724973557416 -1 0 0
1630 5 93.94820836894517 11.79164645629914 -0.009030724973557424 -1 0 0
1626 1 95.99053941077652 12.9708583729713 1.2790439981313118 -1 0 0
1809 1 93.94818584755852 16.5083185114843 1.2790439981313138 -1 0 0
1821 5 95.99056193216317 15.329106594812142 -0.00903072497355627 -1 0 0
1817 1 98.03289297399452 16.5083185114843 1.2790439981313133 -1 0 0
1838 5 4.08465158735319 18.86656673332514 -0.009030724973556803 0 0 0
1826 1 2.042275502748517 20.045778649997303 1.2790439981313146 0 0 0
2021 5 2.042298024135188 22.40402687183814 -0.009030724973557386 0 0 0
1846 5 8.169358713789185 18.866566733325143 -0.009030724973558609 0 0 0
1834 1 6.126982629184517 20.0457786499973 1.2790439981313146 0 0 0
1842 1 10.211689755620514 20.045778649997303 1.2790439981313124 0 0 0
2029 5 6.127005150571189 22.40402687183814 -0.009030724973558639 0 0 0
2037 5 10.211712277007186 22.404026871838138 -0.009030724973556795 0 0 0
1854 5 12.254065840225186 18.866566733325143 -0.009030724973557213 0 0 0
1862 5 16.338772966661185 18.866566733325143 -0.009030724973557195 0 0 0
1850 1 14.296396882056513 20.0457786499973 1.2790439981313138 0 0 0
2045 5 14.296419403443187 22.40402687183814 -0.009030724973557192 0 0 0
1870 5 20.423480093097186 18.86656673332514 -0.00903072497355724 0 0 0
1858 1 18.381104008492514 20.0457786499973 1.2790439981313135 0 0 0
1866 1 22.465811134928515 20.0457786499973 1.2790439981313135 0 0 0
2053 5 18.381126529879186 22.40402687183814 -0.009030724973557223 0 0 0
2061 5 22.465833656315187 22.404026871838138 -0.009030724973557223 0 0 0
1878 5 24.508187219533188 18.86656673332514 -0.00903072497355724 0 0 0
1886 5 28.59289434596919 18.86656673332514 -0.00903072497355724 0 0 0
1874 1 26.550518261364516 20.0457786499973 1.2790439981313138 0 0 0
2069 5 26.550540782751188 22.404026871838138 -0.009030724973557223 0 0 0
1894 5 32.67760147240519 18.86656673332514 -0.009030724973557282 0 0 0
1882 1 30.635225387800517 20.0457786499973 1.2790439981313135 0 0 0
2077 5 30.63524790918719 22.40402687183814 -0.009030724973557265 0 0 0
1902 5 36.762308598841194 18.86656673332514 -0.009030724973557242 0 0 0
1890 1 34.71993251423652 20.0457786499973 1.2790439981313138 0 0 0
1898 1 38.80463964067252 20.0457786499973 1.2790439981313138 0 0 0
2085 5 34.719955035623194 22.404026871838138 -0.009030724973557225 0 0 0
2093 5 38.804662162059195 22.404026871838138 -0.009030724973557225 0 0 0
1910 5 40.847015725277195 18.86656673332514 -0.009030724973557221 0 0 0
1918 5 44.93172285171319 18.86656673332514 -0.009030724973558831 0 0 0
1906 1 42.88934676710852 20.0457786499973 1.2790439981313129 0 0 0
2101 5 42.889369288495196 22.404026871838138 -0.009030724973557228 0 0 0
1734 5 49.01642997814918 18.866566733325143 -0.009030724973558227 -1 0 0
1914 1 46.974053893544514 20.0457786499973 1.2790439981313142 0 0 0
1730 1 51.05876101998051 20.0457786499973 1.279043998131315 -1 0 0
2109 5 46.97407641493119 22.40402687183814 -0.0090307249735599 0 0 0
1925 5 51.058783541367184 22.40402687183814 -0.009030724973558169 -1 0 0
1742 5 53.101137104585185 18.866566733325143 -0.009030724973557032 -1 0 0
1750 5 57.185844231021186 18.866566733325143 -0.009030724973557261 -1 0 0
1738 1 55.14346814641651 20.045778649997303 1.2790439981313124 -1 0 0
1933 5 55.143490667803185 22.40402687183814 -0.009030724973556292 -1 0 0
1758 5 61.27055135745719 18.86656673332514 -0.009030724973557287 -1 0 0
1746 1 59.22817527285251 20.0457786499973 1.2790439981313138 -1 0 0
1754 1 63.31288239928851 20.045778649997295 1.279043998131311 -1 0 0
1941 5 59.228197794239186 22.404026871838138 -0.009030724973557275 -1 0 0
1949 5 63.31290492067519 22.40402687183814 -0.009030724973557414 -1 0 0
1766 5 65.35525848389318 18.86656673332514 -0.009030724973557626 -1 0 0
1762 1 67.39758952572451 20.0457786499973 1.2790439981313138 -1 0 0
1957 5 67.39761204711118 22.404026871838138 -0.009030724973557436 -1 0 0
1774 5 69.43996561032918 18.86656673332514 -0.009030724973557388 -1 0 0
1782 5 73.52467273676518 18.86656673332514 -0.009030724973557414 -1 0 0
1770 1 71.48229665216051 20.0457786499973 1.2790439981313138 -1 0 0
1965 5 71.48231917354718 22.404026871838138 -0.00903072497355737 -1 0 0
1790 5 77.60937986320118 18.866566733325143 -0.009030724973555953 -1 0 0
1778 1 75.56700377859651 20.0457786499973 1.2790439981313144 -1 0 0
1786 1 79.65171090503252 20.045778649997303 1.2790439981313184 -1 0 0
1973 5 75.56702629998318 22.404026871838138 -0.00903072497355735 -1 0 0
1981 5 79.65173342641918 22.40402687183814 -0.009030724973556283 -1 0 0
1798 5 81.69408698963719 18.86656673332514 -0.009030724973560781 -1 0 0
1806 5 85.77879411607317 18.86656673332514 -0.009030724973557407 -1 0 0
1794 1 83.73641803146852 20.045778649997303 1.2790439981313122 -1 0 0
1989 5 83.73644055285519 22.404026871838138 -0.009030724973560155 -1 0 0
1814 5 89.86350124250917 18.86656673332514 -0.009030724973557407 -1 0 0
1802 1 87.82112515790452 20.0457786499973 1.2790439981313138 -1 0 0
1810 1 91.90583228434052 20.0457786499973 1.279043998131313 -1 0 0
1997 5 87.82114767929117 22.404026871838138 -0.009030724973557398 -1 0 0
2005 5 91.90585480572717 22.404026871838138 -0.00903072497355734 -1 0 0
1830 5 98.03291549538119 18.866566733325143 -0.009030724973557488 -1 0 0
1822 5 93.94820836894517 18.86656673332514 -0.009030724973557504 -1 0 0
1818 1 95.9905394107765 20.0457786499973 1.2790439981313133 -1 0 0
2013 5 95.99056193216317 22.404026871838138 -0.009030724973557341 -1 0 0
2017 1 4.084629065966517 23.583238788510297 1.2790439981313144 0 0 0
2018 1 2.042275502748518 27.120698927023295 1.2790439981313138 0 0 0
2030 5 4.08465158735319 25.94148701035114 -0.00903072497355659 0 0 0
2025 1 8.169336192402513 23.583238788510297 1.2790439981313149 0 0 0
2026 1 6.126982629184516 27.120698927023295 1.2790439981313142 0 0 0
2038 5 8.169358713789185 25.94148701035114 -0.009030724973558783 0 0 0
2034 1 10.211689755620514 27.120698927023295 1.279043998131314 0 0 0
2033 1 12.254043318838514 23.583238788510297 1.2790439981313144 0 0 0
2041 1 16.338750445274513 23.583238788510297 1.2790439981313138 0 0 0
2046 5 12.254065840225186 25.94148701035114 -0.00903072497355698 0 0 0
2042 1 14.296396882056513 27.120698927023295 1.2790439981313138 0 0 0
2054 5 16.338772966661185 25.941487010351135 -0.009030724973557017 0 0 0
2049 1 20.423457571710514 23.583238788510297 1.2790439981313135 0 0 0
2050 1 18.381104008492514 27.120698927023295 1.2790439981313135 0 0 0
2062 5 20.423480093097186 25.941487010351135 -0.009030724973557084 0 0 0
2058 1 22.465811134928515 27.120698927023295 1.2790439981313135 0 0 0
2057 1 24.508164698146516 23.583238788510297 1.2790439981313138 0 0 0
2065 1 28.592871824582517 23.583238788510297 1.2790439981313138 0 0 0
2070 5 24.508187219533188 25.941487010351135 -0.009030724973557084 0 0 0
2066 1 26.550518261364516 27.120698927023295 1.2790439981313135 0 0 0
2078 5 28.59289434596919 25.941487010351135 -0.009030724973557084 0 0 0
2073 1 32.67757895101852 23.583238788510297 1.2790439981313138 0 0 0
2074 1 30.635225387800517 27.120698927023295 1.2790439981313135 0 0 0
2086 5 32.67760147240519 25.941487010351135 -0.009030724973557122 0 0 0
2081 1 36.76228607745452 23.583238788510297 1.2790439981313138 0 0 0
2082 1 34.71993251423652 27.120698927023295 1.2790439981313135 0 0 0
2094 5 36.762308598841194 25.941487010351135 -0.009030724973557083 0 0 0
2090 1 38.80463964067252 27.120698927023295 1.2790439981313135 0 0 0
2089 1 40.84699320389052 23.583238788510297 1.2790439981313135 0 0 0
2097 1 44.93170033032652 23.583238788510297 1.2790439981313122 0 0 0
2102 5 40.847015725277195 25.941487010351135 -0.00903072497355706 0 0 0
2098 1 42.88934676710852 27.120698927023295 1.2790439981313129 0 0 0
2110 5 44.93172285171319 25.941487010351135 -0.00903072497355867 0 0 0
2105 1 49.016407456762515 23.583238788510297 1.2790439981313144 0 0 0
2106 1 46.974053893544514 27.120698927023295 1.2790439981313142 0 0 0
1926 5 49.01642997814918 25.94148701035114 -0.009030724973558068 -1 0 0
1922 1 51.05876101998051 27.120698927023295 1.279043998131315 -1 0 0
1921 1 53.10111458319851 23.5832387885103 1.2790439981313164 -1 0 0
1929 1 57.18582170963451 23.583238788510297 1.2790439981313144 -1 0 0
1934 5 53.10113710458518 25.94148701035114 -0.00903072497355704 -1 0 0
1930 1 55.14346814641651 27.120698927023295 1.2790439981313138 -1 0 0
1942 5 57.185844231021186 25.941487010351135 -0.009030724973557046 -1 0 0
1937 1 61.27052883607051 23.583238788510297 1.2790439981313133 -1 0 0
1938 1 59.22817527285251 27.120698927023295 1.2790439981313135 -1 0 0
1950 5 61.27055135745719 25.941487010351135 -0.009030724973557105 -1 0 0
1946 1 63.31288239928851 27.120698927023295 1.279043998131311 -1 0 0
1945 1 65.35523596250651 23.583238788510293 1.2790439981313113 -1 0 0
1958 5 65.35525848389318 25.941487010351135 -0.009030724973557443 -1 0 0
1954 1 67.39758952572451 27.120698927023295 1.2790439981313138 -1 0 0
1953 1 69.43994308894251 23.583238788510297 1.2790439981313138 -1 0 0
1961 1 73.52465021537851 23.583238788510297 1.2790439981313138 -1 0 0
1966 5 69.43996561032918 25.941487010351135 -0.009030724973557228 -1 0 0
1962 1 71.48229665216051 27.120698927023295 1.2790439981313138 -1 0 0
1974 5 73.52467273676518 25.941487010351135 -0.009030724973557256 -1 0 0
1969 1 77.60935734181452 23.5832387885103 1.2790439981313124 -1 0 0
1970 1 75.56700377859651 27.120698927023295 1.2790439981313144 -1 0 0
1982 5 77.60937986320118 25.94148701035114 -0.00903072497355599 -1 0 0
1978 1 79.65171090503252 27.120698927023298 1.2790439981313184 -1 0 0
1977 1 81.69406446825052 23.5832387885103 1.2790439981313182 -1 0 0
1985 1 85.77877159468652 23.583238788510297 1.2790439981313142 -1 0 0
1990 5 81.69408698963719 25.941487010351135 -0.00903072497356056 -1 0 0
1986 1 83.73641803146852 27.120698927023295 1.2790439981313135 -1 0 0
1998 5 85.77879411607317 25.941487010351135 -0.009030724973557192 -1 0 0
1993 1 89.86347872112252 23.583238788510297 1.2790439981313138 -1 0 0
1994 1 87.82112515790452 27.120698927023295 1.2790439981313138 -1 0 0
2006 5 89.86350124250917 25.941487010351135 -0.009030724973557232 -1 0 0
2002 1 91.90583228434052 27.120698927023295 1.2790439981313129 -1 0 0
2022 5 98.03291549538119 25.94148701035114 -0.009030724973557324 -1 0 0
2001 1 93.94818584755852 23.583238788510297 1.279043998131313 -1 0 0
2009 1 98.03289297399452 23.583238788510297 1.279043998131313 -1 0 0
2014 5 93.94820836894517 25.941487010351135 -0.009030724973557322 -1 0 0
2010 1 95.9905394107765 27.120698927023295 1.2790439981313133 -1 0 0
2213 5 2.042298024135188 29.478947148864137 -0.009030724973557355 0 0 0
2209 1 4.084629065966517 30.658159065536292 1.2790439981313155 0 0 0
2222 5 4.084651587353191 33.016407287377135 -0.009030724973556389 0 0 0
2210 1 2.042275502748518 34.195619204049294 1.2790439981313124 0 0 0
2221 5 6.127005150571189 29.478947148864137 -0.009030724973558609 0 0 0
2229 5 10.211712277007186 29.478947148864137 -0.009030724973556559 0 0 0
2217 1 8.169336192402515 30.658159065536292 1.2790439981313153 0 0 0
2230 5 8.169358713789185 33.016407287377135 -0.009030724973558347 0 0 0
2218 1 6.126982629184516 34.195619204049294 1.279043998131313 0 0 0
2226 1 10.211689755620514 34.1956192040493 1.27904399813131 0 0 0
2237 5 14.296419403443187 29.478947148864133 -0.009030724973557138 0 0 0
2225 1 12.254043318838512 30.658159065536292 1.2790439981313146 0 0 0
2233 1 16.338750445274513 30.658159065536292 1.2790439981313149 0 0 0
2238 5 12.254065840225186 33.016407287377135 -0.009030724973557575 0 0 0
2246 5 16.338772966661185 33.016407287377135 -0.00903072497355758 0 0 0
2234 1 14.296396882056513 34.1956192040493 1.27904399813131 0 0 0
2245 5 18.381126529879186 29.478947148864133 -0.009030724973557147 0 0 0
2253 5 22.465833656315187 29.478947148864133 -0.00903072497355717 0 0 0
2241 1 20.423457571710514 30.658159065536292 1.2790439981313149 0 0 0
2254 5 20.423480093097186 33.016407287377135 -0.009030724973557601 0 0 0
2242 1 18.381104008492514 34.1956192040493 1.2790439981313098 0 0 0
2250 1 22.465811134928515 34.1956192040493 1.2790439981313098 0 0 0
2261 5 26.550540782751188 29.478947148864133 -0.00903072497355717 0 0 0
2249 1 24.508164698146516 30.658159065536292 1.2790439981313149 0 0 0
2257 1 28.592871824582517 30.658159065536292 1.2790439981313149 0 0 0
2262 5 24.508187219533188 33.016407287377135 -0.009030724973557601 0 0 0
2270 5 28.59289434596919 33.016407287377135 -0.009030724973557601 0 0 0
2258 1 26.550518261364516 34.1956192040493 1.2790439981313098 0 0 0
2269 5 30.63524790918719 29.478947148864133 -0.009030724973557207 0 0 0
2265 1 32.67757895101852 30.658159065536292 1.2790439981313149 0 0 0
2278 5 32.67760147240519 33.016407287377135 -0.009030724973557643 0 0 0
2266 1 30.635225387800517 34.1956192040493 1.2790439981313098 0 0 0
2277 5 34.719955035623194 29.478947148864133 -0.00903072497355717 0 0 0
2285 5 38.804662162059195 29.478947148864133 -0.00903072497355717 0 0 0
2273 1 36.76228607745452 30.658159065536292 1.2790439981313149 0 0 0
2286 5 36.762308598841194 33.016407287377135 -0.009030724973557603 0 0 0
2274 1 34.71993251423652 34.1956192040493 1.2790439981313098 0 0 0
2282 1 38.80463964067252 34.1956192040493 1.2790439981313098 0 0 0