LAMMPS data file via write_data, version 29 Aug 2024, timestep = 0, units = metal

2688 atoms
4 atom types

0 98.032971034464 xlo xhi
0 99.048883878364 ylo yhi
0 20.355727981978 zlo zhi

Masses

1 114.818
2 114.818
3 78.95999999999999
4 78.971

Atoms # atomic

1445 3 2.0423618809360065 1.179011906748002 0 0 0 0
1453 3 6.1270690073720075 1.179011906748002 0 0 0 0
1461 3 10.211776133808002 1.179011906748002 0 0 0 0
1469 3 14.296483260244003 1.179011906748002 0 0 0 0
1477 3 18.381190386680004 1.179011906748002 0 0 0 0
1485 3 22.465897513116005 1.179011906748002 0 0 0 0
1493 3 26.550604639552006 1.179011906748002 0 0 0 0
1501 3 30.635311765988007 1.179011906748002 0 0 0 0
1509 3 34.72001889242401 1.179011906748002 0 0 0 0
1517 3 38.80472601886001 1.179011906748002 0 0 0 0
1525 3 42.88943314529601 1.179011906748002 0 0 0 0
1533 3 46.97414027173201 1.179011906748002 0 0 0 0
1349 3 51.058847398168005 1.179011906748002 0 -1 0 0
1357 3 55.143554524604 1.179011906748002 0 -1 0 0
1365 3 59.22826165104 1.179011906748002 0 -1 0 0
1373 3 63.312968777476 1.179011906748002 0 -1 0 0
1381 3 67.397675903912 1.179011906748002 0 -1 0 0
1389 3 71.482383030348 1.179011906748002 0 -1 0 0
1397 3 75.567090156784 1.179011906748002 0 -1 0 0
1405 3 79.65179728322 1.179011906748002 0 -1 0 0
1413 3 83.73650440965599 1.179011906748002 0 -1 0 0
1421 3 87.821211536092 1.179011906748002 0 -1 0 0
1429 3 91.905918662528 1.179011906748002 0 -1 0 0
1437 3 95.990625788964 1.179011906748002 0 -1 0 0
1441 1 4.084562392715007 2.358738102749001 1.2704079646879993 0 0 0
1449 1 8.169269519151001 2.358738102749001 1.2704079646879993 0 0 0
1457 1 12.253976645587002 2.358738102749001 1.2704079646879993 0 0 0
1465 1 16.338683772023003 2.358738102749001 1.2704079646879993 0 0 0
1473 1 20.423390898459004 2.358738102749001 1.2704079646879993 0 0 0
1481 1 24.508098024895006 2.358738102749001 1.2704079646879993 0 0 0
1489 1 28.592805151331007 2.358738102749001 1.2704079646879993 0 0 0
1497 1 32.67751227776701 2.358738102749001 1.2704079646879993 0 0 0
1505 1 36.76221940420301 2.358738102749001 1.2704079646879993 0 0 0
1513 1 40.84692653063901 2.358738102749001 1.2704079646879993 0 0 0
1521 1 44.93163365707501 2.358738102749001 1.2704079646879993 0 0 0
1529 1 49.016340783511 2.358738102749001 1.2704079646879993 0 0 0
1345 1 53.101047909947 2.358738102749001 1.2704079646879993 -1 0 0
1353 1 57.185755036383 2.358738102749001 1.2704079646879993 -1 0 0
1361 1 61.270462162819 2.358738102749001 1.2704079646879993 -1 0 0
1369 1 65.355169289255 2.358738102749001 1.2704079646879993 -1 0 0
1377 1 69.439876415691 2.358738102749001 1.2704079646879993 -1 0 0
1385 1 73.524583542127 2.358738102749001 1.2704079646879993 -1 0 0
1393 1 77.609290668563 2.358738102749001 1.2704079646879993 -1 0 0
1401 1 81.693997794999 2.358738102749001 1.2704079646879993 -1 0 0
1409 1 85.77870492143501 2.358738102749001 1.2704079646879993 -1 0 0
1417 1 89.86341204787101 2.358738102749001 1.2704079646879993 -1 0 0
1425 1 93.94811917430701 2.358738102749001 1.2704079646879993 -1 0 0
1433 1 98.03282630074301 2.358738102749001 1.2704079646879993 -1 0 0
1446 3 8.317718005912411e-06 4.716472045261 0 0 0 0
1442 1 2.0422088294970067 5.896198241261999 1.2704079646879993 0 0 0
1454 3 4.084715444154007 4.716472045261 0 0 0 0
1450 1 6.126915955933008 5.896198241261999 1.2704079646879993 0 0 0
1462 3 8.169422570590001 4.716472045261 0 0 0 0
1458 1 10.211623082369002 5.896198241261999 1.2704079646879993 0 0 0
1470 3 12.254129697026002 4.716472045261 0 0 0 0
1466 1 14.296330208805003 5.896198241261999 1.2704079646879993 0 0 0
1478 3 16.338836823462003 4.716472045261 0 0 0 0
1474 1 18.381037335241004 5.896198241261999 1.2704079646879993 0 0 0
1486 3 20.423543949898004 4.716472045261 0 0 0 0
1482 1 22.465744461677005 5.896198241261999 1.2704079646879993 0 0 0
1494 3 24.508251076334005 4.716472045261 0 0 0 0
1490 1 26.550451588113006 5.896198241261999 1.2704079646879993 0 0 0
1502 3 28.592958202770006 4.716472045261 0 0 0 0
1498 1 30.635158714549007 5.896198241261999 1.2704079646879993 0 0 0
1510 3 32.67766532920601 4.716472045261 0 0 0 0
1506 1 34.71986584098501 5.896198241261999 1.2704079646879993 0 0 0
1518 3 36.76237245564201 4.716472045261 0 0 0 0
1514 1 38.80457296742101 5.896198241261999 1.2704079646879993 0 0 0
1526 3 40.84707958207801 4.716472045261 0 0 0 0
1522 1 42.88928009385701 5.896198241261999 1.2704079646879993 0 0 0
1534 3 44.93178670851401 4.716472045261 0 0 0 0
1530 1 46.973987220293 5.896198241261999 1.2704079646879993 0 0 0
1350 3 49.016493834950005 4.716472045261 0 -1 0 0
1346 1 51.058694346729 5.896198241261999 1.2704079646879993 -1 0 0
1358 3 53.101200961386 4.716472045261 0 -1 0 0
1354 1 55.143401473165 5.896198241261999 1.2704079646879993 -1 0 0
1366 3 57.185908087822 4.716472045261 0 -1 0 0
1362 1 59.228108599601 5.896198241261999 1.2704079646879993 -1 0 0
1374 3 61.270615214258 4.716472045261 0 -1 0 0
1370 1 63.312815726037 5.896198241261999 1.2704079646879993 -1 0 0
1382 3 65.355322340694 4.716472045261 0 -1 0 0
1378 1 67.397522852473 5.896198241261999 1.2704079646879993 -1 0 0
1390 3 69.44002946713 4.716472045261 0 -1 0 0
1386 1 71.482229978909 5.896198241261999 1.2704079646879993 -1 0 0
1398 3 73.524736593566 4.716472045261 0 -1 0 0
1394 1 75.566937105345 5.896198241261999 1.2704079646879993 -1 0 0
1406 3 77.609443720002 4.716472045261 0 -1 0 0
1402 1 79.651644231781 5.896198241261999 1.2704079646879993 -1 0 0
1414 3 81.69415084643799 4.716472045261 0 -1 0 0
1410 1 83.73635135821701 5.896198241261999 1.2704079646879993 -1 0 0
1422 3 85.778857972874 4.716472045261 0 -1 0 0
1418 1 87.82105848465301 5.896198241261999 1.2704079646879993 -1 0 0
1430 3 89.86356509931 4.716472045261 0 -1 0 0
1426 1 91.90576561108901 5.896198241261999 1.2704079646879993 -1 0 0
1438 3 93.948272225746 4.716472045261 0 -1 0 0
1434 1 95.99047273752501 5.896198241261999 1.2704079646879993 -1 0 0
1637 3 2.0423618809360065 8.253932183774005 0 0 0 0
1645 3 6.1270690073720075 8.253932183774005 0 0 0 0
1653 3 10.211776133808002 8.253932183774005 0 0 0 0
1661 3 14.296483260244003 8.253932183774005 0 0 0 0
1669 3 18.381190386680004 8.253932183774005 0 0 0 0
1677 3 22.465897513116005 8.253932183774005 0 0 0 0
1685 3 26.550604639552006 8.253932183774005 0 0 0 0
1693 3 30.635311765988007 8.253932183774005 0 0 0 0
1701 3 34.72001889242401 8.253932183774005 0 0 0 0
1709 3 38.80472601886001 8.253932183774005 0 0 0 0
1717 3 42.88943314529601 8.253932183774005 0 0 0 0
1725 3 46.97414027173201 8.253932183774005 0 0 0 0
1541 3 51.058847398168005 8.253932183774005 0 -1 0 0
1549 3 55.143554524604 8.253932183774005 0 -1 0 0
1557 3 59.22826165104 8.253932183774005 0 -1 0 0
1565 3 63.312968777476 8.253932183774005 0 -1 0 0
1573 3 67.397675903912 8.253932183774005 0 -1 0 0
1581 3 71.482383030348 8.253932183774005 0 -1 0 0
1589 3 75.567090156784 8.253932183774005 0 -1 0 0
1597 3 79.65179728322 8.253932183774005 0 -1 0 0
1605 3 83.73650440965599 8.253932183774005 0 -1 0 0
1613 3 87.821211536092 8.253932183774005 0 -1 0 0
1621 3 91.905918662528 8.253932183774005 0 -1 0 0
1629 3 95.990625788964 8.253932183774005 0 -1 0 0
1633 1 4.084562392715007 9.433658379775004 1.2704079646879993 0 0 0
1641 1 8.169269519151001 9.433658379775004 1.2704079646879993 0 0 0
1649 1 12.253976645587002 9.433658379775004 1.2704079646879993 0 0 0
1657 1 16.338683772023003 9.433658379775004 1.2704079646879993 0 0 0
1665 1 20.423390898459004 9.433658379775004 1.2704079646879993 0 0 0
1673 1 24.508098024895006 9.433658379775004 1.2704079646879993 0 0 0
1681 1 28.592805151331007 9.433658379775004 1.2704079646879993 0 0 0
1689 1 32.67751227776701 9.433658379775004 1.2704079646879993 0 0 0
1697 1 36.76221940420301 9.433658379775004 1.2704079646879993 0 0 0
1705 1 40.84692653063901 9.433658379775004 1.2704079646879993 0 0 0
1713 1 44.93163365707501 9.433658379775004 1.2704079646879993 0 0 0
1721 1 49.016340783511 9.433658379775004 1.2704079646879993 0 0 0
1537 1 53.101047909947 9.433658379775004 1.2704079646879993 -1 0 0
1545 1 57.185755036383 9.433658379775004 1.2704079646879993 -1 0 0
1553 1 61.270462162819 9.433658379775004 1.2704079646879993 -1 0 0
1561 1 65.355169289255 9.433658379775004 1.2704079646879993 -1 0 0
1569 1 69.439876415691 9.433658379775004 1.2704079646879993 -1 0 0
1577 1 73.524583542127 9.433658379775004 1.2704079646879993 -1 0 0
1585 1 77.609290668563 9.433658379775004 1.2704079646879993 -1 0 0
1593 1 81.693997794999 9.433658379775004 1.2704079646879993 -1 0 0
1601 1 85.77870492143501 9.433658379775004 1.2704079646879993 -1 0 0
1609 1 89.86341204787101 9.433658379775004 1.2704079646879993 -1 0 0
1617 1 93.94811917430701 9.433658379775004 1.2704079646879993 -1 0 0
1625 1 98.03282630074301 9.433658379775004 1.2704079646879993 -1 0 0
1638 3 8.317718005912411e-06 11.791392322287003 0 0 0 0
1646 3 4.084715444154007 11.791392322287003 0 0 0 0
1654 3 8.169422570590001 11.791392322287003 0 0 0 0
1662 3 12.254129697026002 11.791392322287003 0 0 0 0
1670 3 16.338836823462003 11.791392322287003 0 0 0 0
1678 3 20.423543949898004 11.791392322287003 0 0 0 0
1686 3 24.508251076334005 11.791392322287003 0 0 0 0
1694 3 28.592958202770006 11.791392322287003 0 0 0 0
1702 3 32.67766532920601 11.791392322287003 0 0 0 0
1710 3 36.76237245564201 11.791392322287003 0 0 0 0
1718 3 40.84707958207801 11.791392322287003 0 0 0 0
1726 3 44.93178670851401 11.791392322287003 0 0 0 0
1542 3 49.016493834950005 11.791392322287003 0 -1 0 0
1550 3 53.101200961386 11.791392322287003 0 -1 0 0
1558 3 57.185908087822 11.791392322287003 0 -1 0 0
1566 3 61.270615214258 11.791392322287003 0 -1 0 0
1574 3 65.355322340694 11.791392322287003 0 -1 0 0
1582 3 69.44002946713 11.791392322287003 0 -1 0 0
1590 3 73.524736593566 11.791392322287003 0 -1 0 0
1598 3 77.609443720002 11.791392322287003 0 -1 0 0
1606 3 81.69415084643799 11.791392322287003 0 -1 0 0
1614 3 85.778857972874 11.791392322287003 0 -1 0 0
1622 3 89.86356509931 11.791392322287003 0 -1 0 0
1630 3 93.948272225746 11.791392322287003 0 -1 0 0
1634 1 2.0422088294970067 12.971118518288002 1.2704079646879993 0 0 0
1642 1 6.126915955933008 12.971118518288002 1.2704079646879993 0 0 0
1650 1 10.211623082369002 12.971118518288002 1.2704079646879993 0 0 0
1658 1 14.296330208805003 12.971118518288002 1.2704079646879993 0 0 0
1666 1 18.381037335241004 12.971118518288002 1.2704079646879993 0 0 0
1674 1 22.465744461677005 12.971118518288002 1.2704079646879993 0 0 0
1682 1 26.550451588113006 12.971118518288002 1.2704079646879993 0 0 0
1690 1 30.635158714549007 12.971118518288002 1.2704079646879993 0 0 0
1698 1 34.71986584098501 12.971118518288002 1.2704079646879993 0 0 0
1706 1 38.80457296742101 12.971118518288002 1.2704079646879993 0 0 0
1714 1 42.88928009385701 12.971118518288002 1.2704079646879993 0 0 0
1722 1 46.973987220293 12.971118518288002 1.2704079646879993 0 0 0
1538 1 51.058694346729 12.971118518288002 1.2704079646879993 -1 0 0
1546 1 55.143401473165 12.971118518288002 1.2704079646879993 -1 0 0
1554 1 59.228108599601 12.971118518288002 1.2704079646879993 -1 0 0
1562 1 63.312815726037 12.971118518288002 1.2704079646879993 -1 0 0
1570 1 67.397522852473 12.971118518288002 1.2704079646879993 -1 0 0
1578 1 71.482229978909 12.971118518288002 1.2704079646879993 -1 0 0
1586 1 75.566937105345 12.971118518288002 1.2704079646879993 -1 0 0
1594 1 79.651644231781 12.971118518288002 1.2704079646879993 -1 0 0
1602 1 83.73635135821701 12.971118518288002 1.2704079646879993 -1 0 0
1610 1 87.82105848465301 12.971118518288002 1.2704079646879993 -1 0 0
1618 1 91.90576561108901 12.971118518288002 1.2704079646879993 -1 0 0
1626 1 95.99047273752501 12.971118518288002 1.2704079646879993 -1 0 0
1829 3 2.0423618809360065 15.328852460800007 0 0 0 0
1825 1 4.084562392715007 16.508578656801006 1.2704079646879993 0 0 0
1837 3 6.1270690073720075 15.328852460800007 0 0 0 0
1833 1 8.169269519151001 16.508578656801006 1.2704079646879993 0 0 0
1845 3 10.211776133808002 15.328852460800007 0 0 0 0
1841 1 12.253976645587002 16.508578656801006 1.2704079646879993 0 0 0
1853 3 14.296483260244003 15.328852460800007 0 0 0 0
1849 1 16.338683772023003 16.508578656801006 1.2704079646879993 0 0 0
1861 3 18.381190386680004 15.328852460800007 0 0 0 0
1857 1 20.423390898459004 16.508578656801006 1.2704079646879993 0 0 0
1869 3 22.465897513116005 15.328852460800007 0 0 0 0
1865 1 24.508098024895006 16.508578656801006 1.2704079646879993 0 0 0
1877 3 26.550604639552006 15.328852460800007 0 0 0 0
1873 1 28.592805151331007 16.508578656801006 1.2704079646879993 0 0 0
1885 3 30.635311765988007 15.328852460800007 0 0 0 0
1881 1 32.67751227776701 16.508578656801006 1.2704079646879993 0 0 0
1893 3 34.72001889242401 15.328852460800007 0 0 0 0
1889 1 36.76221940420301 16.508578656801006 1.2704079646879993 0 0 0
1901 3 38.80472601886001 15.328852460800007 0 0 0 0
1897 1 40.84692653063901 16.508578656801006 1.2704079646879993 0 0 0
1909 3 42.88943314529601 15.328852460800007 0 0 0 0
1905 1 44.93163365707501 16.508578656801006 1.2704079646879993 0 0 0
1917 3 46.97414027173201 15.328852460800007 0 0 0 0
1913 1 49.016340783511 16.508578656801006 1.2704079646879993 0 0 0
1733 3 51.058847398168005 15.328852460800007 0 -1 0 0
1729 1 53.101047909947 16.508578656801006 1.2704079646879993 -1 0 0
1741 3 55.143554524604 15.328852460800007 0 -1 0 0
1737 1 57.185755036383 16.508578656801006 1.2704079646879993 -1 0 0
1749 3 59.22826165104 15.328852460800007 0 -1 0 0
1745 1 61.270462162819 16.508578656801006 1.2704079646879993 -1 0 0
1757 3 63.312968777476 15.328852460800007 0 -1 0 0
1753 1 65.355169289255 16.508578656801006 1.2704079646879993 -1 0 0
1765 3 67.397675903912 15.328852460800007 0 -1 0 0
1761 1 69.439876415691 16.508578656801006 1.2704079646879993 -1 0 0
1773 3 71.482383030348 15.328852460800007 0 -1 0 0
1769 1 73.524583542127 16.508578656801006 1.2704079646879993 -1 0 0
1781 3 75.567090156784 15.328852460800007 0 -1 0 0
1777 1 77.609290668563 16.508578656801006 1.2704079646879993 -1 0 0
1789 3 79.65179728322 15.328852460800007 0 -1 0 0
1785 1 81.693997794999 16.508578656801006 1.2704079646879993 -1 0 0
1797 3 83.73650440965599 15.328852460800007 0 -1 0 0
1793 1 85.77870492143501 16.508578656801006 1.2704079646879993 -1 0 0
1805 3 87.821211536092 15.328852460800007 0 -1 0 0
1801 1 89.86341204787101 16.508578656801006 1.2704079646879993 -1 0 0
1813 3 91.905918662528 15.328852460800007 0 -1 0 0
1809 1 93.94811917430701 16.508578656801006 1.2704079646879993 -1 0 0
1821 3 95.990625788964 15.328852460800007 0 -1 0 0
1817 1 98.03282630074301 16.508578656801006 1.2704079646879993 -1 0 0
1830 3 8.317718005912411e-06 18.866312599313005 0 0 0 0
1838 3 4.084715444154007 18.866312599313005 0 0 0 0
1846 3 8.169422570590001 18.866312599313005 0 0 0 0
1854 3 12.254129697026002 18.866312599313005 0 0 0 0
1862 3 16.338836823462003 18.866312599313005 0 0 0 0
1870 3 20.423543949898004 18.866312599313005 0 0 0 0
1878 3 24.508251076334005 18.866312599313005 0 0 0 0
1886 3 28.592958202770006 18.866312599313005 0 0 0 0
1894 3 32.67766532920601 18.866312599313005 0 0 0 0
1902 3 36.76237245564201 18.866312599313005 0 0 0 0
1910 3 40.84707958207801 18.866312599313005 0 0 0 0
1918 3 44.93178670851401 18.866312599313005 0 0 0 0
1734 3 49.016493834950005 18.866312599313005 0 -1 0 0
1742 3 53.101200961386 18.866312599313005 0 -1 0 0
1750 3 57.185908087822 18.866312599313005 0 -1 0 0
1758 3 61.270615214258 18.866312599313005 0 -1 0 0
1766 3 65.355322340694 18.866312599313005 0 -1 0 0
1774 3 69.44002946713 18.866312599313005 0 -1 0 0
1782 3 73.524736593566 18.866312599313005 0 -1 0 0
1790 3 77.609443720002 18.866312599313005 0 -1 0 0
1798 3 81.69415084643799 18.866312599313005 0 -1 0 0
1806 3 85.778857972874 18.866312599313005 0 -1 0 0
1814 3 89.86356509931 18.866312599313005 0 -1 0 0
1822 3 93.948272225746 18.866312599313005 0 -1 0 0
1826 1 2.0422088294970067 20.046038795314004 1.2704079646879993 0 0 0
1834 1 6.126915955933008 20.046038795314004 1.2704079646879993 0 0 0
1842 1 10.211623082369002 20.046038795314004 1.2704079646879993 0 0 0
1850 1 14.296330208805003 20.046038795314004 1.2704079646879993 0 0 0
1858 1 18.381037335241004 20.046038795314004 1.2704079646879993 0 0 0
1866 1 22.465744461677005 20.046038795314004 1.2704079646879993 0 0 0
1874 1 26.550451588113006 20.046038795314004 1.2704079646879993 0 0 0
1882 1 30.635158714549007 20.046038795314004 1.2704079646879993 0 0 0
1890 1 34.71986584098501 20.046038795314004 1.2704079646879993 0 0 0
1898 1 38.80457296742101 20.046038795314004 1.2704079646879993 0 0 0
1906 1 42.88928009385701 20.046038795314004 1.2704079646879993 0 0 0
1914 1 46.973987220293 20.046038795314004 1.2704079646879993 0 0 0
1730 1 51.058694346729 20.046038795314004 1.2704079646879993 -1 0 0
1738 1 55.143401473165 20.046038795314004 1.2704079646879993 -1 0 0
1746 1 59.228108599601 20.046038795314004 1.2704079646879993 -1 0 0
1754 1 63.312815726037 20.046038795314004 1.2704079646879993 -1 0 0
1762 1 67.397522852473 20.046038795314004 1.2704079646879993 -1 0 0
1770 1 71.482229978909 20.046038795314004 1.2704079646879993 -1 0 0
1778 1 75.566937105345 20.046038795314004 1.2704079646879993 -1 0 0
1786 1 79.651644231781 20.046038795314004 1.2704079646879993 -1 0 0
1794 1 83.73635135821701 20.046038795314004 1.2704079646879993 -1 0 0
1802 1 87.82105848465301 20.046038795314004 1.2704079646879993 -1 0 0
1810 1 91.90576561108901 20.046038795314004 1.2704079646879993 -1 0 0
1818 1 95.99047273752501 20.046038795314004 1.2704079646879993 -1 0 0
2021 3 2.0423618809360065 22.403772737826003 0 0 0 0
2029 3 6.1270690073720075 22.403772737826003 0 0 0 0
2037 3 10.211776133808002 22.403772737826003 0 0 0 0
2045 3 14.296483260244003 22.403772737826003 0 0 0 0
2053 3 18.381190386680004 22.403772737826003 0 0 0 0
2061 3 22.465897513116005 22.403772737826003 0 0 0 0
2069 3 26.550604639552006 22.403772737826003 0 0 0 0
2077 3 30.635311765988007 22.403772737826003 0 0 0 0
2085 3 34.72001889242401 22.403772737826003 0 0 0 0
2093 3 38.80472601886001 22.403772737826003 0 0 0 0
2101 3 42.88943314529601 22.403772737826003 0 0 0 0
2109 3 46.97414027173201 22.403772737826003 0 0 0 0
1925 3 51.058847398168005 22.403772737826003 0 -1 0 0
1933 3 55.143554524604 22.403772737826003 0 -1 0 0
1941 3 59.22826165104 22.403772737826003 0 -1 0 0
1949 3 63.312968777476 22.403772737826003 0 -1 0 0
1957 3 67.397675903912 22.403772737826003 0 -1 0 0
1965 3 71.482383030348 22.403772737826003 0 -1 0 0
1973 3 75.567090156784 22.403772737826003 0 -1 0 0
1981 3 79.65179728322 22.403772737826003 0 -1 0 0
1989 3 83.73650440965599 22.403772737826003 0 -1 0 0
1997 3 87.821211536092 22.403772737826003 0 -1 0 0
2005 3 91.905918662528 22.403772737826003 0 -1 0 0
2013 3 95.990625788964 22.403772737826003 0 -1 0 0
2017 1 4.084562392715007 23.583498933827002 1.2704079646879993 0 0 0
2025 1 8.169269519151001 23.583498933827002 1.2704079646879993 0 0 0
2033 1 12.253976645587002 23.583498933827002 1.2704079646879993 0 0 0
2041 1 16.338683772023003 23.583498933827002 1.2704079646879993 0 0 0
2049 1 20.423390898459004 23.583498933827002 1.2704079646879993 0 0 0
2057 1 24.508098024895006 23.583498933827002 1.2704079646879993 0 0 0
2065 1 28.592805151331007 23.583498933827002 1.2704079646879993 0 0 0
2073 1 32.67751227776701 23.583498933827002 1.2704079646879993 0 0 0
2081 1 36.76221940420301 23.583498933827002 1.2704079646879993 0 0 0
2089 1 40.84692653063901 23.583498933827002 1.2704079646879993 0 0 0
2097 1 44.93163365707501 23.583498933827002 1.2704079646879993 0 0 0
2105 1 49.016340783511 23.583498933827002 1.2704079646879993 0 0 0
1921 1 53.101047909947 23.583498933827002 1.2704079646879993 -1 0 0
1929 1 57.185755036383 23.583498933827002 1.2704079646879993 -1 0 0
1937 1 61.270462162819 23.583498933827002 1.2704079646879993 -1 0 0
1945 1 65.355169289255 23.583498933827002 1.2704079646879993 -1 0 0
1953 1 69.439876415691 23.583498933827002 1.2704079646879993 -1 0 0
1961 1 73.524583542127 23.583498933827002 1.2704079646879993 -1 0 0
1969 1 77.609290668563 23.583498933827002 1.2704079646879993 -1 0 0
1977 1 81.693997794999 23.583498933827002 1.2704079646879993 -1 0 0
1985 1 85.77870492143501 23.583498933827002 1.2704079646879993 -1 0 0
1993 1 89.86341204787101 23.583498933827002 1.2704079646879993 -1 0 0
2001 1 93.94811917430701 23.583498933827002 1.2704079646879993 -1 0 0
2009 1 98.03282630074301 23.583498933827002 1.2704079646879993 -1 0 0
2022 3 8.317718005912411e-06 25.941232876339 0 0 0 0
2018 1 2.0422088294970067 27.12095907234 1.2704079646879993 0 0 0
2030 3 4.084715444154007 25.941232876339 0 0 0 0
2026 1 6.126915955933008 27.12095907234 1.2704079646879993 0 0 0
2038 3 8.169422570590001 25.941232876339 0 0 0 0
2034 1 10.211623082369002 27.12095907234 1.2704079646879993 0 0 0
2046 3 12.254129697026002 25.941232876339 0 0 0 0
2042 1 14.296330208805003 27.12095907234 1.2704079646879993 0 0 0
2054 3 16.338836823462003 25.941232876339 0 0 0 0
2050 1 18.381037335241004 27.12095907234 1.2704079646879993 0 0 0
2062 3 20.423543949898004 25.941232876339 0 0 0 0
2058 1 22.465744461677005 27.12095907234 1.2704079646879993 0 0 0
2070 3 24.508251076334005 25.941232876339 0 0 0 0
2066 1 26.550451588113006 27.12095907234 1.2704079646879993 0 0 0
2078 3 28.592958202770006 25.941232876339 0 0 0 0
2074 1 30.635158714549007 27.12095907234 1.2704079646879993 0 0 0
2086 3 32.67766532920601 25.941232876339 0 0 0 0
2082 1 34.71986584098501 27.12095907234 1.2704079646879993 0 0 0
2094 3 36.76237245564201 25.941232876339 0 0 0 0
2090 1 38.80457296742101 27.12095907234 1.2704079646879993 0 0 0
2102 3 40.84707958207801 25.941232876339 0 0 0 0
2098 1 42.88928009385701 27.12095907234 1.2704079646879993 0 0 0
2110 3 44.93178670851401 25.941232876339 0 0 0 0
2106 1 46.973987220293 27.12095907234 1.2704079646879993 0 0 0
1926 3 49.016493834950005 25.941232876339 0 -1 0 0
1922 1 51.058694346729 27.12095907234 1.2704079646879993 -1 0 0
1934 3 53.101200961386 25.941232876339 0 -1 0 0
1930 1 55.143401473165 27.12095907234 1.2704079646879993 -1 0 0
1942 3 57.185908087822 25.941232876339 0 -1 0 0
1938 1 59.228108599601 27.12095907234 1.2704079646879993 -1 0 0
1950 3 61.270615214258 25.941232876339 0 -1 0 0
1946 1 63.312815726037 27.12095907234 1.2704079646879993 -1 0 0
1958 3 65.355322340694 25.941232876339 0 -1 0 0
1954 1 67.397522852473 27.12095907234 1.2704079646879993 -1 0 0
1966 3 69.44002946713 25.941232876339 0 -1 0 0
1962 1 71.482229978909 27.12095907234 1.2704079646879993 -1 0 0
1974 3 73.524736593566 25.941232876339 0 -1 0 0
1970 1 75.566937105345 27.12095907234 1.2704079646879993 -1 0 0
1982 3 77.609443720002 25.941232876339 0 -1 0 0
1978 1 79.651644231781 27.12095907234 1.2704079646879993 -1 0 0
1990 3 81.69415084643799 25.941232876339 0 -1 0 0
1986 1 83.73635135821701 27.12095907234 1.2704079646879993 -1 0 0
1998 3 85.778857972874 25.941232876339 0 -1 0 0
1994 1 87.82105848465301 27.12095907234 1.2704079646879993 -1 0 0
2006 3 89.86356509931 25.941232876339 0 -1 0 0
2002 1 91.90576561108901 27.12095907234 1.2704079646879993 -1 0 0
2014 3 93.948272225746 25.941232876339 0 -1 0 0
2010 1 95.99047273752501 27.12095907234 1.2704079646879993 -1 0 0
2213 3 2.0423618809360065 29.478693014852 0 0 0 0
2221 3 6.1270690073720075 29.478693014852 0 0 0 0
2229 3 10.211776133808002 29.478693014852 0 0 0 0
2237 3 14.296483260244003 29.478693014852 0 0 0 0
2245 3 18.381190386680004 29.478693014852 0 0 0 0
2253 3 22.465897513116005 29.478693014852 0 0 0 0
2261 3 26.550604639552006 29.478693014852 0 0 0 0
2269 3 30.635311765988007 29.478693014852 0 0 0 0
2277 3 34.72001889242401 29.478693014852 0 0 0 0
2285 3 38.80472601886001 29.478693014852 0 0 0 0
2293 3 42.88943314529601 29.478693014852 0 0 0 0
2301 3 46.97414027173201 29.478693014852 0 0 0 0
2117 3 51.058847398168005 29.478693014852 0 -1 0 0
2125 3 55.143554524604 29.478693014852 0 -1 0 0
2133 3 59.22826165104 29.478693014852 0 -1 0 0
2141 3 63.312968777476 29.478693014852 0 -1 0 0
2149 3 67.397675903912 29.478693014852 0 -1 0 0
2157 3 71.482383030348 29.478693014852 0 -1 0 0
2165 3 75.567090156784 29.478693014852 0 -1 0 0
2173 3 79.65179728322 29.478693014852 0 -1 0 0
2181 3 83.73650440965599 29.478693014852 0 -1 0 0
2189 3 87.821211536092 29.478693014852 0 -1 0 0
2197 3 91.905918662528 29.478693014852 0 -1 0 0
2205 3 95.990625788964 29.478693014852 0 -1 0 0
2209 1 4.084562392715007 30.658419210852998 1.2704079646879993 0 0 0
2217 1 8.169269519151001 30.658419210852998 1.2704079646879993 0 0 0
2225 1 12.253976645587002 30.658419210852998 1.2704079646879993 0 0 0
2233 1 16.338683772023003 30.658419210852998 1.2704079646879993 0 0 0
2241 1 20.423390898459004 30.658419210852998 1.2704079646879993 0 0 0
2249 1 24.508098024895006 30.658419210852998 1.2704079646879993 0 0 0
2257 1 28.592805151331007 30.658419210852998 1.2704079646879993 0 0 0
2265 1 32.67751227776701 30.658419210852998 1.2704079646879993 0 0 0
2273 1 36.76221940420301 30.658419210852998 1.2704079646879993 0 0 0
2281 1 40.84692653063901 30.658419210852998 1.2704079646879993 0 0 0
2289 1 44.93163365707501 30.658419210852998 1.2704079646879993 0 0 0
2297 1 49.016340783511 30.658419210852998 1.2704079646879993 0 0 0
2113 1 53.101047909947 30.658419210852998 1.2704079646879993 -1 0 0
2121 1 57.185755036383 30.658419210852998 1.2704079646879993 -1 0 0
2129 1 61.270462162819 30.658419210852998 1.2704079646879993 -1 0 0
2137 1 65.355169289255 30.658419210852998 1.2704079646879993 -1 0 0
2145 1 69.439876415691 30.658419210852998 1.2704079646879993 -1 0 0
2153 1 73.524583542127 30.658419210852998 1.2704079646879993 -1 0 0
2161 1 77.609290668563 30.658419210852998 1.2704079646879993 -1 0 0
2169 1 81.693997794999 30.658419210852998 1.2704079646879993 -1 0 0
2177 1 85.77870492143501 30.658419210852998 1.2704079646879993 -1 0 0
2185 1 89.86341204787101 30.658419210852998 1.2704079646879993 -1 0 0
2193 1 93.94811917430701 30.658419210852998 1.2704079646879993 -1 0 0
2201 1 98.03282630074301 30.658419210852998 1.2704079646879993 -1 0 0
2214 3 8.317718005912411e-06 33.016153153364996 0 0 0 0
2222 3 4.084715444154007 33.016153153364996 0 0 0 0
2230 3 8.169422570590001 33.016153153364996 0 0 0 0
2238 3 12.254129697026002 33.016153153364996 0 0 0 0
2246 3 16.338836823462003 33.016153153364996 0 0 0 0
2254 3 20.423543949898004 33.016153153364996 0 0 0 0
2262 3 24.508251076334005 33.016153153364996 0 0 0 0
2270 3 28.592958202770006 33.016153153364996 0 0 0 0
2278 3 32.67766532920601 33.016153153364996 0 0 0 0
2286 3 36.76237245564201 33.016153153364996 0 0 0 0
2294 3 40.84707958207801 33.016153153364996 0 0 0 0
2302 3 44.93178670851401 33.016153153364996 0 0 0 0
2118 3 49.016493834950005 33.016153153364996 0 -1 0 0
2126 3 53.101200961386 33.016153153364996 0 -1 0 0
2134 3 57.185908087822 33.016153153364996 0 -1 0 0
2142 3 61.270615214258 33.016153153364996 0 -1 0 0
2150 3 65.355322340694 33.016153153364996 0 -1 0 0
2158 3 69.44002946713 33.016153153364996 0 -1 0 0
2166 3 73.524736593566 33.016153153364996 0 -1 0 0
2174 3 77.609443720002 33.016153153364996 0 -1 0 0
2182 3 81.69415084643799 33.016153153364996 0 -1 0 0
2190 3 85.778857972874 33.016153153364996 0 -1 0 0
2198 3 89.86356509931 33.016153153364996 0 -1 0 0
2206 3 93.948272225746 33.016153153364996 0 -1 0 0
2210 1 2.0422088294970067 34.195879349365995 1.2704079646879993 0 0 0
2218 1 6.126915955933008 34.195879349365995 1.2704079646879993 0 0 0
2226 1 10.211623082369002 34.195879349365995 1.2704079646879993 0 0 0
2234 1 14.296330208805003 34.195879349365995 1.2704079646879993 0 0 0
2242 1 18.381037335241004 34.195879349365995 1.2704079646879993 0 0 0
2250 1 22.465744461677005 34.195879349365995 1.2704079646879993 0 0 0
2258 1 26.550451588113006 34.195879349365995 1.2704079646879993 0 0 0
2266 1 30.635158714549007 34.195879349365995 1.2704079646879993 0 0 0
2274 1 34.71986584098501 34.195879349365995 1.2704079646879993 0 0 0
2282 1 38.80457296742101 34.195879349365995 1.2704079646879993 0 0 0
2290 1 42.88928009385701 34.195879349365995 1.2704079646879993 0 0 0
2298 1 46.973987220293 34.195879349365995 1.2704079646879993 0 0 0
2114 1 51.058694346729 34.195879349365995 1.2704079646879993 -1 0 0
2122 1 55.143401473165 34.195879349365995 1.2704079646879993 -1 0 0
2130 1 59.228108599601 34.195879349365995 1.2704079646879993 -1 0 0
2138 1 63.312815726037 34.195879349365995 1.2704079646879993 -1 0 0
2146 1 67.397522852473 34.195879349365995 1.2704079646879993 -1 0 0
2154 1 71.482229978909 34.195879349365995 1.2704079646879993 -1 0 0
2162 1 75.566937105345 34.195879349365995 1.2704079646879993 -1 0 0
2170 1 79.651644231781 34.195879349365995 1.2704079646879993 -1 0 0
2178 1 83.73635135821701 34.195879349365995 1.2704079646879993 -1 0 0
2186 1 87.82105848465301 34.195879349365995 1.2704079646879993 -1 0 0
2194 1 91.90576561108901 34.195879349365995 1.2704079646879993 -1 0 0
2202 1 95.99047273752501 34.195879349365995 1.2704079646879993 -1 0 0
2405 3 2.0423618809360065 36.55361329187801 0 0 0 0
2401 1 4.084562392715007 37.73333948787901 1.2704079646879993 0 0 0
2413 3 6.1270690073720075 36.55361329187801 0 0 0 0
2409 1 8.169269519151001 37.73333948787901 1.2704079646879993 0 0 0
2421 3 10.211776133808002 36.55361329187801 0 0 0 0
2417 1 12.253976645587002 37.73333948787901 1.2704079646879993 0 0 0
2429 3 14.296483260244003 36.55361329187801 0 0 0 0
2425 1 16.338683772023003 37.73333948787901 1.2704079646879993 0 0 0
2437 3 18.381190386680004 36.55361329187801 0 0 0 0
2433 1 20.423390898459004 37.73333948787901 1.2704079646879993 0 0 0
2445 3 22.465897513116005 36.55361329187801 0 0 0 0
2441 1 24.508098024895006 37.73333948787901 1.2704079646879993 0 0 0
2453 3 26.550604639552006 36.55361329187801 0 0 0 0
2449 1 28.592805151331007 37.73333948787901 1.2704079646879993 0 0 0
2461 3 30.635311765988007 36.55361329187801 0 0 0 0
2457 1 32.67751227776701 37.73333948787901 1.2704079646879993 0 0 0
2469 3 34.72001889242401 36.55361329187801 0 0 0 0
2465 1 36.76221940420301 37.73333948787901 1.2704079646879993 0 0 0
2477 3 38.80472601886001 36.55361329187801 0 0 0 0