LAMMPS data file via write_data, version 29 Aug 2024, timestep = 1, units = metal

6120 atoms
6 atom types

0 100.49977866141 xlo xhi
0 98.640076248222 ylo yhi
-50 50 zlo zhi

Masses

1 54.938044
2 54.938044
3 32.06
4 32.06
5 32.06
6 32.06

Atoms # atomic

1534 1 1.6749963110234736 1.1391287066597846e-06 1.3210907356505452 0 0 0
1540 1 5.024988933070473 1.1391287066542457e-06 1.3210907356505452 0 0 0
1536 4 1.6749963110231834 1.9341267456807167 0.001669985558773285 0 0 0
1713 1 2.148010920832313e-14 2.9011798523117065 1.321090735650544 0 0 0
1719 1 3.3499926220470204 2.901179852311707 1.3210907356505452 0 0 0
1542 4 5.024988933070185 1.9341267456807167 0.001669985558773172 0 0 0
1721 4 3.3499926220468095 4.835305458863718 0.0016699855587743702 0 0 0
1538 3 3.3499926220467877 0.9650426427596125 2.6364154490995255 0 0 0
1711 3 1.6749963110237094 3.8662213559426135 2.636415449099527 0 0 0
1717 3 5.024988933070711 3.8662213559426135 2.636415449099527 0 0 0
1546 1 8.374981555117472 1.1391287066542457e-06 1.3210907356505452 0 0 0
1552 1 11.724974177164473 1.1391287066542457e-06 1.321090735650545 0 0 0
1725 1 6.69998524409402 2.9011798523117074 1.3210907356505452 0 0 0
1548 4 8.374981555117184 1.9341267456807174 0.0016699855587742798 0 0 0
1731 1 10.04997786614102 2.9011798523117065 1.321090735650544 0 0 0
1554 4 11.724974177164187 1.9341267456807167 0.0016699855587731713 0 0 0
1727 4 6.699985244093808 4.835305458863718 0.0016699855587731683 0 0 0
1733 4 10.04997786614081 4.835305458863718 0.001669985558774284 0 0 0
1544 3 6.699985244093787 0.965042642759613 2.636415449099527 0 0 0
1550 3 10.04997786614079 0.9650426427596126 2.6364154490995255 0 0 0
1723 3 8.37498155511771 3.866221355942613 2.6364154490995255 0 0 0
1729 3 11.72497417716471 3.8662213559426135 2.636415449099527 0 0 0
1558 1 15.074966799211474 1.1391287066542457e-06 1.3210907356505452 0 0 0
1737 1 13.39997048818802 2.901179852311707 1.3210907356505452 0 0 0
1560 4 15.074966799211186 1.9341267456807174 0.001669985558774367 0 0 0
1743 1 16.749963110235022 2.901179852311708 1.3210907356505475 0 0 0
1739 4 13.39997048818781 4.835305458863718 0.0016699855587731676 0 0 0
1745 4 16.749963110234813 4.835305458863718 0.0016699855587732869 0 0 0
1556 3 13.399970488187789 0.965042642759613 2.636415449099527 0 0 0
1562 3 16.74996311023479 0.9650426427596127 2.636415449099527 0 0 0
1735 3 15.074966799211708 3.866221355942613 2.636415449099526 0 0 0
1564 1 18.424959421258475 1.1391287066653236e-06 1.3210907356505452 0 0 0
1570 1 21.774952043305472 1.1391287066597846e-06 1.3210907356505452 0 0 0
1566 4 18.424959421258183 1.934126745680717 0.0016699855587733667 0 0 0
1749 1 20.09995573228202 2.901179852311707 1.3210907356505452 0 0 0
1572 4 21.77495204330518 1.9341267456807167 0.001669985558773198 0 0 0
1755 1 23.44994835432902 2.9011798523117065 1.3210907356505428 0 0 0
1751 4 20.09995573228181 4.835305458863718 0.0016699855587733732 0 0 0
1757 4 23.449948354328807 4.8353054588637185 0.0016699855587754885 0 0 0
1568 3 20.09995573228179 0.9650426427596129 2.636415449099527 0 0 0
1574 3 23.449948354328786 0.9650426427596122 2.6364154490995246 0 0 0
1741 3 18.424959421258713 3.8662213559426135 2.636415449099527 0 0 0
1747 3 21.77495204330571 3.8662213559426135 2.636415449099527 0 0 0
1576 1 25.124944665352473 1.1391287066597846e-06 1.321090735650545 0 0 0
1582 1 28.474937287399474 1.1391287066708626e-06 1.3210907356505452 0 0 0
1578 4 25.12494466535219 1.9341267456807167 0.001669985558773224 0 0 0
1761 1 26.79994097637602 2.901179852311707 1.3210907356505452 0 0 0
1584 4 28.47493728739919 1.9341267456807179 0.0016699855587754852 0 0 0
1763 4 26.799940976375808 4.835305458863718 0.0016699855587732216 0 0 0
1580 3 26.799940976375787 0.965042642759613 2.636415449099527 0 0 0
1753 3 25.12494466535271 3.8662213559426135 2.636415449099527 0 0 0
1759 3 28.474937287399708 3.866221355942612 2.6364154490995246 0 0 0
1588 1 31.824929909446478 1.1391287066597846e-06 1.3210907356505452 0 0 0
1594 1 35.17492253149347 1.1391287066653236e-06 1.3210907356505452 0 0 0
1767 1 30.149933598423022 2.901179852311707 1.3210907356505452 0 0 0
1590 4 31.824929909446187 1.934126745680717 0.0016699855587733693 0 0 0
1773 1 33.499926220470016 2.901179852311707 1.3210907356505452 0 0 0
1596 4 35.17492253149319 1.934126745680717 0.001669985558773369 0 0 0
1769 4 30.149933598422816 4.835305458863718 0.001669985558773201 0 0 0
1775 4 33.49992622046981 4.835305458863718 0.0016699855587733725 0 0 0
1586 3 30.149933598422795 0.965042642759613 2.636415449099527 0 0 0
1592 3 33.49992622046979 0.9650426427596129 2.636415449099527 0 0 0
1765 3 31.82492990944671 3.8662213559426135 2.636415449099527 0 0 0
1771 3 35.174922531493706 3.8662213559426135 2.636415449099527 0 0 0
1600 1 38.524915153540476 1.1391287066597846e-06 1.3210907356505452 0 0 0
1779 1 36.84991884251702 2.901179852311708 1.3210907356505475 0 0 0
1602 4 38.524915153540185 1.934126745680717 0.0016699855587733697 0 0 0
1785 1 40.19991146456402 2.901179852311707 1.3210907356505452 0 0 0
1781 4 36.84991884251681 4.835305458863718 0.0016699855587733725 0 0 0
1787 4 40.199911464563804 4.835305458863718 0.0016699855587733732 0 0 0
1598 3 36.849918842516786 0.9650426427596127 2.636415449099527 0 0 0
1604 3 40.19991146456378 0.9650426427596129 2.636415449099527 0 0 0
1777 3 38.52491515354071 3.8662213559426135 2.636415449099527 0 0 0
1606 1 41.874907775587474 1.1391287066653236e-06 1.3210907356505452 0 0 0
1612 1 45.22490039763447 1.1391287066597846e-06 1.321090735650545 0 0 0
1608 4 41.87490777558718 1.9341267456807167 0.0016699855587731952 0 0 0
1791 1 43.54990408661102 2.9011798523117065 1.3210907356505428 0 0 0
1614 4 45.22490039763419 1.9341267456807167 0.0016699855587732216 0 0 0
1797 1 46.89989670865802 2.901179852311707 1.3210907356505452 0 0 0
1793 4 43.54990408661081 4.8353054588637185 0.0016699855587754891 0 0 0
1799 4 46.899896708657806 4.835305458863718 0.0016699855587732218 0 0 0
1610 3 43.54990408661079 0.9650426427596122 2.636415449099524 0 0 0
1616 3 46.899896708657785 0.965042642759613 2.636415449099527 0 0 0
1783 3 41.87490777558771 3.8662213559426135 2.636415449099527 0 0 0
1789 3 45.224900397634705 3.8662213559426135 2.636415449099527 0 0 0
1618 1 48.574893019681475 1.1391287066791711e-06 1.3210907356505452 0 0 0
1444 1 51.92488564172848 1.1391287066542457e-06 1.3210907356505452 -1 0 0
1620 4 48.574893019681184 1.9341267456807179 0.0016699855587754004 0 0 0
1623 1 50.249889330705024 2.9011798523117074 1.3210907356505464 -1 0 0
1446 4 51.92488564172819 1.9341267456807167 0.0016699855587731707 -1 0 0
1625 4 50.24988933070482 4.835305458863718 0.0016699855587741922 -1 0 0
1442 3 50.2498893307048 0.9650426427596125 2.636415449099526 -1 0 0
1795 3 48.57489301968171 3.8662213559426126 2.6364154490995246 0 0 0
1621 3 51.924885641728714 3.8662213559426135 2.636415449099527 -1 0 0
1450 1 55.27487826377548 1.1391287066542457e-06 1.3210907356505452 -1 0 0
1456 1 58.62487088582248 1.1391287066542457e-06 1.321090735650545 -1 0 0
1629 1 53.59988195275203 2.9011798523117074 1.3210907356505452 -1 0 0
1452 4 55.274878263775186 1.9341267456807174 0.0016699855587742787 -1 0 0
1635 1 56.949874574799026 2.9011798523117065 1.321090735650544 -1 0 0
1458 4 58.62487088582219 1.9341267456807167 0.001669985558773172 -1 0 0
1631 4 53.599881952751815 4.835305458863718 0.0016699855587731672 -1 0 0
1637 4 56.94987457479882 4.835305458863718 0.001669985558774284 -1 0 0
1448 3 53.599881952751794 0.965042642759613 2.636415449099527 -1 0 0
1454 3 56.9498745747988 0.9650426427596126 2.6364154490995255 -1 0 0
1627 3 55.27487826377571 3.866221355942613 2.6364154490995255 -1 0 0
1633 3 58.624870885822716 3.8662213559426135 2.636415449099527 -1 0 0
1462 1 61.97486350786948 1.1391287066542457e-06 1.3210907356505452 -1 0 0
1641 1 60.29986719684602 2.9011798523117074 1.3210907356505464 -1 0 0
1464 4 61.97486350786919 1.9341267456807174 0.001669985558774367 -1 0 0
1647 1 63.64985981889303 2.9011798523117074 1.3210907356505464 -1 0 0
1643 4 60.29986719684582 4.835305458863718 0.0016699855587731685 -1 0 0
1649 4 63.649859818892814 4.835305458863718 0.0016699855587732878 -1 0 0
1460 3 60.299867196845796 0.9650426427596129 2.636415449099527 -1 0 0
1466 3 63.64985981889279 0.9650426427596129 2.636415449099527 -1 0 0
1639 3 61.97486350786971 3.866221355942613 2.636415449099526 -1 0 0
1468 1 65.32485612991648 1.1391287066653236e-06 1.3210907356505452 -1 0 0
1474 1 68.67484875196348 1.1391287066597846e-06 1.3210907356505452 -1 0 0
1470 4 65.32485612991618 1.934126745680717 0.001669985558773367 -1 0 0
1653 1 66.99985244094003 2.901179852311707 1.3210907356505452 -1 0 0
1476 4 68.67484875196318 1.9341267456807167 0.0016699855587731973 -1 0 0
1659 1 70.34984506298703 2.9011798523117065 1.3210907356505428 -1 0 0
1655 4 66.99985244093982 4.835305458863718 0.0016699855587733728 -1 0 0
1661 4 70.34984506298682 4.8353054588637185 0.0016699855587754885 -1 0 0
1472 3 66.99985244093979 0.9650426427596129 2.636415449099527 -1 0 0
1478 3 70.34984506298679 0.9650426427596122 2.636415449099524 -1 0 0
1645 3 65.32485612991672 3.8662213559426135 2.636415449099527 -1 0 0
1651 3 68.67484875196372 3.8662213559426135 2.636415449099527 -1 0 0
1480 1 72.02484137401048 1.1391287066597846e-06 1.321090735650545 -1 0 0
1486 1 75.37483399605748 1.1391287066708626e-06 1.3210907356505452 -1 0 0
1482 4 72.0248413740102 1.9341267456807167 0.0016699855587732234 -1 0 0
1665 1 73.69983768503403 2.901179852311707 1.3210907356505452 -1 0 0
1488 4 75.37483399605719 1.9341267456807179 0.0016699855587754846 -1 0 0
1667 4 73.69983768503381 4.835305458863718 0.0016699855587732208 -1 0 0
1484 3 73.6998376850338 0.965042642759613 2.636415449099527 -1 0 0
1657 3 72.02484137401072 3.8662213559426135 2.636415449099527 -1 0 0
1663 3 75.37483399605772 3.866221355942612 2.6364154490995246 -1 0 0
1492 1 78.72482661810449 1.1391287066597846e-06 1.3210907356505452 -1 0 0
1498 1 82.07481924015148 1.1391287066653236e-06 1.3210907356505452 -1 0 0
1671 1 77.04983030708102 2.901179852311707 1.3210907356505452 -1 0 0
1494 4 78.72482661810419 1.934126745680717 0.0016699855587733686 -1 0 0
1677 1 80.39982292912802 2.901179852311708 1.3210907356505475 -1 0 0
1500 4 82.07481924015119 1.934126745680717 0.001669985558773369 -1 0 0
1673 4 77.04983030708082 4.835305458863718 0.0016699855587732002 -1 0 0
1679 4 80.39982292912782 4.835305458863718 0.001669985558773372 -1 0 0
1490 3 77.0498303070808 0.965042642759613 2.636415449099527 -1 0 0
1496 3 80.3998229291278 0.9650426427596127 2.636415449099527 -1 0 0
1669 3 78.72482661810471 3.8662213559426135 2.636415449099527 -1 0 0
1675 3 82.07481924015173 3.8662213559426135 2.636415449099527 -1 0 0
1504 1 85.42481186219848 1.1391287066597846e-06 1.3210907356505452 -1 0 0
1683 1 83.74981555117502 2.9011798523117065 1.3210907356505428 -1 0 0
1506 4 85.42481186219818 1.9341267456807167 0.0016699855587731975 -1 0 0
1689 1 87.09980817322203 2.901179852311707 1.3210907356505452 -1 0 0
1685 4 83.74981555117482 4.835305458863718 0.001669985558773372 -1 0 0
1691 4 87.09980817322182 4.8353054588637185 0.0016699855587754893 -1 0 0
1502 3 83.74981555117479 0.9650426427596132 2.6364154490995264 -1 0 0
1508 3 87.09980817322179 0.9650426427596119 2.6364154490995246 -1 0 0
1681 3 85.42481186219871 3.8662213559426135 2.636415449099527 -1 0 0
1510 1 88.77480448424548 1.1391287066597846e-06 1.321090735650545 -1 0 0
1516 1 92.12479710629248 1.1391287065933171e-06 1.321090735650545 -1 0 0
1512 4 88.7748044842452 1.934126745680717 0.0016699855587733949 -1 0 0
1695 1 90.44980079526903 2.901179852311708 1.3210907356505475 -1 0 0
1518 4 92.12479710629219 1.9341267456807179 0.0016699855587755008 -1 0 0
1701 1 93.79979341731602 2.9011798523117065 1.3210907356505428 -1 0 0
1697 4 90.44980079526881 4.835305458863716 0.0016699855587711068 -1 0 0
1703 4 93.79979341731581 4.8353054588637185 0.0016699855587755108 -1 0 0
1514 3 90.44980079526879 0.9650426427596138 2.636415449099529 -1 0 0
1520 3 93.7997934173158 0.9650426427596122 2.6364154490995246 -1 0 0
1687 3 88.77480448424572 3.8662213559426135 2.636415449099527 -1 0 0
1693 3 92.12479710629272 3.866221355942612 2.6364154490995246 -1 0 0
1715 4 100.49977866140982 4.835305458863718 0.0016699855587732019 -1 0 0
1532 3 100.49977866140979 0.9650426427596132 2.636415449099527 -1 0 0
1522 1 95.47478972833947 1.1391287066653236e-06 1.321090735650545 -1 0 0
1528 1 98.82478235038647 1.1391287066708626e-06 1.3210907356505452 -1 0 0
1524 4 95.47478972833919 1.9341267456807156 0.001669985558771105 -1 0 0
1707 1 97.14978603936302 2.901179852311708 1.3210907356505472 -1 0 0
1530 4 98.82478235038619 1.9341267456807179 0.0016699855587754893 -1 0 0
1709 4 97.14978603936281 4.835305458863718 0.001669985558773393 -1 0 0
1526 3 97.1497860393628 0.9650426427596127 2.636415449099527 -1 0 0
1699 3 95.47478972833972 3.8662213559426144 2.636415449099529 -1 0 0
1705 3 98.82478235038671 3.8662213559426126 2.6364154490995246 -1 0 0
1714 1 1.6749963110234736 5.802358565494708 1.3210907356505452 0 0 0
1720 1 5.024988933070473 5.802358565494708 1.3210907356505452 0 0 0
1716 4 1.6749963110231834 7.736484172046718 0.001669985558773285 0 0 0
1722 4 5.024988933070185 7.736484172046718 0.001669985558773172 0 0 0
1893 1 2.148010920832313e-14 8.703537278677707 1.321090735650544 0 0 0
1899 1 3.3499926220470204 8.703537278677707 1.3210907356505452 0 0 0
1901 4 3.3499926220468095 10.63766288522972 0.0016699855587743702 0 0 0
1718 3 3.3499926220467877 6.767400069125613 2.6364154490995255 0 0 0
1891 3 1.6749963110237094 9.668578782308614 2.636415449099527 0 0 0
1897 3 5.024988933070711 9.668578782308614 2.636415449099527 0 0 0
1726 1 8.374981555117472 5.802358565494708 1.3210907356505452 0 0 0
1732 1 11.724974177164473 5.802358565494708 1.3210907356505452 0 0 0
1728 4 8.374981555117184 7.736484172046718 0.0016699855587742798 0 0 0
1734 4 11.724974177164187 7.736484172046718 0.0016699855587731713 0 0 0
1905 1 6.69998524409402 8.703537278677707 1.3210907356505452 0 0 0
1911 1 10.04997786614102 8.703537278677707 1.321090735650544 0 0 0
1907 4 6.699985244093808 10.637662885229718 0.0016699855587731683 0 0 0
1913 4 10.04997786614081 10.63766288522972 0.001669985558774284 0 0 0
1724 3 6.699985244093787 6.767400069125614 2.636415449099527 0 0 0
1730 3 10.04997786614079 6.767400069125614 2.6364154490995255 0 0 0
1903 3 8.37498155511771 9.668578782308614 2.6364154490995255 0 0 0
1909 3 11.72497417716471 9.668578782308614 2.636415449099527 0 0 0
1738 1 15.074966799211474 5.802358565494708 1.3210907356505452 0 0 0
1740 4 15.074966799211186 7.736484172046718 0.0016699855587743668 0 0 0
1917 1 13.39997048818802 8.703537278677707 1.3210907356505452 0 0 0
1923 1 16.749963110235022 8.70353727867771 1.3210907356505475 0 0 0
1919 4 13.39997048818781 10.637662885229718 0.0016699855587731676 0 0 0
1925 4 16.749963110234813 10.637662885229718 0.0016699855587732869 0 0 0
1736 3 13.399970488187789 6.767400069125614 2.636415449099527 0 0 0
1742 3 16.74996311023479 6.767400069125614 2.636415449099527 0 0 0
1915 3 15.074966799211708 9.668578782308614 2.636415449099526 0 0 0
1744 1 18.424959421258475 5.802358565494708 1.3210907356505452 0 0 0
1750 1 21.774952043305472 5.802358565494708 1.3210907356505452 0 0 0
1746 4 18.424959421258183 7.736484172046718 0.0016699855587733667 0 0 0
1752 4 21.77495204330518 7.736484172046718 0.0016699855587732004 0 0 0
1929 1 20.09995573228202 8.703537278677707 1.3210907356505452 0 0 0
1935 1 23.44994835432902 8.703537278677707 1.3210907356505428 0 0 0
1931 4 20.09995573228181 10.637662885229718 0.0016699855587733732 0 0 0
1937 4 23.449948354328807 10.63766288522972 0.0016699855587754885 0 0 0
1748 3 20.09995573228179 6.767400069125614 2.636415449099527 0 0 0
1754 3 23.449948354328786 6.767400069125613 2.6364154490995246 0 0 0
1921 3 18.424959421258713 9.668578782308614 2.636415449099527 0 0 0
1927 3 21.77495204330571 9.668578782308614 2.636415449099527 0 0 0
1756 1 25.124944665352473 5.802358565494708 1.3210907356505452 0 0 0
1762 1 28.474937287399474 5.802358565494708 1.3210907356505452 0 0 0
1758 4 25.12494466535219 7.736484172046718 0.0016699855587732236 0 0 0
1764 4 28.47493728739919 7.736484172046719 0.001669985558775485 0 0 0
1941 1 26.79994097637602 8.703537278677707 1.3210907356505452 0 0 0
1943 4 26.799940976375808 10.637662885229718 0.0016699855587732216 0 0 0
1760 3 26.799940976375787 6.767400069125614 2.636415449099527 0 0 0
1933 3 25.12494466535271 9.668578782308614 2.636415449099527 0 0 0
1939 3 28.474937287399708 9.668578782308613 2.6364154490995246 0 0 0
1768 1 31.824929909446478 5.802358565494708 1.3210907356505452 0 0 0
1774 1 35.17492253149347 5.802358565494708 1.3210907356505452 0 0 0
1770 4 31.824929909446187 7.736484172046718 0.001669985558773372 0 0 0
1776 4 35.17492253149319 7.736484172046718 0.0016699855587733719 0 0 0
1947 1 30.149933598423022 8.703537278677707 1.3210907356505452 0 0 0
1953 1 33.499926220470016 8.703537278677707 1.3210907356505452 0 0 0
1949 4 30.149933598422816 10.637662885229718 0.001669985558773201 0 0 0
1955 4 33.49992622046981 10.637662885229718 0.0016699855587733725 0 0 0
1766 3 30.149933598422795 6.767400069125614 2.636415449099527 0 0 0
1772 3 33.49992622046979 6.767400069125614 2.636415449099527 0 0 0
1945 3 31.82492990944671 9.668578782308614 2.636415449099527 0 0 0
1951 3 35.174922531493706 9.668578782308614 2.636415449099527 0 0 0
1780 1 38.524915153540476 5.802358565494708 1.3210907356505452 0 0 0
1782 4 38.524915153540185 7.736484172046718 0.0016699855587733725 0 0 0
1959 1 36.84991884251702 8.70353727867771 1.3210907356505475 0 0 0
1965 1 40.19991146456402 8.703537278677707 1.3210907356505452 0 0 0
1961 4 36.84991884251681 10.637662885229718 0.0016699855587733725 0 0 0
1967 4 40.199911464563804 10.637662885229718 0.0016699855587733732 0 0 0
1778 3 36.849918842516786 6.767400069125614 2.636415449099527 0 0 0
1784 3 40.19991146456378 6.767400069125614 2.636415449099527 0 0 0
1957 3 38.52491515354071 9.668578782308614 2.636415449099527 0 0 0
1786 1 41.874907775587474 5.802358565494708 1.3210907356505452 0 0 0
1792 1 45.22490039763447 5.802358565494708 1.3210907356505452 0 0 0
1788 4 41.87490777558718 7.736484172046718 0.0016699855587731952 0 0 0
1794 4 45.22490039763419 7.736484172046718 0.0016699855587732216 0 0 0
1971 1 43.54990408661102 8.703537278677707 1.3210907356505428 0 0 0
1977 1 46.89989670865802 8.703537278677707 1.3210907356505452 0 0 0
1973 4 43.54990408661081 10.63766288522972 0.0016699855587754891 0 0 0
1979 4 46.899896708657806 10.637662885229718 0.0016699855587732218 0 0 0
1790 3 43.54990408661079 6.767400069125613 2.6364154490995246 0 0 0
1796 3 46.899896708657785 6.767400069125614 2.636415449099527 0 0 0
1963 3 41.87490777558771 9.668578782308614 2.636415449099527 0 0 0
1969 3 45.224900397634705 9.668578782308614 2.636415449099527 0 0 0
1798 1 48.574893019681475 5.802358565494708 1.3210907356505452 0 0 0
1624 1 51.92488564172848 5.802358565494708 1.3210907356505452 -1 0 0
1800 4 48.574893019681184 7.736484172046719 0.0016699855587754004 0 0 0
1626 4 51.92488564172819 7.736484172046718 0.0016699855587731707 -1 0 0
1803 1 50.249889330705024 8.70353727867771 1.3210907356505464 -1 0 0
1805 4 50.24988933070482 10.63766288522972 0.0016699855587741922 -1 0 0
1622 3 50.2498893307048 6.767400069125613 2.636415449099526 -1 0 0
1975 3 48.57489301968171 9.668578782308613 2.6364154490995246 0 0 0
1801 3 51.924885641728714 9.668578782308614 2.636415449099527 -1 0 0
1630 1 55.27487826377548 5.802358565494708 1.3210907356505452 -1 0 0
1636 1 58.62487088582248 5.802358565494708 1.3210907356505452 -1 0 0
1632 4 55.274878263775186 7.736484172046718 0.0016699855587742787 -1 0 0
1638 4 58.62487088582219 7.736484172046718 0.001669985558773172 -1 0 0
1809 1 53.59988195275203 8.703537278677707 1.3210907356505452 -1 0 0
1815 1 56.949874574799026 8.703537278677707 1.321090735650544 -1 0 0
1811 4 53.599881952751815 10.637662885229718 0.0016699855587731672 -1 0 0
1817 4 56.94987457479882 10.63766288522972 0.001669985558774284 -1 0 0
1628 3 53.599881952751794 6.767400069125614 2.636415449099527 -1 0 0
1634 3 56.9498745747988 6.767400069125614 2.6364154490995255 -1 0 0
1807 3 55.27487826377571 9.668578782308614 2.6364154490995255 -1 0 0
1813 3 58.624870885822716 9.668578782308614 2.636415449099527 -1 0 0
1642 1 61.97486350786948 5.802358565494708 1.3210907356505452 -1 0 0
1644 4 61.97486350786919 7.736484172046718 0.001669985558774367 -1 0 0
1821 1 60.29986719684602 8.70353727867771 1.3210907356505464 -1 0 0
1827 1 63.64985981889303 8.70353727867771 1.3210907356505464 -1 0 0
1823 4 60.29986719684582 10.637662885229718 0.0016699855587731685 -1 0 0
1829 4 63.649859818892814 10.637662885229718 0.0016699855587732878 -1 0 0
1640 3 60.299867196845796 6.767400069125614 2.636415449099527 -1 0 0
1646 3 63.64985981889279 6.767400069125614 2.636415449099527 -1 0 0
1819 3 61.97486350786971 9.668578782308614 2.636415449099526 -1 0 0
1648 1 65.32485612991648 5.802358565494708 1.3210907356505452 -1 0 0
1654 1 68.67484875196348 5.802358565494708 1.3210907356505452 -1 0 0
1650 4 65.32485612991618 7.736484172046718 0.001669985558773367 -1 0 0
1656 4 68.67484875196318 7.736484172046718 0.0016699855587732002 -1 0 0
1833 1 66.99985244094003 8.703537278677707 1.3210907356505452 -1 0 0
1839 1 70.34984506298703 8.703537278677707 1.3210907356505428 -1 0 0
1835 4 66.99985244093982 10.637662885229718 0.0016699855587733728 -1 0 0
1841 4 70.34984506298682 10.63766288522972 0.0016699855587754885 -1 0 0
1652 3 66.99985244093979 6.767400069125614 2.636415449099527 -1 0 0
1658 3 70.34984506298679 6.767400069125613 2.636415449099524 -1 0 0
1825 3 65.32485612991672 9.668578782308614 2.636415449099527 -1 0 0
1831 3 68.67484875196372 9.668578782308614 2.636415449099527 -1 0 0
1660 1 72.02484137401048 5.802358565494708 1.3210907356505452 -1 0 0
1666 1 75.37483399605748 5.802358565494708 1.3210907356505452 -1 0 0
1662 4 72.0248413740102 7.736484172046718 0.0016699855587732234 -1 0 0
1668 4 75.37483399605719 7.736484172046719 0.0016699855587754846 -1 0 0
1845 1 73.69983768503403 8.703537278677707 1.3210907356505452 -1 0 0
1847 4 73.69983768503381 10.637662885229718 0.0016699855587732208 -1 0 0
1664 3 73.6998376850338 6.767400069125614 2.636415449099527 -1 0 0
1837 3 72.02484137401072 9.668578782308614 2.636415449099527 -1 0 0
1843 3 75.37483399605772 9.668578782308613 2.6364154490995246 -1 0 0
1672 1 78.72482661810449 5.802358565494708 1.3210907356505452 -1 0 0
1678 1 82.07481924015148 5.802358565494708 1.3210907356505452 -1 0 0
1674 4 78.72482661810419 7.736484172046718 0.0016699855587733715 -1 0 0
1680 4 82.07481924015119 7.736484172046718 0.0016699855587733719 -1 0 0
1851 1 77.04983030708102 8.703537278677707 1.3210907356505452 -1 0 0
1857 1 80.39982292912802 8.70353727867771 1.3210907356505475 -1 0 0
1853 4 77.04983030708082 10.637662885229718 0.0016699855587732002 -1 0 0
1859 4 80.39982292912782 10.637662885229718 0.001669985558773372 -1 0 0
1670 3 77.0498303070808 6.767400069125614 2.636415449099527 -1 0 0
1676 3 80.3998229291278 6.767400069125614 2.636415449099527 -1 0 0
1849 3 78.72482661810471 9.668578782308614 2.636415449099527 -1 0 0
1855 3 82.07481924015173 9.668578782308614 2.636415449099527 -1 0 0
1684 1 85.42481186219848 5.802358565494708 1.3210907356505452 -1 0 0
1686 4 85.42481186219818 7.736484172046718 0.0016699855587732004 -1 0 0
1863 1 83.74981555117502 8.703537278677707 1.3210907356505428 -1 0 0
1869 1 87.09980817322203 8.703537278677707 1.3210907356505452 -1 0 0
1865 4 83.74981555117482 10.637662885229718 0.001669985558773372 -1 0 0
1871 4 87.09980817322182 10.63766288522972 0.0016699855587754893 -1 0 0
1682 3 83.74981555117479 6.767400069125614 2.6364154490995264 -1 0 0
1688 3 87.09980817322179 6.767400069125613 2.6364154490995246 -1 0 0
1861 3 85.42481186219871 9.668578782308614 2.636415449099527 -1 0 0
1690 1 88.77480448424548 5.802358565494708 1.3210907356505452 -1 0 0
1696 1 92.12479710629248 5.802358565494708 1.321090735650545 -1 0 0
1692 4 88.7748044842452 7.736484172046718 0.0016699855587733949 -1 0 0
1698 4 92.12479710629219 7.736484172046719 0.0016699855587755036 -1 0 0
1875 1 90.44980079526903 8.70353727867771 1.3210907356505475 -1 0 0
1881 1 93.79979341731602 8.703537278677707 1.3210907356505428 -1 0 0
1877 4 90.44980079526881 10.637662885229718 0.0016699855587711068 -1 0 0
1883 4 93.79979341731581 10.63766288522972 0.0016699855587755108 -1 0 0
1694 3 90.44980079526879 6.767400069125615 2.636415449099529 -1 0 0
1700 3 93.7997934173158 6.767400069125613 2.6364154490995246 -1 0 0
1867 3 88.77480448424572 9.668578782308614 2.636415449099527 -1 0 0
1873 3 92.12479710629272 9.668578782308613 2.6364154490995246 -1 0 0
1895 4 100.49977866140982 10.637662885229718 0.0016699855587732019 -1 0 0
1712 3 100.49977866140979 6.767400069125614 2.636415449099527 -1 0 0
1702 1 95.47478972833947 5.802358565494708 1.3210907356505452 -1 0 0
1708 1 98.82478235038647 5.802358565494708 1.3210907356505452 -1 0 0
1704 4 95.47478972833919 7.736484172046716 0.001669985558771105 -1 0 0
1710 4 98.82478235038619 7.736484172046719 0.0016699855587754893 -1 0 0
1887 1 97.14978603936302 8.70353727867771 1.3210907356505472 -1 0 0
1889 4 97.14978603936281 10.637662885229718 0.001669985558773393 -1 0 0
1706 3 97.1497860393628 6.767400069125614 2.636415449099527 -1 0 0
1879 3 95.47478972833972 9.668578782308616 2.636415449099529 -1 0 0
1885 3 98.82478235038671 9.668578782308613 2.6364154490995246 -1 0 0
1894 1 1.6749963110234736 11.604715991860708 1.3210907356505452 0 0 0
1900 1 5.024988933070473 11.604715991860708 1.3210907356505452 0 0 0
1896 4 1.6749963110231834 13.538841598412718 0.0016699855587733203 0 0 0
1902 4 5.024988933070185 13.538841598412718 0.0016699855587732101 0 0 0
2073 1 2.147457024256544e-14 14.505894705043705 1.3210907356505437 0 0 0
2079 1 3.3499926220470204 14.505894705043705 1.3210907356505448 0 0 0
2081 4 3.3499926220468095 16.440020311595713 0.0016699855587733465 0 0 0
1898 3 3.3499926220467877 12.569757495491615 2.6364154490995255 0 0 0
2071 3 1.6749963110237094 15.47093620867461 2.636415449099528 0 0 0
2077 3 5.024988933070711 15.47093620867461 2.636415449099528 0 0 0
1906 1 8.374981555117472 11.604715991860708 1.3210907356505452 0 0 0
1912 1 11.724974177164473 11.604715991860708 1.3210907356505452 0 0 0
1908 4 8.374981555117184 13.53884159841272 0.001669985558774318 0 0 0
1914 4 11.724974177164187 13.538841598412718 0.0016699855587732095 0 0 0
2085 1 6.69998524409402 14.505894705043705 1.321090735650545 0 0 0
2091 1 10.04997786614102 14.505894705043705 1.3210907356505437 0 0 0
2087 4 6.699985244093808 16.440020311595713 0.001669985558772145 0 0 0
2093 4 10.04997786614081 16.440020311595713 0.001669985558773261 0 0 0
1904 3 6.699985244093787 12.569757495491615 2.636415449099527 0 0 0
1910 3 10.04997786614079 12.569757495491615 2.6364154490995255 0 0 0
2083 3 8.37498155511771 15.47093620867461 2.6364154490995273 0 0 0
2089 3 11.72497417716471 15.47093620867461 2.636415449099528 0 0 0
1918 1 15.074966799211474 11.604715991860708 1.3210907356505452 0 0 0
1920 4 15.074966799211186 13.53884159841272 0.0016699855587744047 0 0 0
2097 1 13.39997048818802 14.505894705043705 1.3210907356505448 0 0 0
2103 1 16.749963110235022 14.505894705043707 1.321090735650547 0 0 0
2099 4 13.39997048818781 16.440020311595713 0.0016699855587721441 0 0 0
2105 4 16.749963110234813 16.440020311595713 0.0016699855587722578 0 0 0
1916 3 13.399970488187789 12.569757495491615 2.636415449099527 0 0 0
1922 3 16.74996311023479 12.569757495491615 2.636415449099527 0 0 0
2095 3 15.074966799211708 15.47093620867461 2.6364154490995273 0 0 0
1924 1 18.424959421258475 11.604715991860708 1.3210907356505452 0 0 0
1930 1 21.774952043305472 11.604715991860708 1.3210907356505452 0 0 0
1926 4 18.424959421258183 13.538841598412718 0.0016699855587734075 0 0 0
1932 4 21.77495204330518 13.538841598412718 0.001669985558773237 0 0 0
2109 1 20.09995573228202 14.505894705043705 1.3210907356505448 0 0 0
2115 1 23.44994835432902 14.505894705043705 1.3210907356505426 0 0 0
2111 4 20.09995573228181 16.440020311595713 0.0016699855587723443 0 0 0
2117 4 23.449948354328807 16.440020311595713 0.0016699855587744596 0 0 0
1928 3 20.09995573228179 12.569757495491615 2.6364154490995264 0 0 0
1934 3 23.449948354328786 12.569757495491613 2.636415449099524 0 0 0
2101 3 18.424959421258713 15.47093620867461 2.636415449099528 0 0 0
2107 3 21.77495204330571 15.47093620867461 2.636415449099528 0 0 0
1936 1 25.124944665352473 11.604715991860708 1.3210907356505452 0 0 0
1942 1 28.474937287399474 11.604715991860708 1.3210907356505452 0 0 0
1938 4 25.12494466535219 13.538841598412718 0.001669985558773259 0 0 0
1944 4 28.47493728739919 13.53884159841272 0.0016699855587755201 0 0 0
2121 1 26.79994097637602 14.505894705043705 1.3210907356505448 0 0 0
2123 4 26.799940976375808 16.440020311595713 0.0016699855587721845 0 0 0
1940 3 26.799940976375787 12.569757495491615 2.6364154490995264 0 0 0
2113 3 25.12494466535271 15.47093620867461 2.636415449099528 0 0 0
2119 3 28.474937287399708 15.470936208674608 2.636415449099526 0 0 0
1948 1 31.824929909446478 11.604715991860708 1.3210907356505452 0 0 0
1954 1 35.17492253149347 11.604715991860708 1.3210907356505452 0 0 0
1950 4 31.824929909446187 13.538841598412718 0.0016699855587734075 0 0 0
1956 4 35.17492253149319 13.538841598412718 0.001669985558773407 0 0 0
2127 1 30.149933598423022 14.505894705043705 1.3210907356505448 0 0 0
2133 1 33.499926220470016 14.505894705043705 1.3210907356505448 0 0 0
2129 4 30.149933598422816 16.440020311595713 0.0016699855587721708 0 0 0
2135 4 33.49992622046981 16.440020311595713 0.0016699855587723436 0 0 0
1946 3 30.149933598422795 12.569757495491615 2.6364154490995264 0 0 0
1952 3 33.49992622046979 12.569757495491615 2.6364154490995264 0 0 0
2125 3 31.82492990944671 15.47093620867461 2.636415449099528 0 0 0
2131 3 35.174922531493706 15.47093620867461 2.636415449099528 0 0 0