LAMMPS data file via write_data, version 29 Aug 2024, timestep = 2, units = metal

9180 atoms
9 atom types

0 100.49977866141 xlo xhi
0 98.640076248222 ylo yhi
-50 50 zlo zhi

Masses

1 54.938044
2 54.938044
3 54.938044
4 32.06
5 32.06
6 32.06
7 32.06
8 32.06
9 32.06

Atoms # atomic

1536 5 1.6749963110233026 1.934130238923581 0.0021549306790270236 0 0 0
1719 1 3.3499926220469587 2.900541928810741 1.3191136169783761 0 0 0
1542 5 5.024988933070303 1.934130238923581 0.002154930679027423 0 0 0
1721 5 3.3499926220468486 4.835308952106582 0.002154930679028024 0 0 0
1538 4 3.349992622046824 0.9642858546128285 2.636037078292712 0 0 0
1711 4 1.6749963110236263 3.8654645677958293 2.6360370782927123 0 0 0
1717 4 5.024988933070627 3.8654645677958293 2.6360370782927127 0 0 0
1714 1 1.674996311023425 5.801720641993741 1.3191136169783761 0 0 0
1720 1 5.024988933070424 5.801720641993741 1.3191136169783761 0 0 0
1725 1 6.699985244093959 2.900541928810741 1.3191136169783764 0 0 0
1548 5 8.374981555117301 1.9341302389235817 0.0021549306790277 0 0 0
1731 1 10.04997786614096 2.9005419288107404 1.3191136169783753 0 0 0
1554 5 11.724974177164304 1.9341302389235808 0.0021549306790270136 0 0 0
1727 5 6.699985244093848 4.8353089521065815 0.0021549306790273628 0 0 0
1733 5 10.04997786614085 4.835308952106582 0.0021549306790277956 0 0 0
1544 4 6.699985244093823 0.964285854612829 2.6360370782927127 0 0 0
1550 4 10.049977866140825 0.9642858546128287 2.636037078292712 0 0 0
1723 4 8.374981555117627 3.865464567795829 2.636037078292712 0 0 0
1729 4 11.724974177164626 3.8654645677958293 2.6360370782927127 0 0 0
1726 1 8.374981555117424 5.801720641993741 1.3191136169783761 0 0 0
1732 1 11.724974177164425 5.801720641993741 1.3191136169783766 0 0 0
1737 1 13.399970488187959 2.900541928810741 1.3191136169783764 0 0 0
1560 5 15.074966799211303 1.934130238923582 0.0021549306790288776 0 0 0
1743 1 16.749963110234958 2.9005419288107412 1.319113616978377 0 0 0
1739 5 13.399970488187849 4.8353089521065815 0.0021549306790274673 0 0 0
1745 5 16.749963110234848 4.8353089521065815 0.0021549306790279643 0 0 0
1556 4 13.399970488187824 0.9642858546128289 2.6360370782927127 0 0 0
1562 4 16.749963110234827 0.9642858546128283 2.6360370782927127 0 0 0
1735 4 15.074966799211627 3.8654645677958293 2.6360370782927123 0 0 0
1738 1 15.074966799211426 5.801720641993741 1.3191136169783761 0 0 0
1566 5 18.424959421258304 1.9341302389235815 0.002154930679028146 0 0 0
1749 1 20.09995573228196 2.900541928810741 1.3191136169783761 0 0 0
1572 5 21.7749520433053 1.9341302389235808 0.002154930679026696 0 0 0
1755 1 23.44994835432896 2.9005419288107404 1.3191136169783755 0 0 0
1751 5 20.09995573228185 4.8353089521065815 0.002154930679027203 0 0 0
1757 5 23.449948354328846 4.835308952106582 0.002154930679028156 0 0 0
1568 4 20.099955732281824 0.964285854612829 2.6360370782927127 0 0 0
1574 4 23.449948354328825 0.9642858546128285 2.636037078292711 0 0 0
1741 4 18.42495942125863 3.8654645677958297 2.636037078292713 0 0 0
1747 4 21.77495204330563 3.8654645677958293 2.6360370782927123 0 0 0
1744 1 18.424959421258425 5.801720641993741 1.3191136169783761 0 0 0
1750 1 21.774952043305426 5.801720641993741 1.3191136169783761 0 0 0
1578 5 25.124944665352306 1.9341302389235808 0.0021549306790268922 0 0 0
1761 1 26.79994097637596 2.900541928810741 1.319113616978376 0 0 0
1584 5 28.474937287399307 1.9341302389235824 0.002154930679028967 0 0 0
1763 5 26.799940976375847 4.8353089521065815 0.0021549306790276616 0 0 0
1580 4 26.799940976375826 0.9642858546128289 2.6360370782927123 0 0 0
1753 4 25.124944665352626 3.8654645677958293 2.6360370782927123 0 0 0
1759 4 28.474937287399626 3.8654645677958284 2.6360370782927114 0 0 0
1756 1 25.124944665352423 5.801720641993741 1.3191136169783761 0 0 0
1762 1 28.474937287399428 5.801720641993741 1.3191136169783764 0 0 0
1767 1 30.14993359842296 2.900541928810741 1.3191136169783761 0 0 0
1590 5 31.824929909446308 1.9341302389235813 0.002154930679027657 0 0 0
1773 1 33.49992622046996 2.900541928810741 1.3191136169783766 0 0 0
1596 5 35.1749225314933 1.9341302389235815 0.002154930679027845 0 0 0
1769 5 30.14993359842285 4.8353089521065815 0.0021549306790273975 0 0 0
1775 5 33.49992622046985 4.8353089521065815 0.00215493067902735 0 0 0
1586 4 30.14993359842283 0.9642858546128289 2.6360370782927127 0 0 0
1592 4 33.49992622046983 0.964285854612829 2.6360370782927127 0 0 0
1765 4 31.824929909446627 3.8654645677958293 2.6360370782927127 0 0 0
1771 4 35.17492253149362 3.8654645677958297 2.6360370782927136 0 0 0
1768 1 31.82492990944643 5.801720641993741 1.3191136169783761 0 0 0
1774 1 35.17492253149343 5.801720641993741 1.319113616978376 0 0 0
1779 1 36.849918842516956 2.9005419288107412 1.3191136169783775 0 0 0
1602 5 38.5249151535403 1.9341302389235815 0.002154930679027831 0 0 0
1785 1 40.199911464563954 2.900541928810741 1.3191136169783761 0 0 0
1781 5 36.84991884251685 4.8353089521065815 0.0021549306790276408 0 0 0
1787 5 40.19991146456385 4.8353089521065815 0.002154930679027311 0 0 0
1598 4 36.84991884251683 0.9642858546128285 2.636037078292713 0 0 0
1604 4 40.199911464563826 0.964285854612829 2.6360370782927127 0 0 0
1777 4 38.524915153540626 3.8654645677958297 2.636037078292713 0 0 0
1780 1 38.52491515354043 5.801720641993741 1.319113616978376 0 0 0
1608 5 41.874907775587296 1.934130238923581 0.002154930679027337 0 0 0
1791 1 43.54990408661096 2.90054192881074 1.3191136169783744 0 0 0
1614 5 45.22490039763431 1.9341302389235808 0.002154930679026575 0 0 0
1797 1 46.899896708657955 2.9005419288107412 1.3191136169783768 0 0 0
1793 5 43.549904086610844 4.835308952106582 0.002154930679028173 0 0 0
1799 5 46.89989670865784 4.8353089521065815 0.0021549306790276416 0 0 0
1610 4 43.54990408661082 0.9642858546128286 2.636037078292711 0 0 0
1616 4 46.89989670865782 0.9642858546128289 2.6360370782927123 0 0 0
1783 4 41.87490777558762 3.865464567795829 2.636037078292712 0 0 0
1789 4 45.22490039763462 3.8654645677958293 2.6360370782927123 0 0 0
1786 1 41.874907775587424 5.801720641993741 1.3191136169783761 0 0 0
1792 1 45.22490039763442 5.801720641993741 1.3191136169783761 0 0 0
1620 5 48.574893019681305 1.9341302389235826 0.0021549306790293464 0 0 0
1623 1 50.24988933070496 2.9005419288107412 1.3191136169783764 -1 0 0
1446 5 51.92488564172831 1.9341302389235813 0.0021549306790280024 -1 0 0
1625 5 50.24988933070485 4.835308952106582 0.002154930679028457 -1 0 0
1442 4 50.24988933070483 0.9642858546128281 2.636037078292712 -1 0 0
1795 4 48.574893019681625 3.865464567795829 2.6360370782927114 0 0 0
1621 4 51.92488564172863 3.8654645677958293 2.6360370782927123 -1 0 0
1798 1 48.574893019681426 5.801720641993741 1.3191136169783764 0 0 0
1624 1 51.92488564172843 5.801720641993741 1.319113616978376 -1 0 0
1629 1 53.599881952751964 2.900541928810741 1.3191136169783761 -1 0 0
1452 5 55.27487826377531 1.9341302389235815 0.0021549306790275826 -1 0 0
1635 1 56.94987457479896 2.9005419288107404 1.319113616978376 -1 0 0
1458 5 58.62487088582231 1.9341302389235813 0.0021549306790278303 -1 0 0
1631 5 53.59988195275185 4.8353089521065815 0.0021549306790277947 -1 0 0
1637 5 56.949874574798855 4.835308952106582 0.0021549306790275037 -1 0 0
1448 4 53.59988195275183 0.9642858546128289 2.6360370782927123 -1 0 0
1454 4 56.949874574798834 0.9642858546128288 2.636037078292712 -1 0 0
1627 4 55.274878263775626 3.865464567795829 2.636037078292712 -1 0 0
1633 4 58.62487088582263 3.8654645677958293 2.6360370782927123 -1 0 0
1630 1 55.27487826377543 5.801720641993741 1.3191136169783761 -1 0 0
1636 1 58.62487088582243 5.801720641993741 1.3191136169783761 -1 0 0
1641 1 60.299867196845966 2.900541928810741 1.3191136169783764 -1 0 0
1464 5 61.97486350786931 1.934130238923582 0.0021549306790283364 -1 0 0
1647 1 63.64985981889296 2.900541928810741 1.3191136169783766 -1 0 0
1643 5 60.29986719684585 4.8353089521065815 0.0021549306790279977 -1 0 0
1649 5 63.64985981889286 4.8353089521065815 0.0021549306790279504 -1 0 0
1460 4 60.29986719684583 0.9642858546128287 2.6360370782927123 -1 0 0
1466 4 63.649859818892836 0.9642858546128286 2.6360370782927123 -1 0 0
1639 4 61.97486350786963 3.8654645677958293 2.6360370782927127 -1 0 0
1642 1 61.97486350786943 5.801720641993741 1.319113616978376 -1 0 0
1470 5 65.32485612991631 1.9341302389235815 0.002154930679028222 -1 0 0
1653 1 66.99985244093996 2.900541928810741 1.3191136169783761 -1 0 0
1476 5 68.67484875196331 1.934130238923581 0.0021549306790266728 -1 0 0
1659 1 70.34984506298697 2.9005419288107404 1.3191136169783757 -1 0 0
1655 5 66.99985244093985 4.8353089521065815 0.0021549306790272556 -1 0 0
1661 5 70.34984506298686 4.835308952106582 0.002154930679028171 -1 0 0
1472 4 66.99985244093983 0.964285854612829 2.6360370782927127 -1 0 0
1478 4 70.34984506298683 0.9642858546128285 2.636037078292711 -1 0 0
1645 4 65.32485612991664 3.8654645677958293 2.6360370782927123 -1 0 0
1651 4 68.67484875196364 3.8654645677958293 2.6360370782927123 -1 0 0
1648 1 65.32485612991644 5.801720641993741 1.3191136169783768 -1 0 0
1654 1 68.67484875196344 5.80172064199374 1.3191136169783748 -1 0 0
1482 5 72.02484137401031 1.9341302389235808 0.0021549306790266867 -1 0 0
1665 1 73.69983768503397 2.900541928810741 1.3191136169783761 -1 0 0
1488 5 75.3748339960573 1.9341302389235822 0.002154930679028666 -1 0 0
1667 5 73.69983768503386 4.8353089521065815 0.002154930679027094 -1 0 0
1484 4 73.69983768503383 0.9642858546128291 2.636037078292713 -1 0 0
1657 4 72.02484137401063 3.8654645677958293 2.6360370782927123 -1 0 0
1663 4 75.37483399605763 3.8654645677958284 2.636037078292712 -1 0 0
1660 1 72.02484137401044 5.801720641993741 1.3191136169783761 -1 0 0
1666 1 75.37483399605743 5.801720641993741 1.3191136169783777 -1 0 0
1671 1 77.04983030708097 2.900541928810741 1.319113616978376 -1 0 0
1494 5 78.72482661810432 1.9341302389235813 0.0021549306790276807 -1 0 0
1677 1 80.39982292912796 2.9005419288107412 1.3191136169783768 -1 0 0
1500 5 82.07481924015131 1.9341302389235813 0.0021549306790274235 -1 0 0
1673 5 77.04983030708085 4.835308952106582 0.002154930679028422 -1 0 0
1679 5 80.39982292912785 4.8353089521065815 0.0021549306790276477 -1 0 0
1490 4 77.04983030708084 0.9642858546128285 2.636037078292712 -1 0 0
1496 4 80.39982292912784 0.9642858546128286 2.636037078292713 -1 0 0
1669 4 78.72482661810464 3.8654645677958297 2.6360370782927136 -1 0 0
1675 4 82.07481924015164 3.8654645677958297 2.6360370782927127 -1 0 0
1672 1 78.72482661810443 5.801720641993741 1.3191136169783761 -1 0 0
1678 1 82.07481924015144 5.801720641993741 1.319113616978376 -1 0 0
1683 1 83.74981555117496 2.9005419288107404 1.3191136169783757 -1 0 0
1506 5 85.42481186219831 1.9341302389235815 0.0021549306790279955 -1 0 0
1689 1 87.09980817322197 2.900541928810741 1.3191136169783764 -1 0 0
1685 5 83.74981555117485 4.8353089521065815 0.002154930679026849 -1 0 0
1691 5 87.09980817322186 4.835308952106582 0.0021549306790284778 -1 0 0
1502 4 83.74981555117483 0.9642858546128293 2.6360370782927123 -1 0 0
1508 4 87.09980817322183 0.9642858546128281 2.6360370782927114 -1 0 0
1681 4 85.42481186219864 3.865464567795829 2.636037078292711 -1 0 0
1684 1 85.42481186219844 5.80172064199374 1.3191136169783748 -1 0 0
1512 5 88.77480448424531 1.9341302389235815 0.0021549306790275987 -1 0 0
1695 1 90.44980079526897 2.9005419288107412 1.3191136169783768 -1 0 0
1518 5 92.1247971062923 1.9341302389235822 0.002154930679028613 -1 0 0
1701 1 93.79979341731597 2.9005419288107404 1.3191136169783757 -1 0 0
1697 5 90.44980079526886 4.835308952106581 0.002154930679025934 -1 0 0
1703 5 93.79979341731585 4.835308952106582 0.0021549306790282718 -1 0 0
1514 4 90.44980079526883 0.9642858546128297 2.636037078292715 -1 0 0
1520 4 93.79979341731584 0.9642858546128286 2.636037078292711 -1 0 0
1687 4 88.77480448424564 3.8654645677958297 2.636037078292713 -1 0 0
1693 4 92.12479710629263 3.8654645677958284 2.636037078292712 -1 0 0
1690 1 88.77480448424544 5.801720641993741 1.3191136169783761 -1 0 0
1696 1 92.12479710629243 5.801720641993741 1.3191136169783775 -1 0 0
1713 1 100.49977866140996 2.900541928810741 1.3191136169783753 -1 0 0
1715 5 100.49977866140985 4.835308952106582 0.002154930679027604 -1 0 0
1532 4 100.49977866140983 0.9642858546128288 2.636037078292712 -1 0 0
1524 5 95.4747897283393 1.9341302389235804 0.002154930679025829 -1 0 0
1707 1 97.14978603936297 2.9005419288107417 1.3191136169783784 -1 0 0
1530 5 98.8247823503863 1.9341302389235824 0.0021549306790295338 -1 0 0
1709 5 97.14978603936285 4.8353089521065815 0.0021549306790274885 -1 0 0
1526 4 97.14978603936282 0.9642858546128285 2.636037078292713 -1 0 0
1699 4 95.47478972833963 3.865464567795831 2.636037078292714 -1 0 0
1705 4 98.82478235038664 3.8654645677958284 2.6360370782927105 -1 0 0
1702 1 95.47478972833943 5.80172064199374 1.3191136169783746 -1 0 0
1708 1 98.82478235038643 5.801720641993741 1.319113616978377 -1 0 0
1716 5 1.6749963110233026 7.736487665289582 0.0021549306790269564 0 0 0
1722 5 5.024988933070303 7.736487665289582 0.0021549306790272916 0 0 0
1899 1 3.3499926220469587 8.702899355176742 1.3191136169783764 0 0 0
1901 5 3.3499926220468486 10.637666378472584 0.0021549306790279383 0 0 0
1718 4 3.349992622046824 6.76664328097883 2.636037078292712 0 0 0
1891 4 1.6749963110236263 9.66782199416183 2.6360370782927127 0 0 0
1897 4 5.024988933070627 9.66782199416183 2.6360370782927127 0 0 0
1894 1 1.674996311023425 11.604078068359742 1.319113616978376 0 0 0
1900 1 5.024988933070424 11.604078068359742 1.3191136169783757 0 0 0
1728 5 8.374981555117301 7.736487665289583 0.0021549306790276303 0 0 0
1734 5 11.724974177164304 7.736487665289582 0.0021549306790268766 0 0 0
1905 1 6.699985244093959 8.702899355176742 1.3191136169783761 0 0 0
1911 1 10.04997786614096 8.702899355176742 1.3191136169783755 0 0 0
1907 5 6.699985244093848 10.637666378472582 0.0021549306790273797 0 0 0
1913 5 10.04997786614085 10.637666378472584 0.002154930679027651 0 0 0
1724 4 6.699985244093823 6.76664328097883 2.6360370782927127 0 0 0
1730 4 10.049977866140825 6.76664328097883 2.6360370782927114 0 0 0
1903 4 8.374981555117627 9.66782199416183 2.636037078292712 0 0 0
1909 4 11.724974177164626 9.66782199416183 2.6360370782927127 0 0 0
1906 1 8.374981555117424 11.604078068359742 1.319113616978376 0 0 0
1912 1 11.724974177164425 11.604078068359742 1.3191136169783761 0 0 0
1740 5 15.074966799211303 7.736487665289583 0.0021549306790287423 0 0 0
1917 1 13.399970488187959 8.702899355176742 1.3191136169783764 0 0 0
1923 1 16.749963110234958 8.702899355176742 1.319113616978377 0 0 0
1919 5 13.399970488187849 10.637666378472582 0.002154930679027454 0 0 0
1925 5 16.749963110234848 10.637666378472582 0.002154930679027989 0 0 0
1736 4 13.399970488187824 6.76664328097883 2.6360370782927127 0 0 0
1742 4 16.749963110234827 6.76664328097883 2.6360370782927127 0 0 0
1915 4 15.074966799211627 9.66782199416183 2.6360370782927123 0 0 0
1918 1 15.074966799211426 11.604078068359742 1.3191136169783761 0 0 0
1746 5 18.424959421258304 7.736487665289582 0.00215493067902801 0 0 0
1752 5 21.7749520433053 7.736487665289582 0.0021549306790264993 0 0 0
1929 1 20.09995573228196 8.702899355176742 1.3191136169783761 0 0 0
1935 1 23.44994835432896 8.70289935517674 1.3191136169783753 0 0 0
1931 5 20.09995573228185 10.637666378472582 0.002154930679027119 0 0 0
1937 5 23.449948354328846 10.637666378472582 0.0021549306790281993 0 0 0
1748 4 20.099955732281824 6.76664328097883 2.6360370782927127 0 0 0
1754 4 23.449948354328825 6.76664328097883 2.6360370782927114 0 0 0
1921 4 18.42495942125863 9.667821994161832 2.636037078292713 0 0 0
1927 4 21.77495204330563 9.66782199416183 2.6360370782927123 0 0 0
1924 1 18.424959421258425 11.604078068359742 1.3191136169783757 0 0 0
1930 1 21.774952043305426 11.604078068359742 1.3191136169783761 0 0 0
1758 5 25.124944665352306 7.736487665289582 0.002154930679026765 0 0 0
1764 5 28.474937287399307 7.736487665289583 0.0021549306790287367 0 0 0
1941 1 26.79994097637596 8.702899355176742 1.3191136169783757 0 0 0
1943 5 26.799940976375847 10.637666378472584 0.0021549306790275696 0 0 0
1760 4 26.799940976375826 6.76664328097883 2.6360370782927123 0 0 0
1933 4 25.124944665352626 9.66782199416183 2.6360370782927123 0 0 0
1939 4 28.474937287399626 9.66782199416183 2.6360370782927114 0 0 0
1936 1 25.124944665352423 11.604078068359742 1.3191136169783764 0 0 0
1942 1 28.474937287399428 11.604078068359742 1.3191136169783764 0 0 0
1770 5 31.824929909446308 7.736487665289582 0.0021549306790275054 0 0 0
1776 5 35.1749225314933 7.736487665289582 0.002154930679027712 0 0 0
1947 1 30.14993359842296 8.702899355176742 1.3191136169783761 0 0 0
1953 1 33.49992622046996 8.702899355176742 1.3191136169783764 0 0 0
1949 5 30.14993359842285 10.637666378472584 0.0021549306790271993 0 0 0
1955 5 33.49992622046985 10.637666378472582 0.0021549306790271646 0 0 0
1766 4 30.14993359842283 6.76664328097883 2.6360370782927127 0 0 0
1772 4 33.49992622046983 6.76664328097883 2.6360370782927127 0 0 0
1945 4 31.824929909446627 9.66782199416183 2.6360370782927127 0 0 0
1951 4 35.17492253149362 9.667821994161832 2.636037078292713 0 0 0
1948 1 31.82492990944643 11.604078068359742 1.3191136169783761 0 0 0
1954 1 35.17492253149343 11.604078068359742 1.3191136169783757 0 0 0
1782 5 38.5249151535403 7.736487665289582 0.002154930679027706 0 0 0
1959 1 36.849918842516956 8.702899355176742 1.3191136169783775 0 0 0
1965 1 40.199911464563954 8.702899355176742 1.3191136169783761 0 0 0
1961 5 36.84991884251685 10.637666378472582 0.002154930679027584 0 0 0
1967 5 40.19991146456385 10.637666378472582 0.002154930679027143 0 0 0
1778 4 36.84991884251683 6.76664328097883 2.6360370782927136 0 0 0
1784 4 40.199911464563826 6.76664328097883 2.636037078292713 0 0 0
1957 4 38.524915153540626 9.667821994161832 2.636037078292713 0 0 0
1960 1 38.52491515354043 11.604078068359742 1.3191136169783757 0 0 0
1788 5 41.874907775587296 7.736487665289582 0.002154930679027142 0 0 0
1794 5 45.22490039763431 7.736487665289582 0.0021549306790263835 0 0 0
1971 1 43.54990408661096 8.70289935517674 1.3191136169783741 0 0 0
1977 1 46.899896708657955 8.702899355176742 1.3191136169783768 0 0 0
1973 5 43.549904086610844 10.637666378472584 0.0021549306790282123 0 0 0
1979 5 46.89989670865784 10.637666378472584 0.002154930679027555 0 0 0
1790 4 43.54990408661082 6.76664328097883 2.636037078292711 0 0 0
1796 4 46.89989670865782 6.76664328097883 2.6360370782927123 0 0 0
1963 4 41.87490777558762 9.66782199416183 2.636037078292712 0 0 0
1969 4 45.22490039763462 9.66782199416183 2.6360370782927127 0 0 0
1966 1 41.874907775587424 11.604078068359742 1.3191136169783761 0 0 0
1972 1 45.22490039763442 11.604078068359742 1.3191136169783764 0 0 0
1800 5 48.574893019681305 7.736487665289584 0.0021549306790292085 0 0 0
1626 5 51.92488564172831 7.736487665289582 0.0021549306790278836 -1 0 0
1803 1 50.24988933070496 8.702899355176742 1.3191136169783764 -1 0 0
1805 5 50.24988933070485 10.637666378472584 0.002154930679028431 -1 0 0
1622 4 50.24988933070483 6.766643280978829 2.6360370782927123 -1 0 0
1975 4 48.574893019681625 9.66782199416183 2.6360370782927114 0 0 0
1801 4 51.92488564172863 9.66782199416183 2.6360370782927127 -1 0 0
1978 1 48.574893019681426 11.604078068359742 1.3191136169783761 0 0 0
1804 1 51.92488564172843 11.604078068359742 1.319113616978376 -1 0 0
1632 5 55.27487826377531 7.736487665289583 0.0021549306790274443 -1 0 0
1638 5 58.62487088582231 7.736487665289582 0.002154930679027698 -1 0 0
1809 1 53.599881952751964 8.702899355176742 1.3191136169783761 -1 0 0
1815 1 56.94987457479896 8.702899355176742 1.319113616978376 -1 0 0
1811 5 53.59988195275185 10.637666378472584 0.00215493067902772 -1 0 0
1817 5 56.949874574798855 10.637666378472584 0.00215493067902736 -1 0 0
1628 4 53.59988195275183 6.76664328097883 2.6360370782927123 -1 0 0
1634 4 56.949874574798834 6.76664328097883 2.636037078292712 -1 0 0
1807 4 55.274878263775626 9.66782199416183 2.636037078292712 -1 0 0
1813 4 58.62487088582263 9.66782199416183 2.6360370782927123 -1 0 0
1810 1 55.27487826377543 11.604078068359742 1.3191136169783761 -1 0 0
1816 1 58.62487088582243 11.604078068359742 1.319113616978376 -1 0 0
1644 5 61.97486350786931 7.736487665289583 0.0021549306790281378 -1 0 0
1821 1 60.299867196845966 8.702899355176742 1.3191136169783764 -1 0 0
1827 1 63.64985981889296 8.702899355176742 1.3191136169783764 -1 0 0
1823 5 60.29986719684585 10.637666378472582 0.002154930679027968 -1 0 0
1829 5 63.64985981889286 10.637666378472584 0.0021549306790279907 -1 0 0
1640 4 60.29986719684583 6.76664328097883 2.6360370782927127 -1 0 0
1646 4 63.649859818892836 6.76664328097883 2.6360370782927123 -1 0 0
1819 4 61.97486350786963 9.66782199416183 2.6360370782927127 -1 0 0
1822 1 61.97486350786943 11.604078068359742 1.319113616978376 -1 0 0
1650 5 65.32485612991631 7.736487665289582 0.002154930679028162 -1 0 0
1656 5 68.67484875196331 7.736487665289582 0.0021549306790264768 -1 0 0
1833 1 66.99985244093996 8.702899355176742 1.3191136169783761 -1 0 0
1839 1 70.34984506298697 8.70289935517674 1.3191136169783755 -1 0 0
1835 5 66.99985244093985 10.637666378472582 0.0021549306790270956 -1 0 0
1841 5 70.34984506298686 10.637666378472582 0.0021549306790282106 -1 0 0
1652 4 66.99985244093983 6.76664328097883 2.6360370782927127 -1 0 0
1658 4 70.34984506298683 6.76664328097883 2.636037078292711 -1 0 0
1825 4 65.32485612991664 9.66782199416183 2.6360370782927123 -1 0 0
1831 4 68.67484875196364 9.66782199416183 2.6360370782927123 -1 0 0
1828 1 65.32485612991644 11.604078068359742 1.3191136169783764 -1 0 0
1834 1 68.67484875196344 11.604078068359742 1.3191136169783748 -1 0 0
1662 5 72.02484137401031 7.736487665289582 0.0021549306790265717 -1 0 0
1668 5 75.3748339960573 7.736487665289583 0.0021549306790283745 -1 0 0
1845 1 73.69983768503397 8.702899355176742 1.3191136169783761 -1 0 0
1847 5 73.69983768503386 10.637666378472582 0.002154930679026928 -1 0 0
1664 4 73.69983768503383 6.76664328097883 2.636037078292713 -1 0 0
1837 4 72.02484137401063 9.66782199416183 2.6360370782927123 -1 0 0
1843 4 75.37483399605763 9.66782199416183 2.636037078292712 -1 0 0
1840 1 72.02484137401044 11.604078068359742 1.3191136169783764 -1 0 0
1846 1 75.37483399605743 11.604078068359742 1.3191136169783777 -1 0 0
1674 5 78.72482661810432 7.736487665289582 0.0021549306790275354 -1 0 0
1680 5 82.07481924015131 7.736487665289582 0.00215493067902723 -1 0 0
1851 1 77.04983030708097 8.702899355176742 1.3191136169783761 -1 0 0
1857 1 80.39982292912796 8.702899355176742 1.3191136169783766 -1 0 0
1853 5 77.04983030708085 10.637666378472584 0.002154930679028243 -1 0 0
1859 5 80.39982292912785 10.637666378472582 0.0021549306790275904 -1 0 0
1670 4 77.04983030708084 6.76664328097883 2.636037078292712 -1 0 0
1676 4 80.39982292912784 6.76664328097883 2.636037078292713 -1 0 0
1849 4 78.72482661810464 9.667821994161832 2.6360370782927136 -1 0 0
1855 4 82.07481924015164 9.66782199416183 2.6360370782927127 -1 0 0
1852 1 78.72482661810443 11.604078068359742 1.3191136169783757 -1 0 0
1858 1 82.07481924015144 11.604078068359742 1.3191136169783761 -1 0 0
1686 5 85.42481186219831 7.736487665289583 0.0021549306790278077 -1 0 0
1863 1 83.74981555117496 8.702899355176742 1.3191136169783755 -1 0 0
1869 1 87.09980817322197 8.702899355176742 1.3191136169783764 -1 0 0
1865 5 83.74981555117485 10.637666378472582 0.0021549306790268796 -1 0 0
1871 5 87.09980817322186 10.637666378472582 0.002154930679028399 -1 0 0
1682 4 83.74981555117483 6.76664328097883 2.6360370782927127 -1 0 0
1688 4 87.09980817322183 6.76664328097883 2.6360370782927114 -1 0 0
1861 4 85.42481186219864 9.667821994161828 2.636037078292711 -1 0 0
1864 1 85.42481186219844 11.604078068359742 1.3191136169783748 -1 0 0
1692 5 88.77480448424531 7.736487665289582 0.002154930679027565 -1 0 0
1698 5 92.1247971062923 7.736487665289583 0.002154930679028635 -1 0 0
1875 1 90.44980079526897 8.702899355176742 1.3191136169783768 -1 0 0
1881 1 93.79979341731597 8.702899355176742 1.3191136169783757 -1 0 0
1877 5 90.44980079526886 10.637666378472582 0.00215493067902606 -1 0 0
1883 5 93.79979341731585 10.637666378472582 0.0021549306790283906 -1 0 0
1694 4 90.44980079526883 6.766643280978831 2.636037078292715 -1 0 0
1700 4 93.79979341731584 6.76664328097883 2.636037078292711 -1 0 0
1867 4 88.77480448424564 9.667821994161832 2.636037078292713 -1 0 0
1873 4 92.12479710629263 9.66782199416183 2.6360370782927114 -1 0 0
1870 1 88.77480448424544 11.604078068359742 1.319113616978376 -1 0 0
1876 1 92.12479710629243 11.604078068359742 1.3191136169783775 -1 0 0
1893 1 100.49977866140996 8.702899355176742 1.3191136169783753 -1 0 0
1895 5 100.49977866140985 10.637666378472584 0.002154930679027527 -1 0 0
1712 4 100.49977866140983 6.76664328097883 2.636037078292712 -1 0 0
1704 5 95.4747897283393 7.736487665289581 0.0021549306790254923 -1 0 0
1710 5 98.8247823503863 7.736487665289583 0.002154930679029314 -1 0 0
1887 1 97.14978603936297 8.702899355176742 1.3191136169783781 -1 0 0
1889 5 97.14978603936285 10.637666378472582 0.0021549306790275193 -1 0 0
1706 4 97.14978603936282 6.76664328097883 2.636037078292713 -1 0 0
1879 4 95.47478972833963 9.667821994161832 2.636037078292714 -1 0 0
1885 4 98.82478235038664 9.667821994161828 2.6360370782927105 -1 0 0
1882 1 95.47478972833943 11.604078068359742 1.3191136169783744 -1 0 0
1888 1 98.82478235038643 11.604078068359742 1.3191136169783768 -1 0 0
1896 5 1.6749963110233028 13.538845091655583 0.0021549306790264243 0 0 0
1902 5 5.024988933070303 13.538845091655583 0.002154930679026808 0 0 0
2079 1 3.349992622046959 14.505256781542741 1.3191136169783766 0 0 0
2081 5 3.349992622046848 16.440023804838578 0.0021549306790269495 0 0 0
2074 1 1.674996311023425 17.406435494725734 1.3191136169783764 0 0 0
2080 1 5.024988933070424 17.406435494725734 1.3191136169783764 0 0 0
1898 4 3.349992622046824 12.56900070734483 2.6360370782927123 0 0 0
2071 4 1.6749963110236263 15.470179420527826 2.6360370782927136 0 0 0
2077 4 5.024988933070627 15.470179420527826 2.636037078292714 0 0 0
1908 5 8.374981555117301 13.538845091655583 0.002154930679027064 0 0 0
1914 5 11.724974177164304 13.538845091655583 0.002154930679026279 0 0 0
2085 1 6.699985244093959 14.505256781542741 1.3191136169783764 0 0 0
2091 1 10.04997786614096 14.50525678154274 1.3191136169783757 0 0 0
2087 5 6.699985244093848 16.440023804838578 0.0021549306790260995 0 0 0
2093 5 10.04997786614085 16.440023804838578 0.002154930679026875 0 0 0
2086 1 8.374981555117424 17.406435494725734 1.3191136169783764 0 0 0
2092 1 11.724974177164425 17.406435494725738 1.3191136169783766 0 0 0
1904 4 6.699985244093823 12.56900070734483 2.6360370782927127 0 0 0
1910 4 10.049977866140825 12.569000707344829 2.636037078292712 0 0 0
2083 4 8.374981555117627 15.470179420527826 2.636037078292713 0 0 0
2089 4 11.724974177164626 15.470179420527826 2.6360370782927136 0 0 0
1920 5 15.074966799211303 13.538845091655583 0.0021549306790283477 0 0 0
2097 1 13.399970488187959 14.505256781542741 1.3191136169783764 0 0 0
2103 1 16.749963110234958 14.505256781542741 1.3191136169783773 0 0 0
2099 5 13.399970488187849 16.440023804838578 0.002154930679026208 0 0 0
2105 5 16.749963110234848 16.440023804838578 0.0021549306790269018 0 0 0
2098 1 15.074966799211426 17.406435494725734 1.3191136169783766 0 0 0
1916 4 13.399970488187824 12.56900070734483 2.6360370782927127 0 0 0
1922 4 16.749963110234827 12.569000707344829 2.636037078292713 0 0 0
2095 4 15.074966799211627 15.470179420527826 2.6360370782927136 0 0 0
1926 5 18.424959421258304 13.538845091655583 0.0021549306790274478 0 0 0
1932 5 21.7749520433053 13.538845091655583 0.002154930679026001 0 0 0
2109 1 20.09995573228196 14.505256781542741 1.3191136169783766 0 0 0
2115 1 23.44994835432896 14.50525678154274 1.319113616978376 0 0 0
2111 5 20.09995573228185 16.440023804838578 0.0021549306790260387 0 0 0
2117 5 23.449948354328846 16.440023804838578 0.002154930679027293 0 0 0
2104 1 18.424959421258425 17.406435494725738 1.3191136169783764 0 0 0
2110 1 21.774952043305426 17.406435494725734 1.3191136169783764 0 0 0
1928 4 20.099955732281824 12.56900070734483 2.6360370782927127 0 0 0
1934 4 23.449948354328825 12.56900070734483 2.6360370782927114 0 0 0
2101 4 18.42495942125863 15.470179420527828 2.6360370782927145 0 0 0
2107 4 21.77495204330563 15.470179420527826 2.6360370782927136 0 0 0
1938 5 25.124944665352306 13.538845091655583 0.00215493067902628 0 0 0
1944 5 28.474937287399307 13.538845091655583 0.002154930679028374 0 0 0
2121 1 26.79994097637596 14.505256781542741 1.319113616978376 0 0 0
2123 5 26.799940976375847 16.440023804838578 0.0021549306790265123 0 0 0
2116 1 25.124944665352423 17.406435494725734 1.3191136169783764 0 0 0
2122 1 28.474937287399428 17.406435494725738 1.3191136169783761 0 0 0
1940 4 26.799940976375826 12.56900070734483 2.6360370782927123 0 0 0
2113 4 25.124944665352626 15.470179420527826 2.636037078292713 0 0 0
2119 4 28.474937287399626 15.470179420527826 2.6360370782927123 0 0 0
1950 5 31.824929909446308 13.538845091655583 0.002154930679027023 0 0 0
1956 5 35.1749225314933 13.538845091655583 0.002154930679027112 0 0 0
2127 1 30.14993359842296 14.505256781542741 1.3191136169783764 0 0 0
2133 1 33.49992622046996 14.505256781542741 1.319113616978377 0 0 0
2129 5 30.14993359842285 16.440023804838578 0.002154930679026154 0 0 0
2135 5 33.49992622046985 16.440023804838578 0.002154930679026083 0 0 0
2128 1 31.82492990944643 17.406435494725734 1.3191136169783764 0 0 0
2134 1 35.17492253149343 17.406435494725738 1.3191136169783764 0 0 0
1946 4 30.14993359842283 12.56900070734483 2.6360370782927123 0 0 0
1952 4 33.49992622046983 12.56900070734483 2.6360370782927127 0 0 0
2125 4 31.824929909446627 15.470179420527826 2.6360370782927136 0 0 0
2131 4 35.17492253149362 15.470179420527828 2.6360370782927145 0 0 0
1962 5 38.5249151535403 13.538845091655583 0.0021549306790270987 0 0 0
2139 1 36.849918842516956 14.505256781542741 1.3191136169783777 0 0 0