LAMMPS data file via write_data, version 29 Aug 2024, timestep = 0, units = metal

3060 atoms
3 atom types

0 100.49977866141 xlo xhi
0 98.640076248222 ylo yhi
0 17.775170729858 zlo zhi

Masses

1 54.938044
2 32.06
3 32.06

Atoms # atomic

1534 1 1.6749963110229942 0 1.3207522887360001 0 0 0
1540 1 5.024988933069999 0 1.3207522887360001 0 0 0
1546 1 8.374981555116996 0 1.3207522887360001 0 0 0
1552 1 11.724974177164 0 1.3207522887360001 0 0 0
1558 1 15.074966799210998 0 1.3207522887360001 0 0 0
1564 1 18.424959421257995 0 1.3207522887360001 0 0 0
1570 1 21.774952043304992 0 1.3207522887360001 0 0 0
1576 1 25.124944665352004 0 1.3207522887360001 0 0 0
1582 1 28.474937287399 0 1.3207522887360001 0 0 0
1588 1 31.824929909446 0 1.3207522887360001 0 0 0
1594 1 35.174922531492996 0 1.3207522887360001 0 0 0
1600 1 38.52491515353999 0 1.3207522887360001 0 0 0
1606 1 41.87490777558699 0 1.3207522887360001 0 0 0
1612 1 45.224900397634 0 1.3207522887360001 0 0 0
1618 1 48.574893019681 0 1.3207522887360001 0 0 0
1444 1 51.924885641728004 0 1.3207522887360001 -1 0 0
1450 1 55.274878263775 0 1.3207522887360001 -1 0 0
1456 1 58.624870885822006 0 1.3207522887360001 -1 0 0
1462 1 61.974863507869 0 1.3207522887360001 -1 0 0
1468 1 65.324856129916 0 1.3207522887360001 -1 0 0
1474 1 68.674848751963 0 1.3207522887360001 -1 0 0
1480 1 72.02484137401001 0 1.3207522887360001 -1 0 0
1486 1 75.374833996057 0 1.3207522887360001 -1 0 0
1492 1 78.724826618104 0 1.3207522887360001 -1 0 0
1498 1 82.074819240151 0 1.3207522887360001 -1 0 0
1504 1 85.424811862198 0 1.3207522887360001 -1 0 0
1510 1 88.77480448424501 0 1.3207522887360001 -1 0 0
1516 1 92.124797106292 0 1.3207522887360001 -1 0 0
1522 1 95.474789728339 0 1.3207522887360001 -1 0 0
1528 1 98.824782350386 0 1.3207522887360001 -1 0 0
1536 3 1.6749963110229942 1.9341191421220003 0 0 0 0
1713 1 0 2.9011787131830005 1.3207522887360001 0 0 0
1719 1 3.3499926220469973 2.9011787131830005 1.3207522887360001 0 0 0
1542 3 5.024988933069999 1.9341191421220003 0 0 0 0
1725 1 6.699985244093995 2.9011787131830005 1.3207522887360001 0 0 0
1548 3 8.374981555116996 1.9341191421220003 0 0 0 0
1731 1 10.049977866140999 2.9011787131830005 1.3207522887360001 0 0 0
1554 3 11.724974177164 1.9341191421220003 0 0 0 0
1737 1 13.399970488187996 2.9011787131830005 1.3207522887360001 0 0 0
1560 3 15.074966799210998 1.9341191421220003 0 0 0 0
1743 1 16.749963110235 2.9011787131830005 1.3207522887360001 0 0 0
1566 3 18.424959421257995 1.9341191421220003 0 0 0 0
1749 1 20.099955732281998 2.9011787131830005 1.3207522887360001 0 0 0
1572 3 21.774952043304992 1.9341191421220003 0 0 0 0
1755 1 23.449948354328995 2.9011787131830005 1.3207522887360001 0 0 0
1578 3 25.124944665352004 1.9341191421220003 0 0 0 0
1761 1 26.799940976375993 2.9011787131830005 1.3207522887360001 0 0 0
1584 3 28.474937287399 1.9341191421220003 0 0 0 0
1767 1 30.149933598423004 2.9011787131830005 1.3207522887360001 0 0 0
1590 3 31.824929909446 1.9341191421220003 0 0 0 0
1773 1 33.49992622047 2.9011787131830005 1.3207522887360001 0 0 0
1596 3 35.174922531492996 1.9341191421220003 0 0 0 0
1779 1 36.849918842517 2.9011787131830005 1.3207522887360001 0 0 0
1602 3 38.52491515353999 1.9341191421220003 0 0 0 0
1785 1 40.199911464563996 2.9011787131830005 1.3207522887360001 0 0 0
1608 3 41.87490777558699 1.9341191421220003 0 0 0 0
1791 1 43.549904086610994 2.9011787131830005 1.3207522887360001 0 0 0
1614 3 45.224900397634 1.9341191421220003 0 0 0 0
1797 1 46.89989670865799 2.9011787131830005 1.3207522887360001 0 0 0
1620 3 48.574893019681 1.9341191421220003 0 0 0 0
1623 1 50.249889330705 2.9011787131830005 1.3207522887360001 -1 0 0
1446 3 51.924885641728004 1.9341191421220003 0 -1 0 0
1629 1 53.599881952752 2.9011787131830005 1.3207522887360001 -1 0 0
1452 3 55.274878263775 1.9341191421220003 0 -1 0 0
1635 1 56.949874574799004 2.9011787131830005 1.3207522887360001 -1 0 0
1458 3 58.624870885822006 1.9341191421220003 0 -1 0 0
1641 1 60.299867196846 2.9011787131830005 1.3207522887360001 -1 0 0
1464 3 61.974863507869 1.9341191421220003 0 -1 0 0
1647 1 63.649859818893006 2.9011787131830005 1.3207522887360001 -1 0 0
1470 3 65.324856129916 1.9341191421220003 0 -1 0 0
1653 1 66.99985244094 2.9011787131830005 1.3207522887360001 -1 0 0
1476 3 68.674848751963 1.9341191421220003 0 -1 0 0
1659 1 70.349845062987 2.9011787131830005 1.3207522887360001 -1 0 0
1482 3 72.02484137401001 1.9341191421220003 0 -1 0 0
1665 1 73.699837685034 2.9011787131830005 1.3207522887360001 -1 0 0
1488 3 75.374833996057 1.9341191421220003 0 -1 0 0
1671 1 77.04983030708101 2.9011787131830005 1.3207522887360001 -1 0 0
1494 3 78.724826618104 1.9341191421220003 0 -1 0 0
1677 1 80.399822929128 2.9011787131830005 1.3207522887360001 -1 0 0
1500 3 82.074819240151 1.9341191421220003 0 -1 0 0
1683 1 83.749815551175 2.9011787131830005 1.3207522887360001 -1 0 0
1506 3 85.424811862198 1.9341191421220003 0 -1 0 0
1689 1 87.099808173222 2.9011787131830005 1.3207522887360001 -1 0 0
1512 3 88.77480448424501 1.9341191421220003 0 -1 0 0
1695 1 90.449800795269 2.9011787131830005 1.3207522887360001 -1 0 0
1518 3 92.124797106292 1.9341191421220003 0 -1 0 0
1701 1 93.79979341731601 2.9011787131830005 1.3207522887360001 -1 0 0
1524 3 95.474789728339 1.9341191421220003 0 -1 0 0
1707 1 97.149786039363 2.9011787131830005 1.3207522887360001 -1 0 0
1530 3 98.824782350386 1.9341191421220003 0 -1 0 0
1715 3 0 4.835297855305001 0 0 0 0
1721 3 3.3499926220469973 4.835297855305001 0 0 0 0
1727 3 6.699985244093995 4.835297855305001 0 0 0 0
1733 3 10.049977866140999 4.835297855305001 0 0 0 0
1739 3 13.399970488187996 4.835297855305001 0 0 0 0
1745 3 16.749963110235 4.835297855305001 0 0 0 0
1751 3 20.099955732281998 4.835297855305001 0 0 0 0
1757 3 23.449948354328995 4.835297855305001 0 0 0 0
1763 3 26.799940976375993 4.835297855305001 0 0 0 0
1769 3 30.149933598423004 4.835297855305001 0 0 0 0
1775 3 33.49992622047 4.835297855305001 0 0 0 0
1781 3 36.849918842517 4.835297855305001 0 0 0 0
1787 3 40.199911464563996 4.835297855305001 0 0 0 0
1793 3 43.549904086610994 4.835297855305001 0 0 0 0
1799 3 46.89989670865799 4.835297855305001 0 0 0 0
1625 3 50.249889330705 4.835297855305001 0 -1 0 0
1631 3 53.599881952752 4.835297855305001 0 -1 0 0
1637 3 56.949874574799004 4.835297855305001 0 -1 0 0
1643 3 60.299867196846 4.835297855305001 0 -1 0 0
1649 3 63.649859818893006 4.835297855305001 0 -1 0 0
1655 3 66.99985244094 4.835297855305001 0 -1 0 0
1661 3 70.349845062987 4.835297855305001 0 -1 0 0
1667 3 73.699837685034 4.835297855305001 0 -1 0 0
1673 3 77.04983030708101 4.835297855305001 0 -1 0 0
1679 3 80.399822929128 4.835297855305001 0 -1 0 0
1685 3 83.749815551175 4.835297855305001 0 -1 0 0
1691 3 87.099808173222 4.835297855305001 0 -1 0 0
1697 3 90.449800795269 4.835297855305001 0 -1 0 0
1703 3 93.79979341731601 4.835297855305001 0 -1 0 0
1709 3 97.149786039363 4.835297855305001 0 -1 0 0
1714 1 1.6749963110229942 5.802357426366001 1.3207522887360001 0 0 0
1720 1 5.024988933069999 5.802357426366001 1.3207522887360001 0 0 0
1726 1 8.374981555116996 5.802357426366001 1.3207522887360001 0 0 0
1732 1 11.724974177164 5.802357426366001 1.3207522887360001 0 0 0
1738 1 15.074966799210998 5.802357426366001 1.3207522887360001 0 0 0
1744 1 18.424959421257995 5.802357426366001 1.3207522887360001 0 0 0
1750 1 21.774952043304992 5.802357426366001 1.3207522887360001 0 0 0
1756 1 25.124944665352004 5.802357426366001 1.3207522887360001 0 0 0
1762 1 28.474937287399 5.802357426366001 1.3207522887360001 0 0 0
1768 1 31.824929909446 5.802357426366001 1.3207522887360001 0 0 0
1774 1 35.174922531492996 5.802357426366001 1.3207522887360001 0 0 0
1780 1 38.52491515353999 5.802357426366001 1.3207522887360001 0 0 0
1786 1 41.87490777558699 5.802357426366001 1.3207522887360001 0 0 0
1792 1 45.224900397634 5.802357426366001 1.3207522887360001 0 0 0
1798 1 48.574893019681 5.802357426366001 1.3207522887360001 0 0 0
1624 1 51.924885641728004 5.802357426366001 1.3207522887360001 -1 0 0
1630 1 55.274878263775 5.802357426366001 1.3207522887360001 -1 0 0
1636 1 58.624870885822006 5.802357426366001 1.3207522887360001 -1 0 0
1642 1 61.974863507869 5.802357426366001 1.3207522887360001 -1 0 0
1648 1 65.324856129916 5.802357426366001 1.3207522887360001 -1 0 0
1654 1 68.674848751963 5.802357426366001 1.3207522887360001 -1 0 0
1660 1 72.02484137401001 5.802357426366001 1.3207522887360001 -1 0 0
1666 1 75.374833996057 5.802357426366001 1.3207522887360001 -1 0 0
1672 1 78.724826618104 5.802357426366001 1.3207522887360001 -1 0 0
1678 1 82.074819240151 5.802357426366001 1.3207522887360001 -1 0 0
1684 1 85.424811862198 5.802357426366001 1.3207522887360001 -1 0 0
1690 1 88.77480448424501 5.802357426366001 1.3207522887360001 -1 0 0
1696 1 92.124797106292 5.802357426366001 1.3207522887360001 -1 0 0
1702 1 95.474789728339 5.802357426366001 1.3207522887360001 -1 0 0
1708 1 98.824782350386 5.802357426366001 1.3207522887360001 -1 0 0
1716 3 1.6749963110229942 7.736476568488001 0 0 0 0
1722 3 5.024988933069999 7.736476568488001 0 0 0 0
1728 3 8.374981555116996 7.736476568488001 0 0 0 0
1734 3 11.724974177164 7.736476568488001 0 0 0 0
1740 3 15.074966799210998 7.736476568488001 0 0 0 0
1746 3 18.424959421257995 7.736476568488001 0 0 0 0
1752 3 21.774952043304992 7.736476568488001 0 0 0 0
1758 3 25.124944665352004 7.736476568488001 0 0 0 0
1764 3 28.474937287399 7.736476568488001 0 0 0 0
1770 3 31.824929909446 7.736476568488001 0 0 0 0
1776 3 35.174922531492996 7.736476568488001 0 0 0 0
1782 3 38.52491515353999 7.736476568488001 0 0 0 0
1788 3 41.87490777558699 7.736476568488001 0 0 0 0
1794 3 45.224900397634 7.736476568488001 0 0 0 0
1800 3 48.574893019681 7.736476568488001 0 0 0 0
1626 3 51.924885641728004 7.736476568488001 0 -1 0 0
1632 3 55.274878263775 7.736476568488001 0 -1 0 0
1638 3 58.624870885822006 7.736476568488001 0 -1 0 0
1644 3 61.974863507869 7.736476568488001 0 -1 0 0
1650 3 65.324856129916 7.736476568488001 0 -1 0 0
1656 3 68.674848751963 7.736476568488001 0 -1 0 0
1662 3 72.02484137401001 7.736476568488001 0 -1 0 0
1668 3 75.374833996057 7.736476568488001 0 -1 0 0
1674 3 78.724826618104 7.736476568488001 0 -1 0 0
1680 3 82.074819240151 7.736476568488001 0 -1 0 0
1686 3 85.424811862198 7.736476568488001 0 -1 0 0
1692 3 88.77480448424501 7.736476568488001 0 -1 0 0
1698 3 92.124797106292 7.736476568488001 0 -1 0 0
1704 3 95.474789728339 7.736476568488001 0 -1 0 0
1710 3 98.824782350386 7.736476568488001 0 -1 0 0
1893 1 0 8.703536139549001 1.3207522887360001 0 0 0
1899 1 3.3499926220469973 8.703536139549001 1.3207522887360001 0 0 0
1905 1 6.699985244093995 8.703536139549001 1.3207522887360001 0 0 0
1911 1 10.049977866140999 8.703536139549001 1.3207522887360001 0 0 0
1917 1 13.399970488187996 8.703536139549001 1.3207522887360001 0 0 0
1923 1 16.749963110235 8.703536139549001 1.3207522887360001 0 0 0
1929 1 20.099955732281998 8.703536139549001 1.3207522887360001 0 0 0
1935 1 23.449948354328995 8.703536139549001 1.3207522887360001 0 0 0
1941 1 26.799940976375993 8.703536139549001 1.3207522887360001 0 0 0
1947 1 30.149933598423004 8.703536139549001 1.3207522887360001 0 0 0
1953 1 33.49992622047 8.703536139549001 1.3207522887360001 0 0 0
1959 1 36.849918842517 8.703536139549001 1.3207522887360001 0 0 0
1965 1 40.199911464563996 8.703536139549001 1.3207522887360001 0 0 0
1971 1 43.549904086610994 8.703536139549001 1.3207522887360001 0 0 0
1977 1 46.89989670865799 8.703536139549001 1.3207522887360001 0 0 0
1803 1 50.249889330705 8.703536139549001 1.3207522887360001 -1 0 0
1809 1 53.599881952752 8.703536139549001 1.3207522887360001 -1 0 0
1815 1 56.949874574799004 8.703536139549001 1.3207522887360001 -1 0 0
1821 1 60.299867196846 8.703536139549001 1.3207522887360001 -1 0 0
1827 1 63.649859818893006 8.703536139549001 1.3207522887360001 -1 0 0
1833 1 66.99985244094 8.703536139549001 1.3207522887360001 -1 0 0
1839 1 70.349845062987 8.703536139549001 1.3207522887360001 -1 0 0
1845 1 73.699837685034 8.703536139549001 1.3207522887360001 -1 0 0
1851 1 77.04983030708101 8.703536139549001 1.3207522887360001 -1 0 0
1857 1 80.399822929128 8.703536139549001 1.3207522887360001 -1 0 0
1863 1 83.749815551175 8.703536139549001 1.3207522887360001 -1 0 0
1869 1 87.099808173222 8.703536139549001 1.3207522887360001 -1 0 0
1875 1 90.449800795269 8.703536139549001 1.3207522887360001 -1 0 0
1881 1 93.79979341731601 8.703536139549001 1.3207522887360001 -1 0 0
1887 1 97.149786039363 8.703536139549001 1.3207522887360001 -1 0 0
1895 3 0 10.637655281671002 0 0 0 0
1894 1 1.6749963110229942 11.604714852732002 1.3207522887360001 0 0 0
1901 3 3.3499926220469973 10.637655281671002 0 0 0 0
1900 1 5.024988933069999 11.604714852732002 1.3207522887360001 0 0 0
1907 3 6.699985244093995 10.637655281671002 0 0 0 0
1906 1 8.374981555116996 11.604714852732002 1.3207522887360001 0 0 0
1913 3 10.049977866140999 10.637655281671002 0 0 0 0
1912 1 11.724974177164 11.604714852732002 1.3207522887360001 0 0 0
1919 3 13.399970488187996 10.637655281671002 0 0 0 0
1918 1 15.074966799210998 11.604714852732002 1.3207522887360001 0 0 0
1925 3 16.749963110235 10.637655281671002 0 0 0 0
1924 1 18.424959421257995 11.604714852732002 1.3207522887360001 0 0 0
1931 3 20.099955732281998 10.637655281671002 0 0 0 0
1930 1 21.774952043304992 11.604714852732002 1.3207522887360001 0 0 0
1937 3 23.449948354328995 10.637655281671002 0 0 0 0
1936 1 25.124944665352004 11.604714852732002 1.3207522887360001 0 0 0
1943 3 26.799940976375993 10.637655281671002 0 0 0 0
1942 1 28.474937287399 11.604714852732002 1.3207522887360001 0 0 0
1949 3 30.149933598423004 10.637655281671002 0 0 0 0
1948 1 31.824929909446 11.604714852732002 1.3207522887360001 0 0 0
1955 3 33.49992622047 10.637655281671002 0 0 0 0
1954 1 35.174922531492996 11.604714852732002 1.3207522887360001 0 0 0
1961 3 36.849918842517 10.637655281671002 0 0 0 0
1960 1 38.52491515353999 11.604714852732002 1.3207522887360001 0 0 0
1967 3 40.199911464563996 10.637655281671002 0 0 0 0
1966 1 41.87490777558699 11.604714852732002 1.3207522887360001 0 0 0
1973 3 43.549904086610994 10.637655281671002 0 0 0 0
1972 1 45.224900397634 11.604714852732002 1.3207522887360001 0 0 0
1979 3 46.89989670865799 10.637655281671002 0 0 0 0
1978 1 48.574893019681 11.604714852732002 1.3207522887360001 0 0 0
1805 3 50.249889330705 10.637655281671002 0 -1 0 0
1804 1 51.924885641728004 11.604714852732002 1.3207522887360001 -1 0 0
1811 3 53.599881952752 10.637655281671002 0 -1 0 0
1810 1 55.274878263775 11.604714852732002 1.3207522887360001 -1 0 0
1817 3 56.949874574799004 10.637655281671002 0 -1 0 0
1816 1 58.624870885822006 11.604714852732002 1.3207522887360001 -1 0 0
1823 3 60.299867196846 10.637655281671002 0 -1 0 0
1822 1 61.974863507869 11.604714852732002 1.3207522887360001 -1 0 0
1829 3 63.649859818893006 10.637655281671002 0 -1 0 0
1828 1 65.324856129916 11.604714852732002 1.3207522887360001 -1 0 0
1835 3 66.99985244094 10.637655281671002 0 -1 0 0
1834 1 68.674848751963 11.604714852732002 1.3207522887360001 -1 0 0
1841 3 70.349845062987 10.637655281671002 0 -1 0 0
1840 1 72.02484137401001 11.604714852732002 1.3207522887360001 -1 0 0
1847 3 73.699837685034 10.637655281671002 0 -1 0 0
1846 1 75.374833996057 11.604714852732002 1.3207522887360001 -1 0 0
1853 3 77.04983030708101 10.637655281671002 0 -1 0 0
1852 1 78.724826618104 11.604714852732002 1.3207522887360001 -1 0 0
1859 3 80.399822929128 10.637655281671002 0 -1 0 0
1858 1 82.074819240151 11.604714852732002 1.3207522887360001 -1 0 0
1865 3 83.749815551175 10.637655281671002 0 -1 0 0
1864 1 85.424811862198 11.604714852732002 1.3207522887360001 -1 0 0
1871 3 87.099808173222 10.637655281671002 0 -1 0 0
1870 1 88.77480448424501 11.604714852732002 1.3207522887360001 -1 0 0
1877 3 90.449800795269 10.637655281671002 0 -1 0 0
1876 1 92.124797106292 11.604714852732002 1.3207522887360001 -1 0 0
1883 3 93.79979341731601 10.637655281671002 0 -1 0 0
1882 1 95.474789728339 11.604714852732002 1.3207522887360001 -1 0 0
1889 3 97.149786039363 10.637655281671002 0 -1 0 0
1888 1 98.824782350386 11.604714852732002 1.3207522887360001 -1 0 0
1896 3 1.6749963110229942 13.538833994854002 0 0 0 0
1902 3 5.024988933069999 13.538833994854002 0 0 0 0
1908 3 8.374981555116996 13.538833994854002 0 0 0 0
1914 3 11.724974177164 13.538833994854002 0 0 0 0
1920 3 15.074966799210998 13.538833994854002 0 0 0 0
1926 3 18.424959421257995 13.538833994854002 0 0 0 0
1932 3 21.774952043304992 13.538833994854002 0 0 0 0
1938 3 25.124944665352004 13.538833994854002 0 0 0 0
1944 3 28.474937287399 13.538833994854002 0 0 0 0
1950 3 31.824929909446 13.538833994854002 0 0 0 0
1956 3 35.174922531492996 13.538833994854002 0 0 0 0
1962 3 38.52491515353999 13.538833994854002 0 0 0 0
1968 3 41.87490777558699 13.538833994854002 0 0 0 0
1974 3 45.224900397634 13.538833994854002 0 0 0 0
1980 3 48.574893019681 13.538833994854002 0 0 0 0
1806 3 51.924885641728004 13.538833994854002 0 -1 0 0
1812 3 55.274878263775 13.538833994854002 0 -1 0 0
1818 3 58.624870885822006 13.538833994854002 0 -1 0 0
1824 3 61.974863507869 13.538833994854002 0 -1 0 0
1830 3 65.324856129916 13.538833994854002 0 -1 0 0
1836 3 68.674848751963 13.538833994854002 0 -1 0 0
1842 3 72.02484137401001 13.538833994854002 0 -1 0 0
1848 3 75.374833996057 13.538833994854002 0 -1 0 0
1854 3 78.724826618104 13.538833994854002 0 -1 0 0
1860 3 82.074819240151 13.538833994854002 0 -1 0 0
1866 3 85.424811862198 13.538833994854002 0 -1 0 0
1872 3 88.77480448424501 13.538833994854002 0 -1 0 0
1878 3 92.124797106292 13.538833994854002 0 -1 0 0
1884 3 95.474789728339 13.538833994854002 0 -1 0 0
1890 3 98.824782350386 13.538833994854002 0 -1 0 0
2073 1 0 14.505893565915002 1.3207522887360001 0 0 0
2079 1 3.3499926220469973 14.505893565915002 1.3207522887360001 0 0 0
2085 1 6.699985244093995 14.505893565915002 1.3207522887360001 0 0 0
2091 1 10.049977866140999 14.505893565915002 1.3207522887360001 0 0 0
2097 1 13.399970488187996 14.505893565915002 1.3207522887360001 0 0 0
2103 1 16.749963110235 14.505893565915002 1.3207522887360001 0 0 0
2109 1 20.099955732281998 14.505893565915002 1.3207522887360001 0 0 0
2115 1 23.449948354328995 14.505893565915002 1.3207522887360001 0 0 0
2121 1 26.799940976375993 14.505893565915002 1.3207522887360001 0 0 0
2127 1 30.149933598423004 14.505893565915002 1.3207522887360001 0 0 0
2133 1 33.49992622047 14.505893565915002 1.3207522887360001 0 0 0
2139 1 36.849918842517 14.505893565915002 1.3207522887360001 0 0 0
2145 1 40.199911464563996 14.505893565915002 1.3207522887360001 0 0 0
2151 1 43.549904086610994 14.505893565915002 1.3207522887360001 0 0 0
2157 1 46.89989670865799 14.505893565915002 1.3207522887360001 0 0 0
1983 1 50.249889330705 14.505893565915002 1.3207522887360001 -1 0 0
1989 1 53.599881952752 14.505893565915002 1.3207522887360001 -1 0 0
1995 1 56.949874574799004 14.505893565915002 1.3207522887360001 -1 0 0
2001 1 60.299867196846 14.505893565915002 1.3207522887360001 -1 0 0
2007 1 63.649859818893006 14.505893565915002 1.3207522887360001 -1 0 0
2013 1 66.99985244094 14.505893565915002 1.3207522887360001 -1 0 0
2019 1 70.349845062987 14.505893565915002 1.3207522887360001 -1 0 0
2025 1 73.699837685034 14.505893565915002 1.3207522887360001 -1 0 0
2031 1 77.04983030708101 14.505893565915002 1.3207522887360001 -1 0 0
2037 1 80.399822929128 14.505893565915002 1.3207522887360001 -1 0 0
2043 1 83.749815551175 14.505893565915002 1.3207522887360001 -1 0 0
2049 1 87.099808173222 14.505893565915002 1.3207522887360001 -1 0 0
2055 1 90.449800795269 14.505893565915002 1.3207522887360001 -1 0 0
2061 1 93.79979341731601 14.505893565915002 1.3207522887360001 -1 0 0
2067 1 97.149786039363 14.505893565915002 1.3207522887360001 -1 0 0
2075 3 0 16.440012708036996 0 0 0 0
2081 3 3.3499926220469973 16.440012708036996 0 0 0 0
2087 3 6.699985244093995 16.440012708036996 0 0 0 0
2093 3 10.049977866140999 16.440012708036996 0 0 0 0
2099 3 13.399970488187996 16.440012708036996 0 0 0 0
2105 3 16.749963110235 16.440012708036996 0 0 0 0
2111 3 20.099955732281998 16.440012708036996 0 0 0 0
2117 3 23.449948354328995 16.440012708036996 0 0 0 0
2123 3 26.799940976375993 16.440012708036996 0 0 0 0
2129 3 30.149933598423004 16.440012708036996 0 0 0 0
2135 3 33.49992622047 16.440012708036996 0 0 0 0
2141 3 36.849918842517 16.440012708036996 0 0 0 0
2147 3 40.199911464563996 16.440012708036996 0 0 0 0
2153 3 43.549904086610994 16.440012708036996 0 0 0 0
2159 3 46.89989670865799 16.440012708036996 0 0 0 0
1985 3 50.249889330705 16.440012708036996 0 -1 0 0
1991 3 53.599881952752 16.440012708036996 0 -1 0 0
1997 3 56.949874574799004 16.440012708036996 0 -1 0 0
2003 3 60.299867196846 16.440012708036996 0 -1 0 0
2009 3 63.649859818893006 16.440012708036996 0 -1 0 0
2015 3 66.99985244094 16.440012708036996 0 -1 0 0
2021 3 70.349845062987 16.440012708036996 0 -1 0 0
2027 3 73.699837685034 16.440012708036996 0 -1 0 0
2033 3 77.04983030708101 16.440012708036996 0 -1 0 0
2039 3 80.399822929128 16.440012708036996 0 -1 0 0
2045 3 83.749815551175 16.440012708036996 0 -1 0 0
2051 3 87.099808173222 16.440012708036996 0 -1 0 0
2057 3 90.449800795269 16.440012708036996 0 -1 0 0
2063 3 93.79979341731601 16.440012708036996 0 -1 0 0
2069 3 97.149786039363 16.440012708036996 0 -1 0 0
2074 1 1.6749963110229942 17.407072279097996 1.3207522887360001 0 0 0
2080 1 5.024988933069999 17.407072279097996 1.3207522887360001 0 0 0
2086 1 8.374981555116996 17.407072279097996 1.3207522887360001 0 0 0
2092 1 11.724974177164 17.407072279097996 1.3207522887360001 0 0 0
2098 1 15.074966799210998 17.407072279097996 1.3207522887360001 0 0 0
2104 1 18.424959421257995 17.407072279097996 1.3207522887360001 0 0 0
2110 1 21.774952043304992 17.407072279097996 1.3207522887360001 0 0 0
2116 1 25.124944665352004 17.407072279097996 1.3207522887360001 0 0 0
2122 1 28.474937287399 17.407072279097996 1.3207522887360001 0 0 0
2128 1 31.824929909446 17.407072279097996 1.3207522887360001 0 0 0
2134 1 35.174922531492996 17.407072279097996 1.3207522887360001 0 0 0
2140 1 38.52491515353999 17.407072279097996 1.3207522887360001 0 0 0
2146 1 41.87490777558699 17.407072279097996 1.3207522887360001 0 0 0
2152 1 45.224900397634 17.407072279097996 1.3207522887360001 0 0 0
2158 1 48.574893019681 17.407072279097996 1.3207522887360001 0 0 0
1984 1 51.924885641728004 17.407072279097996 1.3207522887360001 -1 0 0
1990 1 55.274878263775 17.407072279097996 1.3207522887360001 -1 0 0
1996 1 58.624870885822006 17.407072279097996 1.3207522887360001 -1 0 0
2002 1 61.974863507869 17.407072279097996 1.3207522887360001 -1 0 0
2008 1 65.324856129916 17.407072279097996 1.3207522887360001 -1 0 0
2014 1 68.674848751963 17.407072279097996 1.3207522887360001 -1 0 0
2020 1 72.02484137401001 17.407072279097996 1.3207522887360001 -1 0 0
2026 1 75.374833996057 17.407072279097996 1.3207522887360001 -1 0 0
2032 1 78.724826618104 17.407072279097996 1.3207522887360001 -1 0 0
2038 1 82.074819240151 17.407072279097996 1.3207522887360001 -1 0 0
2044 1 85.424811862198 17.407072279097996 1.3207522887360001 -1 0 0
2050 1 88.77480448424501 17.407072279097996 1.3207522887360001 -1 0 0
2056 1 92.124797106292 17.407072279097996 1.3207522887360001 -1 0 0
2062 1 95.474789728339 17.407072279097996 1.3207522887360001 -1 0 0
2068 1 98.824782350386 17.407072279097996 1.3207522887360001 -1 0 0
2076 3 1.6749963110229942 19.341191421219996 0 0 0 0
2253 1 0 20.308250992280996 1.3207522887360001 0 0 0
2259 1 3.3499926220469973 20.308250992280996 1.3207522887360001 0 0 0
2082 3 5.024988933069999 19.341191421219996 0 0 0 0
2265 1 6.699985244093995 20.308250992280996 1.3207522887360001 0 0 0
2088 3 8.374981555116996 19.341191421219996 0 0 0 0
2271 1 10.049977866140999 20.308250992280996 1.3207522887360001 0 0 0
2094 3 11.724974177164 19.341191421219996 0 0 0 0
2277 1 13.399970488187996 20.308250992280996 1.3207522887360001 0 0 0
2100 3 15.074966799210998 19.341191421219996 0 0 0 0
2283 1 16.749963110235 20.308250992280996 1.3207522887360001 0 0 0
2106 3 18.424959421257995 19.341191421219996 0 0 0 0
2289 1 20.099955732281998 20.308250992280996 1.3207522887360001 0 0 0
2112 3 21.774952043304992 19.341191421219996 0 0 0 0
2295 1 23.449948354328995 20.308250992280996 1.3207522887360001 0 0 0
2118 3 25.124944665352004 19.341191421219996 0 0 0 0
2301 1 26.799940976375993 20.308250992280996 1.3207522887360001 0 0 0
2124 3 28.474937287399 19.341191421219996 0 0 0 0
2307 1 30.149933598423004 20.308250992280996 1.3207522887360001 0 0 0
2130 3 31.824929909446 19.341191421219996 0 0 0 0
2313 1 33.49992622047 20.308250992280996 1.3207522887360001 0 0 0
2136 3 35.174922531492996 19.341191421219996 0 0 0 0
2319 1 36.849918842517 20.308250992280996 1.3207522887360001 0 0 0
2142 3 38.52491515353999 19.341191421219996 0 0 0 0
2325 1 40.199911464563996 20.308250992280996 1.3207522887360001 0 0 0
2148 3 41.87490777558699 19.341191421219996 0 0 0 0
2331 1 43.549904086610994 20.308250992280996 1.3207522887360001 0 0 0
2154 3 45.224900397634 19.341191421219996 0 0 0 0
2337 1 46.89989670865799 20.308250992280996 1.3207522887360001 0 0 0
2160 3 48.574893019681 19.341191421219996 0 0 0 0
2163 1 50.249889330705 20.308250992280996 1.3207522887360001 -1 0 0
1986 3 51.924885641728004 19.341191421219996 0 -1 0 0
2169 1 53.599881952752 20.308250992280996 1.3207522887360001 -1 0 0
1992 3 55.274878263775 19.341191421219996 0 -1 0 0
2175 1 56.949874574799004 20.308250992280996 1.3207522887360001 -1 0 0
1998 3 58.624870885822006 19.341191421219996 0 -1 0 0
2181 1 60.299867196846 20.308250992280996 1.3207522887360001 -1 0 0
2004 3 61.974863507869 19.341191421219996 0 -1 0 0
2187 1 63.649859818893006 20.308250992280996 1.3207522887360001 -1 0 0
2010 3 65.324856129916 19.341191421219996 0 -1 0 0
2193 1 66.99985244094 20.308250992280996 1.3207522887360001 -1 0 0
2016 3 68.674848751963 19.341191421219996 0 -1 0 0
2199 1 70.349845062987 20.308250992280996 1.3207522887360001 -1 0 0
2022 3 72.02484137401001 19.341191421219996 0 -1 0 0
2205 1 73.699837685034 20.308250992280996 1.3207522887360001 -1 0 0
2028 3 75.374833996057 19.341191421219996 0 -1 0 0
2211 1 77.04983030708101 20.308250992280996 1.3207522887360001 -1 0 0
2034 3 78.724826618104 19.341191421219996 0 -1 0 0
2217 1 80.399822929128 20.308250992280996 1.3207522887360001 -1 0 0
2040 3 82.074819240151 19.341191421219996 0 -1 0 0
2223 1 83.749815551175 20.308250992280996 1.3207522887360001 -1 0 0
2046 3 85.424811862198 19.341191421219996 0 -1 0 0
2229 1 87.099808173222 20.308250992280996 1.3207522887360001 -1 0 0
2052 3 88.77480448424501 19.341191421219996 0 -1 0 0
2235 1 90.449800795269 20.308250992280996 1.3207522887360001 -1 0 0
2058 3 92.124797106292 19.341191421219996 0 -1 0 0
2241 1 93.79979341731601 20.308250992280996 1.3207522887360001 -1 0 0
2064 3 95.474789728339 19.341191421219996 0 -1 0 0
2247 1 97.149786039363 20.308250992280996 1.3207522887360001 -1 0 0
2070 3 98.824782350386 19.341191421219996 0 -1 0 0
2255 3 0 22.242370134402996 0 0 0 0
2254 1 1.6749963110229942 23.209429705463997 1.3207522887360001 0 0 0
2261 3 3.3499926220469973 22.242370134402996 0 0 0 0
2260 1 5.024988933069999 23.209429705463997 1.3207522887360001 0 0 0
2267 3 6.699985244093995 22.242370134402996 0 0 0 0
2266 1 8.374981555116996 23.209429705463997 1.3207522887360001 0 0 0
2273 3 10.049977866140999 22.242370134402996 0 0 0 0
2272 1 11.724974177164 23.209429705463997 1.3207522887360001 0 0 0
2279 3 13.399970488187996 22.242370134402996 0 0 0 0
2278 1 15.074966799210998 23.209429705463997 1.3207522887360001 0 0 0
2285 3 16.749963110235 22.242370134402996 0 0 0 0
2284 1 18.424959421257995 23.209429705463997 1.3207522887360001 0 0 0
2291 3 20.099955732281998 22.242370134402996 0 0 0 0
2290 1 21.774952043304992 23.209429705463997 1.3207522887360001 0 0 0
2297 3 23.449948354328995 22.242370134402996 0 0 0 0
2296 1 25.124944665352004 23.209429705463997 1.3207522887360001 0 0 0
2303 3 26.799940976375993 22.242370134402996 0 0 0 0
2302 1 28.474937287399 23.209429705463997 1.3207522887360001 0 0 0
2309 3 30.149933598423004 22.242370134402996 0 0 0 0
2308 1 31.824929909446 23.209429705463997 1.3207522887360001 0 0 0
2315 3 33.49992622047 22.242370134402996 0 0 0 0
2314 1 35.174922531492996 23.209429705463997 1.3207522887360001 0 0 0
2321 3 36.849918842517 22.242370134402996 0 0 0 0
2320 1 38.52491515353999 23.209429705463997 1.3207522887360001 0 0 0
2327 3 40.199911464563996 22.242370134402996 0 0 0 0
2326 1 41.87490777558699 23.209429705463997 1.3207522887360001 0 0 0
2333 3 43.549904086610994 22.242370134402996 0 0 0 0
2332 1 45.224900397634 23.209429705463997 1.3207522887360001 0 0 0
2339 3 46.89989670865799 22.242370134402996 0 0 0 0
2338 1 48.574893019681 23.209429705463997 1.3207522887360001 0 0 0
2165 3 50.249889330705 22.242370134402996 0 -1 0 0
2164 1 51.924885641728004 23.209429705463997 1.3207522887360001 -1 0 0
2171 3 53.599881952752 22.242370134402996 0 -1 0 0
2170 1 55.274878263775 23.209429705463997 1.3207522887360001 -1 0 0
2177 3 56.949874574799004 22.242370134402996 0 -1 0 0
2176 1 58.624870885822006 23.209429705463997 1.3207522887360001 -1 0 0
2183 3 60.299867196846 22.242370134402996 0 -1 0 0
2182 1 61.974863507869 23.209429705463997 1.3207522887360001 -1 0 0
2189 3 63.649859818893006 22.242370134402996 0 -1 0 0
2188 1 65.324856129916 23.209429705463997 1.3207522887360001 -1 0 0
2195 3 66.99985244094 22.242370134402996 0 -1 0 0
2194 1 68.674848751963 23.209429705463997 1.3207522887360001 -1 0 0
2201 3 70.349845062987 22.242370134402996 0 -1 0 0
2200 1 72.02484137401001 23.209429705463997 1.3207522887360001 -1 0 0
2207 3 73.699837685034 22.242370134402996 0 -1 0 0
2206 1 75.374833996057 23.209429705463997 1.3207522887360001 -1 0 0
2213 3 77.04983030708101 22.242370134402996 0 -1 0 0
2212 1 78.724826618104 23.209429705463997 1.3207522887360001 -1 0 0
2219 3 80.399822929128 22.242370134402996 0 -1 0 0
2218 1 82.074819240151 23.209429705463997 1.3207522887360001 -1 0 0
2225 3 83.749815551175 22.242370134402996 0 -1 0 0
2224 1 85.424811862198 23.209429705463997 1.3207522887360001 -1 0 0