LAMMPS data file via write_data, version 29 Aug 2024, timestep = 1, units = metal

5376 atoms
6 atom types

0 99.495051504968 xlo xhi
0 98.474562461888 ylo yhi
-50 50 zlo zhi

Masses

1 106.42
2 106.42
3 32.06
4 32.06
5 32.06
6 32.06

Atoms # atomic

1433 1 0 0 1.2456203869410045 0 0 0
1439 1 3.5533946966059986 0 1.2456203869410047 0 0 0
1431 4 0 2.0515533846226504 -0.005738004896224581 0 0 0
1434 1 1.7766973483030015 3.0773300769339973 1.2456203869410019 0 0 0
1437 4 3.5533946966059986 2.0515533846226517 -0.005738004896222882 0 0 0
1440 1 5.330092044908996 3.0773300769339973 1.2456203869410019 0 0 0
1432 4 1.7766973483029984 5.128883461556651 -0.005738004896227022 0 0 0
1438 4 5.330092044908999 5.128883461556651 -0.005738004896227022 0 0 0
1429 3 1.7766973483029986 1.0257766923113554 2.489138097018955 0 0 0
1435 3 5.330092044908999 1.0257766923113554 2.489138097018955 0 0 0
1430 3 0 4.103106769245356 2.489138097018957 0 0 0
1436 3 3.5533946966059986 4.103106769245354 2.489138097018955 0 0 0
1445 1 7.1067893932120025 0 1.2456203869410045 0 0 0
1451 1 10.660184089818001 0 1.2456203869410045 0 0 0
1443 4 7.106789393212 2.0515533846226504 -0.005738004896224678 0 0 0
1446 1 8.883486741514995 3.0773300769339973 1.2456203869410019 0 0 0
1449 4 10.660184089818 2.05155338462265 -0.005738004896224783 0 0 0
1444 4 8.883486741514998 5.128883461556652 -0.005738004896226919 0 0 0
1441 3 8.883486741514997 1.0257766923113554 2.489138097018955 0 0 0
1442 3 7.106789393212 4.103106769245356 2.489138097018957 0 0 0
1448 3 10.660184089818 4.103106769245356 2.4891380970189574 0 0 0
1457 1 14.213578786424002 0 1.2456203869410047 0 0 0
1452 1 12.436881438120999 3.0773300769339973 1.2456203869410019 0 0 0
1455 4 14.213578786424002 2.0515533846226517 -0.005738004896222889 0 0 0
1458 1 15.990276134726994 3.0773300769339973 1.2456203869410019 0 0 0
1450 4 12.436881438120999 5.1288834615566525 -0.005738004896225403 0 0 0
1456 4 15.990276134726999 5.12888346155665 -0.0057380048962289 0 0 0
1447 3 12.436881438120999 1.025776692311354 2.4891380970189534 0 0 0
1453 3 15.990276134726999 1.0257766923113567 2.489138097018957 0 0 0
1454 3 14.213578786424002 4.103106769245354 2.4891380970189556 0 0 0
1463 1 17.766973483030004 0 1.2456203869410045 0 0 0
1469 1 21.320368179636 0 1.2456203869410047 0 0 0
1461 4 17.76697348303 2.0515533846226486 -0.005738004896226496 0 0 0
1464 1 19.543670831332996 3.0773300769339973 1.2456203869410019 0 0 0
1467 4 21.320368179636 2.0515533846226512 -0.00573800489622309 0 0 0
1470 1 23.097065527939 3.0773300769339973 1.2456203869410019 0 0 0
1462 4 19.543670831332996 5.1288834615566525 -0.005738004896225308 0 0 0
1468 4 23.097065527939 5.1288834615566525 -0.005738004896225308 0 0 0
1459 3 19.543670831332996 1.025776692311354 2.4891380970189534 0 0 0
1465 3 23.097065527939 1.0257766923113538 2.4891380970189534 0 0 0
1460 3 17.76697348303 4.103106769245357 2.489138097018959 0 0 0
1466 3 21.320368179636 4.103106769245354 2.4891380970189556 0 0 0
1475 1 24.873762876241994 0 1.2456203869410045 0 0 0
1481 1 28.427157572847996 0 1.2456203869410047 0 0 0
1473 4 24.873762876241997 2.0515533846226486 -0.005738004896226495 0 0 0
1476 1 26.650460224545004 3.0773300769339973 1.2456203869410019 0 0 0
1479 4 28.427157572847996 2.0515533846226517 -0.005738004896222888 0 0 0
1474 4 26.650460224545 5.12888346155665 -0.005738004896228901 0 0 0
1471 3 26.650460224545 1.0257766923113567 2.489138097018957 0 0 0
1472 3 24.873762876241997 4.103106769245357 2.489138097018959 0 0 0
1478 3 28.427157572847996 4.103106769245354 2.4891380970189556 0 0 0
1487 1 31.980552269454 0 1.2456203869410047 0 0 0
1482 1 30.203854921151 3.0773300769339973 1.245620386941002 0 0 0
1485 4 31.980552269454 2.0515533846226517 -0.005738004896222888 0 0 0
1488 1 33.75724961775699 3.0773300769339973 1.2456203869410019 0 0 0
1480 4 30.203854921151 5.1288834615566525 -0.005738004896225507 0 0 0
1486 4 33.757249617757 5.12888346155665 -0.005738004896228899 0 0 0
1477 3 30.203854921151 1.025776692311354 2.4891380970189534 0 0 0
1483 3 33.757249617757 1.0257766923113567 2.489138097018957 0 0 0
1484 3 31.980552269454 4.103106769245354 2.489138097018955 0 0 0
1493 1 35.53394696606001 0 1.2456203869410045 0 0 0
1499 1 39.087341662666 0 1.2456203869410047 0 0 0
1491 4 35.53394696606 2.0515533846226486 -0.005738004896226496 0 0 0
1494 1 37.310644314362996 3.0773300769339973 1.2456203869410019 0 0 0
1497 4 39.087341662666 2.0515533846226512 -0.00573800489622309 0 0 0
1500 1 40.864039010969 3.0773300769339973 1.2456203869410019 0 0 0
1492 4 37.310644314362996 5.1288834615566525 -0.005738004896225309 0 0 0
1498 4 40.864039010969 5.1288834615566525 -0.005738004896225308 0 0 0
1489 3 37.310644314362996 1.025776692311354 2.4891380970189534 0 0 0
1495 3 40.864039010969 1.0257766923113538 2.4891380970189534 0 0 0
1490 3 35.53394696606 4.103106769245357 2.489138097018959 0 0 0
1496 3 39.087341662666 4.103106769245354 2.4891380970189556 0 0 0
1505 1 42.64073635927199 0 1.2456203869410045 0 0 0
1511 1 46.194131055877996 0 1.2456203869410047 0 0 0
1503 4 42.640736359272 2.0515533846226486 -0.005738004896226495 0 0 0
1506 1 44.41743370757501 3.0773300769339973 1.2456203869410019 0 0 0
1509 4 46.194131055877996 2.0515533846226517 -0.005738004896222889 0 0 0
1504 4 44.417433707575 5.12888346155665 -0.0057380048962289 0 0 0
1501 3 44.417433707575 1.0257766923113567 2.489138097018957 0 0 0
1502 3 42.640736359272 4.103106769245357 2.489138097018959 0 0 0
1508 3 46.194131055877996 4.103106769245354 2.4891380970189556 0 0 0
1349 1 49.747525752484 0 1.2456203869410047 -1 0 0
1512 1 47.970828404181 3.0773300769339973 1.245620386941002 0 0 0
1347 4 49.747525752484 2.0515533846226517 -0.005738004896222985 -1 0 0
1350 1 51.524223100787 3.0773300769339973 1.2456203869410019 -1 0 0
1510 4 47.970828404181 5.1288834615566525 -0.005738004896225507 0 0 0
1348 4 51.524223100787005 5.128883461556651 -0.005738004896227023 -1 0 0
1507 3 47.970828404181 1.025776692311354 2.4891380970189534 0 0 0
1345 3 51.524223100787005 1.0257766923113554 2.489138097018955 -1 0 0
1346 3 49.747525752484 4.103106769245354 2.4891380970189556 -1 0 0
1355 1 53.30092044909001 0 1.2456203869410045 -1 0 0
1361 1 56.854315145696006 0 1.2456203869410045 -1 0 0
1353 4 53.30092044909 2.0515533846226504 -0.005738004896224678 -1 0 0
1356 1 55.077617797392996 3.0773300769339973 1.2456203869410019 -1 0 0
1359 4 56.854315145696 2.0515533846226504 -0.005738004896224678 -1 0 0
1354 4 55.077617797393 5.128883461556652 -0.005738004896226919 -1 0 0
1351 3 55.077617797393 1.0257766923113554 2.489138097018955 -1 0 0
1352 3 53.30092044909 4.103106769245356 2.4891380970189574 -1 0 0
1358 3 56.854315145696 4.103106769245356 2.4891380970189574 -1 0 0
1367 1 60.407709842302005 0 1.2456203869410045 -1 0 0
1373 1 63.961104538908 0 1.2456203869410047 -1 0 0
1362 1 58.631012493998995 3.0773300769339973 1.2456203869410019 -1 0 0
1365 4 60.407709842302 2.05155338462265 -0.005738004896224783 -1 0 0
1368 1 62.184407190605 3.0773300769339973 1.2456203869410019 -1 0 0
1371 4 63.961104538908 2.0515533846226517 -0.005738004896222888 -1 0 0
1360 4 58.631012493999 5.128883461556652 -0.005738004896226919 -1 0 0
1366 4 62.184407190605 5.1288834615566525 -0.005738004896225402 -1 0 0
1357 3 58.631012493999 1.0257766923113554 2.489138097018955 -1 0 0
1363 3 62.184407190605 1.025776692311354 2.4891380970189534 -1 0 0
1364 3 60.407709842302 4.103106769245356 2.4891380970189574 -1 0 0
1370 3 63.961104538908 4.103106769245354 2.4891380970189556 -1 0 0
1379 1 67.51449923551401 0 1.2456203869410045 -1 0 0
1374 1 65.73780188721099 3.0773300769339973 1.2456203869410019 -1 0 0
1377 4 67.514499235514 2.0515533846226486 -0.0057380048962264955 -1 0 0
1380 1 69.291196583817 3.0773300769339973 1.2456203869410019 -1 0 0
1372 4 65.737801887211 5.12888346155665 -0.005738004896228899 -1 0 0
1378 4 69.291196583817 5.1288834615566525 -0.005738004896225308 -1 0 0
1369 3 65.737801887211 1.0257766923113567 2.489138097018957 -1 0 0
1375 3 69.291196583817 1.0257766923113538 2.4891380970189534 -1 0 0
1376 3 67.514499235514 4.103106769245357 2.489138097018959 -1 0 0
1385 1 71.06789393212 0 1.2456203869410047 -1 0 0
1391 1 74.621288628726 0 1.2456203869410047 -1 0 0
1383 4 71.06789393212 2.0515533846226512 -0.00573800489622309 -1 0 0
1386 1 72.844591280423 3.0773300769339973 1.245620386941002 -1 0 0
1389 4 74.621288628726 2.0515533846226517 -0.005738004896222888 -1 0 0
1384 4 72.844591280423 5.1288834615566525 -0.005738004896225507 -1 0 0
1381 3 72.844591280423 1.025776692311354 2.4891380970189534 -1 0 0
1382 3 71.06789393212 4.103106769245354 2.4891380970189556 -1 0 0
1388 3 74.621288628726 4.103106769245354 2.4891380970189556 -1 0 0
1397 1 78.17468332533201 0 1.2456203869410045 -1 0 0
1403 1 81.72807802193799 0 1.2456203869410045 -1 0 0
1392 1 76.397985977029 3.0773300769339973 1.2456203869410019 -1 0 0
1395 4 78.174683325332 2.0515533846226486 -0.0057380048962264955 -1 0 0
1398 1 79.951380673635 3.0773300769339973 1.2456203869410019 -1 0 0
1401 4 81.728078021938 2.0515533846226486 -0.005738004896226495 -1 0 0
1390 4 76.39798597702901 5.12888346155665 -0.005738004896228899 -1 0 0
1396 4 79.951380673635 5.1288834615566525 -0.005738004896225109 -1 0 0
1387 3 76.39798597702901 1.0257766923113567 2.489138097018957 -1 0 0
1393 3 79.951380673635 1.0257766923113538 2.489138097018953 -1 0 0
1394 3 78.174683325332 4.103106769245357 2.489138097018959 -1 0 0
1400 3 81.728078021938 4.103106769245357 2.489138097018959 -1 0 0
1409 1 85.281472718544 0 1.2456203869410047 -1 0 0
1404 1 83.504775370241 3.0773300769339973 1.2456203869410019 -1 0 0
1407 4 85.281472718544 2.0515533846226517 -0.005738004896222888 -1 0 0
1410 1 87.058170066847 3.0773300769339973 1.245620386941002 -1 0 0
1402 4 83.50477537024099 5.12888346155665 -0.0057380048962289 -1 0 0
1408 4 87.058170066847 5.1288834615566525 -0.005738004896225507 -1 0 0
1399 3 83.50477537024099 1.0257766923113567 2.489138097018957 -1 0 0
1405 3 87.058170066847 1.025776692311354 2.4891380970189534 -1 0 0
1406 3 85.281472718544 4.103106769245354 2.489138097018955 -1 0 0
1415 1 88.83486741515 0 1.2456203869410047 -1 0 0
1421 1 92.388262111756 0 1.2456203869410047 -1 0 0
1413 4 88.83486741515 2.0515533846226512 -0.00573800489622309 -1 0 0
1416 1 90.611564763453 3.0773300769339973 1.245620386941002 -1 0 0
1419 4 92.388262111756 2.0515533846226512 -0.00573800489622309 -1 0 0
1414 4 90.611564763453 5.1288834615566525 -0.005738004896225507 -1 0 0
1411 3 90.611564763453 1.025776692311354 2.4891380970189534 -1 0 0
1412 3 88.83486741515 4.103106769245354 2.4891380970189556 -1 0 0
1418 3 92.388262111756 4.103106769245354 2.4891380970189556 -1 0 0
1427 1 95.941656808362 0 1.2456203869410045 -1 0 0
1422 1 94.16495946005901 3.0773300769339973 1.2456203869410019 -1 0 0
1425 4 95.94165680836201 2.0515533846226486 -0.005738004896226496 -1 0 0
1428 1 97.71835415666501 3.0773300769339973 1.2456203869410019 -1 0 0
1420 4 94.16495946005901 5.1288834615566525 -0.005738004896225309 -1 0 0
1426 4 97.718354156665 5.12888346155665 -0.005738004896228797 -1 0 0
1417 3 94.16495946005901 1.025776692311354 2.4891380970189534 -1 0 0
1423 3 97.718354156665 1.0257766923113567 2.489138097018957 -1 0 0
1424 3 95.94165680836201 4.103106769245357 2.489138097018959 -1 0 0
1601 1 0 6.154660153868001 1.2456203869410019 0 0 0
1607 1 3.5533946966059986 6.154660153868001 1.245620386941002 0 0 0
1599 4 0 8.206213538490648 -0.005738004896226665 0 0 0
1605 4 3.5533946966059986 8.20621353849065 -0.005738004896225143 0 0 0
1602 1 1.776697348303001 9.231990230802005 1.2456203869410019 0 0 0
1608 1 5.330092044908996 9.231990230802005 1.2456203869410019 0 0 0
1600 4 1.7766973483029984 11.283543615424648 -0.005738004896224767 0 0 0
1606 4 5.330092044908999 11.283543615424648 -0.005738004896224767 0 0 0
1597 3 1.7766973483029986 7.180436846179353 2.4891380970189574 0 0 0
1603 3 5.330092044908999 7.180436846179353 2.4891380970189574 0 0 0
1598 3 0 10.257766923113353 2.489138097018955 0 0 0
1604 3 3.5533946966059986 10.257766923113353 2.4891380970189534 0 0 0
1613 1 7.1067893932120025 6.154660153868001 1.2456203869410019 0 0 0
1619 1 10.660184089818001 6.154660153868001 1.2456203869410019 0 0 0
1611 4 7.106789393212 8.206213538490648 -0.00573800489622676 0 0 0
1617 4 10.660184089817998 8.206213538490648 -0.005738004896226863 0 0 0
1614 1 8.883486741514995 9.231990230802005 1.2456203869410019 0 0 0
1612 4 8.883486741514998 11.283543615424648 -0.005738004896224664 0 0 0
1609 3 8.883486741514997 7.180436846179353 2.4891380970189574 0 0 0
1610 3 7.106789393212 10.257766923113353 2.489138097018955 0 0 0
1616 3 10.660184089817998 10.257766923113353 2.489138097018955 0 0 0
1625 1 14.213578786424002 6.154660153868001 1.245620386941002 0 0 0
1623 4 14.213578786424002 8.20621353849065 -0.005738004896225152 0 0 0
1620 1 12.436881438120999 9.231990230802005 1.2456203869410019 0 0 0
1626 1 15.990276134726994 9.231990230802005 1.245620386941002 0 0 0
1618 4 12.436881438120999 11.28354361542465 -0.005738004896223153 0 0 0
1624 4 15.990276134726999 11.283543615424646 -0.005738004896226649 0 0 0
1615 3 12.436881438120999 7.180436846179352 2.4891380970189556 0 0 0
1621 3 15.990276134726999 7.180436846179354 2.489138097018959 0 0 0
1622 3 14.213578786424002 10.257766923113353 2.489138097018954 0 0 0
1631 1 17.766973483030004 6.154660153868001 1.245620386941002 0 0 0
1637 1 21.320368179636 6.154660153868001 1.245620386941002 0 0 0
1629 4 17.76697348303 8.206213538490648 -0.005738004896228744 0 0 0
1635 4 21.320368179636 8.20621353849065 -0.00573800489622535 0 0 0
1632 1 19.543670831332996 9.231990230802005 1.2456203869410019 0 0 0
1638 1 23.097065527939 9.231990230802005 1.2456203869410019 0 0 0
1630 4 19.543670831332996 11.28354361542465 -0.005738004896223056 0 0 0
1636 4 23.097065527939 11.28354361542465 -0.005738004896223056 0 0 0
1627 3 19.543670831332996 7.180436846179352 2.4891380970189556 0 0 0
1633 3 23.097065527939 7.180436846179351 2.4891380970189556 0 0 0
1628 3 17.76697348303 10.257766923113355 2.489138097018957 0 0 0
1634 3 21.320368179636 10.257766923113353 2.489138097018954 0 0 0
1643 1 24.873762876241994 6.154660153868001 1.245620386941002 0 0 0
1649 1 28.427157572847996 6.154660153868001 1.245620386941002 0 0 0
1641 4 24.873762876241997 8.206213538490648 -0.005738004896228743 0 0 0
1647 4 28.427157572847996 8.20621353849065 -0.005738004896225151 0 0 0
1644 1 26.650460224545004 9.231990230802005 1.245620386941002 0 0 0
1642 4 26.650460224545 11.283543615424646 -0.00573800489622665 0 0 0
1639 3 26.650460224545 7.180436846179354 2.489138097018959 0 0 0
1640 3 24.873762876241997 10.257766923113355 2.489138097018957 0 0 0
1646 3 28.427157572847996 10.257766923113353 2.489138097018954 0 0 0
1655 1 31.980552269454 6.154660153868001 1.245620386941002 0 0 0
1653 4 31.980552269454 8.20621353849065 -0.005738004896225151 0 0 0
1650 1 30.203854921151 9.231990230802005 1.2456203869410019 0 0 0
1656 1 33.75724961775699 9.231990230802005 1.245620386941002 0 0 0
1648 4 30.203854921151 11.28354361542465 -0.005738004896223255 0 0 0
1654 4 33.757249617757 11.283543615424646 -0.005738004896226648 0 0 0
1645 3 30.203854921151 7.180436846179352 2.4891380970189556 0 0 0
1651 3 33.757249617757 7.180436846179354 2.489138097018959 0 0 0
1652 3 31.980552269454 10.257766923113353 2.4891380970189534 0 0 0
1661 1 35.53394696606001 6.154660153868001 1.245620386941002 0 0 0
1667 1 39.087341662666 6.154660153868001 1.245620386941002 0 0 0
1659 4 35.53394696606 8.206213538490648 -0.005738004896228744 0 0 0
1665 4 39.087341662666 8.20621353849065 -0.00573800489622535 0 0 0
1662 1 37.310644314362996 9.231990230802005 1.2456203869410019 0 0 0
1668 1 40.864039010969 9.231990230802005 1.2456203869410019 0 0 0
1660 4 37.310644314362996 11.28354361542465 -0.005738004896223057 0 0 0
1666 4 40.864039010969 11.28354361542465 -0.005738004896223056 0 0 0
1657 3 37.310644314362996 7.180436846179352 2.4891380970189556 0 0 0
1663 3 40.864039010969 7.180436846179351 2.4891380970189556 0 0 0
1658 3 35.53394696606 10.257766923113355 2.489138097018957 0 0 0
1664 3 39.087341662666 10.257766923113353 2.489138097018954 0 0 0
1673 1 42.64073635927199 6.154660153868001 1.245620386941002 0 0 0
1679 1 46.194131055877996 6.154660153868001 1.245620386941002 0 0 0
1671 4 42.640736359272 8.206213538490648 -0.005738004896228743 0 0 0
1677 4 46.194131055877996 8.20621353849065 -0.005738004896225152 0 0 0
1674 1 44.41743370757501 9.231990230802005 1.245620386941002 0 0 0
1672 4 44.417433707575 11.283543615424646 -0.005738004896226649 0 0 0
1669 3 44.417433707575 7.180436846179354 2.489138097018959 0 0 0
1670 3 42.640736359272 10.257766923113355 2.489138097018957 0 0 0
1676 3 46.194131055877996 10.257766923113353 2.489138097018954 0 0 0
1517 1 49.747525752484 6.154660153868001 1.245620386941002 -1 0 0
1515 4 49.747525752484 8.20621353849065 -0.005738004896225247 -1 0 0
1680 1 47.970828404181 9.231990230802005 1.2456203869410019 0 0 0
1518 1 51.524223100787 9.231990230802005 1.2456203869410019 -1 0 0
1678 4 47.970828404181 11.28354361542465 -0.005738004896223255 0 0 0
1516 4 51.524223100787005 11.283543615424648 -0.005738004896224768 -1 0 0
1675 3 47.970828404181 7.180436846179352 2.4891380970189556 0 0 0
1513 3 51.524223100787005 7.180436846179353 2.4891380970189574 -1 0 0
1514 3 49.747525752484 10.257766923113353 2.489138097018954 -1 0 0
1523 1 53.30092044909001 6.154660153868001 1.2456203869410019 -1 0 0
1529 1 56.854315145696006 6.154660153868001 1.2456203869410019 -1 0 0
1521 4 53.30092044909 8.206213538490648 -0.00573800489622676 -1 0 0
1527 4 56.854315145696 8.206213538490648 -0.00573800489622676 -1 0 0
1524 1 55.077617797392996 9.231990230802005 1.2456203869410019 -1 0 0
1522 4 55.077617797393 11.283543615424648 -0.005738004896224664 -1 0 0
1519 3 55.077617797393 7.180436846179353 2.4891380970189574 -1 0 0
1520 3 53.30092044909 10.257766923113353 2.489138097018955 -1 0 0
1526 3 56.854315145696 10.257766923113353 2.489138097018955 -1 0 0
1535 1 60.407709842302005 6.154660153868001 1.2456203869410019 -1 0 0
1541 1 63.961104538908 6.154660153868001 1.245620386941002 -1 0 0
1533 4 60.407709842302 8.206213538490648 -0.005738004896226863 -1 0 0
1539 4 63.961104538908 8.20621353849065 -0.005738004896225151 -1 0 0
1530 1 58.631012493998995 9.231990230802005 1.2456203869410019 -1 0 0
1536 1 62.184407190605 9.231990230802005 1.2456203869410019 -1 0 0
1528 4 58.631012493999 11.283543615424648 -0.005738004896224664 -1 0 0
1534 4 62.184407190605 11.28354361542465 -0.005738004896223152 -1 0 0
1525 3 58.631012493999 7.180436846179353 2.4891380970189574 -1 0 0
1531 3 62.184407190605 7.180436846179352 2.4891380970189556 -1 0 0
1532 3 60.407709842302 10.257766923113353 2.489138097018955 -1 0 0
1538 3 63.961104538908 10.257766923113353 2.489138097018954 -1 0 0
1547 1 67.51449923551401 6.154660153868001 1.245620386941002 -1 0 0
1545 4 67.514499235514 8.206213538490648 -0.005738004896228743 -1 0 0
1542 1 65.73780188721099 9.231990230802005 1.245620386941002 -1 0 0
1548 1 69.291196583817 9.231990230802005 1.2456203869410019 -1 0 0
1540 4 65.737801887211 11.283543615424646 -0.005738004896226648 -1 0 0
1546 4 69.291196583817 11.28354361542465 -0.005738004896223056 -1 0 0
1537 3 65.737801887211 7.180436846179354 2.489138097018959 -1 0 0
1543 3 69.291196583817 7.180436846179351 2.4891380970189556 -1 0 0
1544 3 67.514499235514 10.257766923113355 2.489138097018957 -1 0 0
1553 1 71.06789393212 6.154660153868001 1.245620386941002 -1 0 0
1559 1 74.621288628726 6.154660153868001 1.245620386941002 -1 0 0
1551 4 71.06789393212 8.20621353849065 -0.005738004896225349 -1 0 0
1557 4 74.621288628726 8.20621353849065 -0.005738004896225151 -1 0 0
1554 1 72.844591280423 9.231990230802005 1.2456203869410019 -1 0 0
1552 4 72.844591280423 11.28354361542465 -0.005738004896223255 -1 0 0
1549 3 72.844591280423 7.180436846179352 2.4891380970189556 -1 0 0
1550 3 71.06789393212 10.257766923113353 2.489138097018954 -1 0 0
1556 3 74.621288628726 10.257766923113353 2.489138097018954 -1 0 0
1565 1 78.17468332533201 6.154660153868001 1.245620386941002 -1 0 0
1571 1 81.72807802193799 6.154660153868001 1.245620386941002 -1 0 0
1563 4 78.174683325332 8.206213538490648 -0.005738004896228743 -1 0 0
1569 4 81.728078021938 8.206213538490648 -0.005738004896228743 -1 0 0
1560 1 76.397985977029 9.231990230802005 1.245620386941002 -1 0 0
1566 1 79.951380673635 9.231990230802005 1.2456203869410019 -1 0 0
1558 4 76.39798597702901 11.283543615424646 -0.005738004896226648 -1 0 0
1564 4 79.951380673635 11.28354361542465 -0.005738004896222858 -1 0 0
1555 3 76.39798597702901 7.180436846179354 2.489138097018959 -1 0 0
1561 3 79.951380673635 7.180436846179351 2.489138097018955 -1 0 0
1562 3 78.174683325332 10.257766923113355 2.489138097018957 -1 0 0
1568 3 81.728078021938 10.257766923113355 2.489138097018957 -1 0 0
1577 1 85.281472718544 6.154660153868001 1.245620386941002 -1 0 0
1575 4 85.281472718544 8.20621353849065 -0.005738004896225151 -1 0 0
1572 1 83.504775370241 9.231990230802005 1.245620386941002 -1 0 0
1578 1 87.058170066847 9.231990230802005 1.2456203869410019 -1 0 0
1570 4 83.50477537024099 11.283543615424646 -0.005738004896226649 -1 0 0
1576 4 87.058170066847 11.28354361542465 -0.005738004896223255 -1 0 0
1567 3 83.50477537024099 7.180436846179354 2.489138097018959 -1 0 0
1573 3 87.058170066847 7.180436846179352 2.4891380970189556 -1 0 0
1574 3 85.281472718544 10.257766923113353 2.4891380970189534 -1 0 0
1583 1 88.83486741515 6.154660153868001 1.245620386941002 -1 0 0
1589 1 92.388262111756 6.154660153868001 1.245620386941002 -1 0 0
1581 4 88.83486741515 8.20621353849065 -0.005738004896225349 -1 0 0
1587 4 92.388262111756 8.20621353849065 -0.00573800489622535 -1 0 0
1584 1 90.611564763453 9.231990230802005 1.2456203869410019 -1 0 0
1582 4 90.611564763453 11.28354361542465 -0.005738004896223255 -1 0 0
1579 3 90.611564763453 7.180436846179352 2.4891380970189556 -1 0 0
1580 3 88.83486741515 10.257766923113353 2.489138097018954 -1 0 0
1586 3 92.388262111756 10.257766923113353 2.489138097018954 -1 0 0
1595 1 95.941656808362 6.154660153868001 1.245620386941002 -1 0 0
1593 4 95.94165680836201 8.206213538490648 -0.0057380048962287445 -1 0 0
1590 1 94.16495946005901 9.231990230802005 1.2456203869410019 -1 0 0
1596 1 97.71835415666501 9.231990230802005 1.245620386941002 -1 0 0
1588 4 94.16495946005901 11.28354361542465 -0.005738004896223057 -1 0 0
1594 4 97.718354156665 11.283543615424646 -0.005738004896226545 -1 0 0
1585 3 94.16495946005901 7.180436846179352 2.4891380970189556 -1 0 0
1591 3 97.718354156665 7.180436846179354 2.489138097018959 -1 0 0
1592 3 95.94165680836201 10.257766923113355 2.489138097018957 -1 0 0
1769 1 0 12.309320307736002 1.2456203869410019 0 0 0
1775 1 3.5533946966059986 12.309320307736002 1.245620386941002 0 0 0
1767 4 0 14.360873692358648 -0.005738004896226665 0 0 0
1773 4 3.5533946966059986 14.36087369235865 -0.005738004896225143 0 0 0
1770 1 1.7766973483030013 15.386650384670002 1.2456203869409999 0 0 0
1776 1 5.330092044908996 15.386650384670002 1.2456203869409999 0 0 0
1765 3 1.7766973483029986 13.335097000047353 2.489138097018957 0 0 0
1771 3 5.330092044908999 13.335097000047353 2.4891380970189574 0 0 0
1766 3 0 16.412427076981356 2.489138097018955 0 0 0
1772 3 3.5533946966059986 16.412427076981352 2.4891380970189534 0 0 0
1781 1 7.1067893932120025 12.309320307736002 1.2456203869410019 0 0 0
1787 1 10.660184089818001 12.309320307736002 1.2456203869410019 0 0 0
1779 4 7.106789393212 14.360873692358648 -0.00573800489622676 0 0 0
1785 4 10.660184089817998 14.360873692358648 -0.005738004896226863 0 0 0
1782 1 8.883486741514995 15.386650384670002 1.2456203869409999 0 0 0
1777 3 8.883486741514997 13.335097000047353 2.489138097018957 0 0 0
1778 3 7.106789393212 16.412427076981356 2.489138097018955 0 0 0
1784 3 10.660184089818 16.412427076981356 2.489138097018955 0 0 0
1793 1 14.213578786424002 12.309320307736002 1.245620386941002 0 0 0
1791 4 14.213578786424002 14.36087369235865 -0.005738004896225152 0 0 0
1788 1 12.436881438120999 15.386650384670002 1.245620386941 0 0 0
1794 1 15.990276134726994 15.386650384670002 1.245620386941 0 0 0
1783 3 12.436881438120999 13.335097000047352 2.489138097018955 0 0 0
1789 3 15.990276134726999 13.335097000047355 2.4891380970189587 0 0 0
1790 3 14.213578786424002 16.412427076981352 2.4891380970189534 0 0 0
1799 1 17.766973483030004 12.309320307736002 1.2456203869410019 0 0 0
1805 1 21.320368179636 12.309320307736002 1.245620386941002 0 0 0
1797 4 17.76697348303 14.360873692358648 -0.005738004896228744 0 0 0
1803 4 21.320368179636 14.36087369235865 -0.00573800489622535 0 0 0
1800 1 19.543670831332996 15.386650384670002 1.245620386941 0 0 0
1806 1 23.097065527939 15.386650384670002 1.245620386941 0 0 0
1795 3 19.543670831332996 13.335097000047352 2.489138097018955 0 0 0
1801 3 23.097065527939 13.335097000047352 2.489138097018955 0 0 0
1796 3 17.76697348303 16.412427076981356 2.489138097018957 0 0 0
1802 3 21.320368179636 16.412427076981352 2.4891380970189534 0 0 0
1811 1 24.873762876241994 12.309320307736002 1.2456203869410019 0 0 0
1817 1 28.427157572847996 12.309320307736002 1.245620386941002 0 0 0
1809 4 24.873762876241997 14.360873692358648 -0.005738004896228743 0 0 0
1815 4 28.427157572847996 14.36087369235865 -0.005738004896225151 0 0 0
1812 1 26.650460224545004 15.386650384670002 1.245620386941 0 0 0
1807 3 26.650460224545 13.335097000047355 2.4891380970189587 0 0 0
1808 3 24.873762876241997 16.412427076981356 2.489138097018957 0 0 0
1814 3 28.427157572847996 16.412427076981352 2.4891380970189534 0 0 0
1823 1 31.980552269454 12.309320307736002 1.245620386941002 0 0 0
1821 4 31.980552269454 14.36087369235865 -0.005738004896225151 0 0 0
1818 1 30.203854921151 15.386650384670002 1.245620386941 0 0 0
1824 1 33.75724961775699 15.386650384670002 1.245620386941 0 0 0
1813 3 30.203854921151 13.335097000047352 2.4891380970189556 0 0 0
1819 3 33.757249617757 13.335097000047355 2.4891380970189587 0 0 0
1820 3 31.980552269454 16.412427076981352 2.4891380970189534 0 0 0
1829 1 35.53394696606001 12.309320307736002 1.2456203869410019 0 0 0
1835 1 39.087341662666 12.309320307736002 1.245620386941002 0 0 0
1827 4 35.53394696606 14.360873692358648 -0.005738004896228744 0 0 0
1833 4 39.087341662666 14.36087369235865 -0.00573800489622535 0 0 0
1830 1 37.310644314362996 15.386650384670002 1.245620386941 0 0 0
1836 1 40.864039010969 15.386650384670002 1.245620386941 0 0 0
1825 3 37.310644314362996 13.335097000047352 2.489138097018955 0 0 0
1831 3 40.864039010969 13.335097000047352 2.489138097018955 0 0 0
1826 3 35.53394696606 16.412427076981356 2.489138097018957 0 0 0
1832 3 39.087341662666 16.412427076981352 2.4891380970189534 0 0 0
1841 1 42.64073635927199 12.309320307736002 1.2456203869410019 0 0 0
1847 1 46.194131055877996 12.309320307736002 1.245620386941002 0 0 0
1839 4 42.640736359272 14.360873692358648 -0.005738004896228743 0 0 0
1845 4 46.194131055877996 14.36087369235865 -0.005738004896225152 0 0 0
1842 1 44.41743370757501 15.386650384670002 1.245620386941 0 0 0
1837 3 44.417433707575 13.335097000047355 2.4891380970189587 0 0 0
1838 3 42.640736359272 16.412427076981356 2.489138097018957 0 0 0
1844 3 46.194131055877996 16.412427076981352 2.4891380970189534 0 0 0
1685 1 49.747525752484 12.309320307736002 1.245620386941002 -1 0 0
1683 4 49.747525752484 14.36087369235865 -0.005738004896225247 -1 0 0
1848 1 47.970828404181 15.386650384670002 1.245620386941 0 0 0
1686 1 51.524223100787 15.386650384670002 1.2456203869409999 -1 0 0
1843 3 47.970828404181 13.335097000047352 2.4891380970189556 0 0 0
1681 3 51.524223100787005 13.335097000047353 2.489138097018957 -1 0 0
1682 3 49.747525752484 16.412427076981352 2.4891380970189534 -1 0 0
1691 1 53.30092044909001 12.309320307736002 1.2456203869410019 -1 0 0
1697 1 56.854315145696006 12.309320307736002 1.2456203869410019 -1 0 0
1689 4 53.30092044909 14.360873692358648 -0.00573800489622676 -1 0 0
1695 4 56.854315145696 14.360873692358648 -0.00573800489622676 -1 0 0
1692 1 55.077617797392996 15.386650384670002 1.2456203869409999 -1 0 0
1687 3 55.077617797393 13.335097000047353 2.489138097018957 -1 0 0
1688 3 53.30092044909 16.412427076981356 2.489138097018955 -1 0 0
1694 3 56.854315145696 16.412427076981356 2.489138097018955 -1 0 0
1703 1 60.407709842302005 12.309320307736002 1.2456203869410019 -1 0 0
1709 1 63.961104538908 12.309320307736002 1.245620386941002 -1 0 0
1701 4 60.407709842302 14.360873692358648 -0.005738004896226863 -1 0 0
1707 4 63.961104538908 14.36087369235865 -0.005738004896225151 -1 0 0
1698 1 58.631012493998995 15.386650384670002 1.2456203869409999 -1 0 0
1704 1 62.184407190605 15.386650384670002 1.245620386941 -1 0 0
1693 3 58.631012493999 13.335097000047353 2.489138097018957 -1 0 0
1699 3 62.184407190605 13.335097000047352 2.489138097018955 -1 0 0
1700 3 60.407709842302 16.412427076981356 2.489138097018955 -1 0 0
1706 3 63.961104538908 16.412427076981352 2.4891380970189534 -1 0 0
1715 1 67.51449923551401 12.309320307736002 1.2456203869410019 -1 0 0
1713 4 67.514499235514 14.360873692358648 -0.005738004896228743 -1 0 0
1710 1 65.73780188721099 15.386650384670002 1.245620386941 -1 0 0
1716 1 69.291196583817 15.386650384670002 1.245620386941 -1 0 0
1705 3 65.737801887211 13.335097000047355 2.4891380970189587 -1 0 0
1711 3 69.291196583817 13.335097000047352 2.489138097018955 -1 0 0
1712 3 67.514499235514 16.412427076981356 2.489138097018957 -1 0 0
1721 1 71.06789393212 12.309320307736002 1.245620386941002 -1 0 0
1727 1 74.621288628726 12.309320307736002 1.245620386941002 -1 0 0
1719 4 71.06789393212 14.36087369235865 -0.005738004896225349 -1 0 0
1725 4 74.621288628726 14.36087369235865 -0.005738004896225151 -1 0 0
1722 1 72.844591280423 15.386650384670002 1.245620386941 -1 0 0
1717 3 72.844591280423 13.335097000047352 2.4891380970189556 -1 0 0
1718 3 71.06789393212 16.412427076981352 2.4891380970189534 -1 0 0