LAMMPS data file via write_data, version 29 Aug 2024, timestep = 0, units = metal

2688 atoms
3 atom types

0 99.495051504968 xlo xhi
0 98.474562461888 ylo yhi
0 17.490143666809 zlo zhi

Masses

1 106.42
2 32.06
3 32.06

Atoms # atomic

1433 1 0 0 1.2450718334049995 0 0 0
1439 1 3.5533946966059986 0 1.2450718334049995 0 0 0
1445 1 7.106789393211997 0 1.2450718334049995 0 0 0
1451 1 10.660184089817996 0 1.2450718334049995 0 0 0
1457 1 14.213578786424002 0 1.2450718334049995 0 0 0
1463 1 17.766973483029993 0 1.2450718334049995 0 0 0
1469 1 21.320368179636 0 1.2450718334049995 0 0 0
1475 1 24.873762876242004 0 1.2450718334049995 0 0 0
1481 1 28.427157572847996 0 1.2450718334049995 0 0 0
1487 1 31.980552269454 0 1.2450718334049995 0 0 0
1493 1 35.53394696605999 0 1.2450718334049995 0 0 0
1499 1 39.087341662666 0 1.2450718334049995 0 0 0
1505 1 42.640736359272005 0 1.2450718334049995 0 0 0
1511 1 46.194131055877996 0 1.2450718334049995 0 0 0
1349 1 49.747525752484 0 1.2450718334049995 -1 0 0
1355 1 53.30092044909 0 1.2450718334049995 -1 0 0
1361 1 56.854315145696 0 1.2450718334049995 -1 0 0
1367 1 60.407709842302 0 1.2450718334049995 -1 0 0
1373 1 63.961104538908 0 1.2450718334049995 -1 0 0
1379 1 67.514499235514 0 1.2450718334049995 -1 0 0
1385 1 71.06789393212 0 1.2450718334049995 -1 0 0
1391 1 74.621288628726 0 1.2450718334049995 -1 0 0
1397 1 78.174683325332 0 1.2450718334049995 -1 0 0
1403 1 81.728078021938 0 1.2450718334049995 -1 0 0
1409 1 85.281472718544 0 1.2450718334049995 -1 0 0
1415 1 88.83486741515 0 1.2450718334049995 -1 0 0
1421 1 92.388262111756 0 1.2450718334049995 -1 0 0
1427 1 95.94165680836201 0 1.2450718334049995 -1 0 0
1431 3 0 2.0515533846229985 0 0 0 0
1434 1 1.7766973483029957 3.077330076934004 1.2450718334049995 0 0 0
1437 3 3.5533946966059986 2.0515533846229985 0 0 0 0
1440 1 5.3300920449090015 3.077330076934004 1.2450718334049995 0 0 0
1443 3 7.106789393211997 2.0515533846229985 0 0 0 0
1446 1 8.883486741515 3.077330076934004 1.2450718334049995 0 0 0
1449 3 10.660184089817996 2.0515533846229985 0 0 0 0
1452 1 12.436881438120999 3.077330076934004 1.2450718334049995 0 0 0
1455 3 14.213578786424002 2.0515533846229985 0 0 0 0
1458 1 15.990276134727004 3.077330076934004 1.2450718334049995 0 0 0
1461 3 17.766973483029993 2.0515533846229985 0 0 0 0
1464 1 19.543670831332996 3.077330076934004 1.2450718334049995 0 0 0
1467 3 21.320368179636 2.0515533846229985 0 0 0 0
1470 1 23.097065527939 3.077330076934004 1.2450718334049995 0 0 0
1473 3 24.873762876242004 2.0515533846229985 0 0 0 0
1476 1 26.650460224544993 3.077330076934004 1.2450718334049995 0 0 0
1479 3 28.427157572847996 2.0515533846229985 0 0 0 0
1482 1 30.203854921151 3.077330076934004 1.2450718334049995 0 0 0
1485 3 31.980552269454 2.0515533846229985 0 0 0 0
1488 1 33.757249617757005 3.077330076934004 1.2450718334049995 0 0 0
1491 3 35.53394696605999 2.0515533846229985 0 0 0 0
1494 1 37.310644314362996 3.077330076934004 1.2450718334049995 0 0 0
1497 3 39.087341662666 2.0515533846229985 0 0 0 0
1500 1 40.864039010969 3.077330076934004 1.2450718334049995 0 0 0
1503 3 42.640736359272005 2.0515533846229985 0 0 0 0
1506 1 44.41743370757499 3.077330076934004 1.2450718334049995 0 0 0
1509 3 46.194131055877996 2.0515533846229985 0 0 0 0
1512 1 47.970828404181 3.077330076934004 1.2450718334049995 0 0 0
1347 3 49.747525752484 2.0515533846229985 0 -1 0 0
1350 1 51.524223100787005 3.077330076934004 1.2450718334049995 -1 0 0
1353 3 53.30092044909 2.0515533846229985 0 -1 0 0
1356 1 55.077617797393 3.077330076934004 1.2450718334049995 -1 0 0
1359 3 56.854315145696 2.0515533846229985 0 -1 0 0
1362 1 58.631012493999 3.077330076934004 1.2450718334049995 -1 0 0
1365 3 60.407709842302 2.0515533846229985 0 -1 0 0
1368 1 62.184407190605 3.077330076934004 1.2450718334049995 -1 0 0
1371 3 63.961104538908 2.0515533846229985 0 -1 0 0
1374 1 65.737801887211 3.077330076934004 1.2450718334049995 -1 0 0
1377 3 67.514499235514 2.0515533846229985 0 -1 0 0
1380 1 69.291196583817 3.077330076934004 1.2450718334049995 -1 0 0
1383 3 71.06789393212 2.0515533846229985 0 -1 0 0
1386 1 72.844591280423 3.077330076934004 1.2450718334049995 -1 0 0
1389 3 74.621288628726 2.0515533846229985 0 -1 0 0
1392 1 76.39798597702901 3.077330076934004 1.2450718334049995 -1 0 0
1395 3 78.174683325332 2.0515533846229985 0 -1 0 0
1398 1 79.951380673635 3.077330076934004 1.2450718334049995 -1 0 0
1401 3 81.728078021938 2.0515533846229985 0 -1 0 0
1404 1 83.50477537024099 3.077330076934004 1.2450718334049995 -1 0 0
1407 3 85.281472718544 2.0515533846229985 0 -1 0 0
1410 1 87.058170066847 3.077330076934004 1.2450718334049995 -1 0 0
1413 3 88.83486741515 2.0515533846229985 0 -1 0 0
1416 1 90.611564763453 3.077330076934004 1.2450718334049995 -1 0 0
1419 3 92.388262111756 2.0515533846229985 0 -1 0 0
1422 1 94.16495946005901 3.077330076934004 1.2450718334049995 -1 0 0
1425 3 95.94165680836201 2.0515533846229985 0 -1 0 0
1428 1 97.718354156665 3.077330076934004 1.2450718334049995 -1 0 0
1432 3 1.7766973483029957 5.1288834615570025 0 0 0 0
1438 3 5.3300920449090015 5.1288834615570025 0 0 0 0
1444 3 8.883486741515 5.1288834615570025 0 0 0 0
1450 3 12.436881438120999 5.1288834615570025 0 0 0 0
1456 3 15.990276134727004 5.1288834615570025 0 0 0 0
1462 3 19.543670831332996 5.1288834615570025 0 0 0 0
1468 3 23.097065527939 5.1288834615570025 0 0 0 0
1474 3 26.650460224544993 5.1288834615570025 0 0 0 0
1480 3 30.203854921151 5.1288834615570025 0 0 0 0
1486 3 33.757249617757005 5.1288834615570025 0 0 0 0
1492 3 37.310644314362996 5.1288834615570025 0 0 0 0
1498 3 40.864039010969 5.1288834615570025 0 0 0 0
1504 3 44.41743370757499 5.1288834615570025 0 0 0 0
1510 3 47.970828404181 5.1288834615570025 0 0 0 0
1348 3 51.524223100787005 5.1288834615570025 0 -1 0 0
1354 3 55.077617797393 5.1288834615570025 0 -1 0 0
1360 3 58.631012493999 5.1288834615570025 0 -1 0 0
1366 3 62.184407190605 5.1288834615570025 0 -1 0 0
1372 3 65.737801887211 5.1288834615570025 0 -1 0 0
1378 3 69.291196583817 5.1288834615570025 0 -1 0 0
1384 3 72.844591280423 5.1288834615570025 0 -1 0 0
1390 3 76.39798597702901 5.1288834615570025 0 -1 0 0
1396 3 79.951380673635 5.1288834615570025 0 -1 0 0
1402 3 83.50477537024099 5.1288834615570025 0 -1 0 0
1408 3 87.058170066847 5.1288834615570025 0 -1 0 0
1414 3 90.611564763453 5.1288834615570025 0 -1 0 0
1420 3 94.16495946005901 5.1288834615570025 0 -1 0 0
1426 3 97.718354156665 5.1288834615570025 0 -1 0 0
1601 1 0 6.154660153868001 1.2450718334049995 0 0 0
1607 1 3.5533946966059986 6.154660153868001 1.2450718334049995 0 0 0
1613 1 7.106789393211997 6.154660153868001 1.2450718334049995 0 0 0
1619 1 10.660184089817996 6.154660153868001 1.2450718334049995 0 0 0
1625 1 14.213578786424002 6.154660153868001 1.2450718334049995 0 0 0
1631 1 17.766973483029993 6.154660153868001 1.2450718334049995 0 0 0
1637 1 21.320368179636 6.154660153868001 1.2450718334049995 0 0 0
1643 1 24.873762876242004 6.154660153868001 1.2450718334049995 0 0 0
1649 1 28.427157572847996 6.154660153868001 1.2450718334049995 0 0 0
1655 1 31.980552269454 6.154660153868001 1.2450718334049995 0 0 0
1661 1 35.53394696605999 6.154660153868001 1.2450718334049995 0 0 0
1667 1 39.087341662666 6.154660153868001 1.2450718334049995 0 0 0
1673 1 42.640736359272005 6.154660153868001 1.2450718334049995 0 0 0
1679 1 46.194131055877996 6.154660153868001 1.2450718334049995 0 0 0
1517 1 49.747525752484 6.154660153868001 1.2450718334049995 -1 0 0
1523 1 53.30092044909 6.154660153868001 1.2450718334049995 -1 0 0
1529 1 56.854315145696 6.154660153868001 1.2450718334049995 -1 0 0
1535 1 60.407709842302 6.154660153868001 1.2450718334049995 -1 0 0
1541 1 63.961104538908 6.154660153868001 1.2450718334049995 -1 0 0
1547 1 67.514499235514 6.154660153868001 1.2450718334049995 -1 0 0
1553 1 71.06789393212 6.154660153868001 1.2450718334049995 -1 0 0
1559 1 74.621288628726 6.154660153868001 1.2450718334049995 -1 0 0
1565 1 78.174683325332 6.154660153868001 1.2450718334049995 -1 0 0
1571 1 81.728078021938 6.154660153868001 1.2450718334049995 -1 0 0
1577 1 85.281472718544 6.154660153868001 1.2450718334049995 -1 0 0
1583 1 88.83486741515 6.154660153868001 1.2450718334049995 -1 0 0
1589 1 92.388262111756 6.154660153868001 1.2450718334049995 -1 0 0
1595 1 95.94165680836201 6.154660153868001 1.2450718334049995 -1 0 0
1599 3 0 8.206213538491 0 0 0 0
1605 3 3.5533946966059986 8.206213538491 0 0 0 0
1611 3 7.106789393211997 8.206213538491 0 0 0 0
1617 3 10.660184089817996 8.206213538491 0 0 0 0
1623 3 14.213578786424002 8.206213538491 0 0 0 0
1629 3 17.766973483029993 8.206213538491 0 0 0 0
1635 3 21.320368179636 8.206213538491 0 0 0 0
1641 3 24.873762876242004 8.206213538491 0 0 0 0
1647 3 28.427157572847996 8.206213538491 0 0 0 0
1653 3 31.980552269454 8.206213538491 0 0 0 0
1659 3 35.53394696605999 8.206213538491 0 0 0 0
1665 3 39.087341662666 8.206213538491 0 0 0 0
1671 3 42.640736359272005 8.206213538491 0 0 0 0
1677 3 46.194131055877996 8.206213538491 0 0 0 0
1515 3 49.747525752484 8.206213538491 0 -1 0 0
1521 3 53.30092044909 8.206213538491 0 -1 0 0
1527 3 56.854315145696 8.206213538491 0 -1 0 0
1533 3 60.407709842302 8.206213538491 0 -1 0 0
1539 3 63.961104538908 8.206213538491 0 -1 0 0
1545 3 67.514499235514 8.206213538491 0 -1 0 0
1551 3 71.06789393212 8.206213538491 0 -1 0 0
1557 3 74.621288628726 8.206213538491 0 -1 0 0
1563 3 78.174683325332 8.206213538491 0 -1 0 0
1569 3 81.728078021938 8.206213538491 0 -1 0 0
1575 3 85.281472718544 8.206213538491 0 -1 0 0
1581 3 88.83486741515 8.206213538491 0 -1 0 0
1587 3 92.388262111756 8.206213538491 0 -1 0 0
1593 3 95.94165680836201 8.206213538491 0 -1 0 0
1602 1 1.7766973483029957 9.231990230801998 1.2450718334049995 0 0 0
1608 1 5.3300920449090015 9.231990230801998 1.2450718334049995 0 0 0
1614 1 8.883486741515 9.231990230801998 1.2450718334049995 0 0 0
1620 1 12.436881438120999 9.231990230801998 1.2450718334049995 0 0 0
1626 1 15.990276134727004 9.231990230801998 1.2450718334049995 0 0 0
1632 1 19.543670831332996 9.231990230801998 1.2450718334049995 0 0 0
1638 1 23.097065527939 9.231990230801998 1.2450718334049995 0 0 0
1644 1 26.650460224544993 9.231990230801998 1.2450718334049995 0 0 0
1650 1 30.203854921151 9.231990230801998 1.2450718334049995 0 0 0
1656 1 33.757249617757005 9.231990230801998 1.2450718334049995 0 0 0
1662 1 37.310644314362996 9.231990230801998 1.2450718334049995 0 0 0
1668 1 40.864039010969 9.231990230801998 1.2450718334049995 0 0 0
1674 1 44.41743370757499 9.231990230801998 1.2450718334049995 0 0 0
1680 1 47.970828404181 9.231990230801998 1.2450718334049995 0 0 0
1518 1 51.524223100787005 9.231990230801998 1.2450718334049995 -1 0 0
1524 1 55.077617797393 9.231990230801998 1.2450718334049995 -1 0 0
1530 1 58.631012493999 9.231990230801998 1.2450718334049995 -1 0 0
1536 1 62.184407190605 9.231990230801998 1.2450718334049995 -1 0 0
1542 1 65.737801887211 9.231990230801998 1.2450718334049995 -1 0 0
1548 1 69.291196583817 9.231990230801998 1.2450718334049995 -1 0 0
1554 1 72.844591280423 9.231990230801998 1.2450718334049995 -1 0 0
1560 1 76.39798597702901 9.231990230801998 1.2450718334049995 -1 0 0
1566 1 79.951380673635 9.231990230801998 1.2450718334049995 -1 0 0
1572 1 83.50477537024099 9.231990230801998 1.2450718334049995 -1 0 0
1578 1 87.058170066847 9.231990230801998 1.2450718334049995 -1 0 0
1584 1 90.611564763453 9.231990230801998 1.2450718334049995 -1 0 0
1590 1 94.16495946005901 9.231990230801998 1.2450718334049995 -1 0 0
1596 1 97.718354156665 9.231990230801998 1.2450718334049995 -1 0 0
1600 3 1.7766973483029957 11.283543615425003 0 0 0 0
1769 1 0 12.309320307736002 1.2450718334049995 0 0 0
1775 1 3.5533946966059986 12.309320307736002 1.2450718334049995 0 0 0
1606 3 5.3300920449090015 11.283543615425003 0 0 0 0
1781 1 7.106789393211997 12.309320307736002 1.2450718334049995 0 0 0
1612 3 8.883486741515 11.283543615425003 0 0 0 0
1787 1 10.660184089817996 12.309320307736002 1.2450718334049995 0 0 0
1618 3 12.436881438120999 11.283543615425003 0 0 0 0
1793 1 14.213578786424002 12.309320307736002 1.2450718334049995 0 0 0
1624 3 15.990276134727004 11.283543615425003 0 0 0 0
1799 1 17.766973483029993 12.309320307736002 1.2450718334049995 0 0 0
1630 3 19.543670831332996 11.283543615425003 0 0 0 0
1805 1 21.320368179636 12.309320307736002 1.2450718334049995 0 0 0
1636 3 23.097065527939 11.283543615425003 0 0 0 0
1811 1 24.873762876242004 12.309320307736002 1.2450718334049995 0 0 0
1642 3 26.650460224544993 11.283543615425003 0 0 0 0
1817 1 28.427157572847996 12.309320307736002 1.2450718334049995 0 0 0
1648 3 30.203854921151 11.283543615425003 0 0 0 0
1823 1 31.980552269454 12.309320307736002 1.2450718334049995 0 0 0
1654 3 33.757249617757005 11.283543615425003 0 0 0 0
1829 1 35.53394696605999 12.309320307736002 1.2450718334049995 0 0 0
1660 3 37.310644314362996 11.283543615425003 0 0 0 0
1835 1 39.087341662666 12.309320307736002 1.2450718334049995 0 0 0
1666 3 40.864039010969 11.283543615425003 0 0 0 0
1841 1 42.640736359272005 12.309320307736002 1.2450718334049995 0 0 0
1672 3 44.41743370757499 11.283543615425003 0 0 0 0
1847 1 46.194131055877996 12.309320307736002 1.2450718334049995 0 0 0
1678 3 47.970828404181 11.283543615425003 0 0 0 0
1516 3 51.524223100787005 11.283543615425003 0 -1 0 0
1685 1 49.747525752484 12.309320307736002 1.2450718334049995 -1 0 0
1691 1 53.30092044909 12.309320307736002 1.2450718334049995 -1 0 0
1522 3 55.077617797393 11.283543615425003 0 -1 0 0
1697 1 56.854315145696 12.309320307736002 1.2450718334049995 -1 0 0
1528 3 58.631012493999 11.283543615425003 0 -1 0 0
1703 1 60.407709842302 12.309320307736002 1.2450718334049995 -1 0 0
1534 3 62.184407190605 11.283543615425003 0 -1 0 0
1709 1 63.961104538908 12.309320307736002 1.2450718334049995 -1 0 0
1540 3 65.737801887211 11.283543615425003 0 -1 0 0
1715 1 67.514499235514 12.309320307736002 1.2450718334049995 -1 0 0
1546 3 69.291196583817 11.283543615425003 0 -1 0 0
1721 1 71.06789393212 12.309320307736002 1.2450718334049995 -1 0 0
1552 3 72.844591280423 11.283543615425003 0 -1 0 0
1727 1 74.621288628726 12.309320307736002 1.2450718334049995 -1 0 0
1558 3 76.39798597702901 11.283543615425003 0 -1 0 0
1733 1 78.174683325332 12.309320307736002 1.2450718334049995 -1 0 0
1564 3 79.951380673635 11.283543615425003 0 -1 0 0
1739 1 81.728078021938 12.309320307736002 1.2450718334049995 -1 0 0
1570 3 83.50477537024099 11.283543615425003 0 -1 0 0
1745 1 85.281472718544 12.309320307736002 1.2450718334049995 -1 0 0
1576 3 87.058170066847 11.283543615425003 0 -1 0 0
1751 1 88.83486741515 12.309320307736002 1.2450718334049995 -1 0 0
1582 3 90.611564763453 11.283543615425003 0 -1 0 0
1757 1 92.388262111756 12.309320307736002 1.2450718334049995 -1 0 0
1588 3 94.16495946005901 11.283543615425003 0 -1 0 0
1763 1 95.94165680836201 12.309320307736002 1.2450718334049995 -1 0 0
1594 3 97.718354156665 11.283543615425003 0 -1 0 0
1767 3 0 14.360873692359 0 0 0 0
1773 3 3.5533946966059986 14.360873692359 0 0 0 0
1779 3 7.106789393211997 14.360873692359 0 0 0 0
1785 3 10.660184089817996 14.360873692359 0 0 0 0
1791 3 14.213578786424002 14.360873692359 0 0 0 0
1797 3 17.766973483029993 14.360873692359 0 0 0 0
1803 3 21.320368179636 14.360873692359 0 0 0 0
1809 3 24.873762876242004 14.360873692359 0 0 0 0
1815 3 28.427157572847996 14.360873692359 0 0 0 0
1821 3 31.980552269454 14.360873692359 0 0 0 0
1827 3 35.53394696605999 14.360873692359 0 0 0 0
1833 3 39.087341662666 14.360873692359 0 0 0 0
1839 3 42.640736359272005 14.360873692359 0 0 0 0
1845 3 46.194131055877996 14.360873692359 0 0 0 0
1683 3 49.747525752484 14.360873692359 0 -1 0 0
1689 3 53.30092044909 14.360873692359 0 -1 0 0
1695 3 56.854315145696 14.360873692359 0 -1 0 0
1701 3 60.407709842302 14.360873692359 0 -1 0 0
1707 3 63.961104538908 14.360873692359 0 -1 0 0
1713 3 67.514499235514 14.360873692359 0 -1 0 0
1719 3 71.06789393212 14.360873692359 0 -1 0 0
1725 3 74.621288628726 14.360873692359 0 -1 0 0
1731 3 78.174683325332 14.360873692359 0 -1 0 0
1737 3 81.728078021938 14.360873692359 0 -1 0 0
1743 3 85.281472718544 14.360873692359 0 -1 0 0
1749 3 88.83486741515 14.360873692359 0 -1 0 0
1755 3 92.388262111756 14.360873692359 0 -1 0 0
1761 3 95.94165680836201 14.360873692359 0 -1 0 0
1770 1 1.7766973483029957 15.386650384669998 1.2450718334049995 0 0 0
1776 1 5.3300920449090015 15.386650384669998 1.2450718334049995 0 0 0
1782 1 8.883486741515 15.386650384669998 1.2450718334049995 0 0 0
1788 1 12.436881438120999 15.386650384669998 1.2450718334049995 0 0 0
1794 1 15.990276134727004 15.386650384669998 1.2450718334049995 0 0 0
1800 1 19.543670831332996 15.386650384669998 1.2450718334049995 0 0 0
1806 1 23.097065527939 15.386650384669998 1.2450718334049995 0 0 0
1812 1 26.650460224544993 15.386650384669998 1.2450718334049995 0 0 0
1818 1 30.203854921151 15.386650384669998 1.2450718334049995 0 0 0
1824 1 33.757249617757005 15.386650384669998 1.2450718334049995 0 0 0
1830 1 37.310644314362996 15.386650384669998 1.2450718334049995 0 0 0
1836 1 40.864039010969 15.386650384669998 1.2450718334049995 0 0 0
1842 1 44.41743370757499 15.386650384669998 1.2450718334049995 0 0 0
1848 1 47.970828404181 15.386650384669998 1.2450718334049995 0 0 0
1686 1 51.524223100787005 15.386650384669998 1.2450718334049995 -1 0 0
1692 1 55.077617797393 15.386650384669998 1.2450718334049995 -1 0 0
1698 1 58.631012493999 15.386650384669998 1.2450718334049995 -1 0 0
1704 1 62.184407190605 15.386650384669998 1.2450718334049995 -1 0 0
1710 1 65.737801887211 15.386650384669998 1.2450718334049995 -1 0 0
1716 1 69.291196583817 15.386650384669998 1.2450718334049995 -1 0 0
1722 1 72.844591280423 15.386650384669998 1.2450718334049995 -1 0 0
1728 1 76.39798597702901 15.386650384669998 1.2450718334049995 -1 0 0
1734 1 79.951380673635 15.386650384669998 1.2450718334049995 -1 0 0
1740 1 83.50477537024099 15.386650384669998 1.2450718334049995 -1 0 0
1746 1 87.058170066847 15.386650384669998 1.2450718334049995 -1 0 0
1752 1 90.611564763453 15.386650384669998 1.2450718334049995 -1 0 0
1758 1 94.16495946005901 15.386650384669998 1.2450718334049995 -1 0 0
1764 1 97.718354156665 15.386650384669998 1.2450718334049995 -1 0 0
1768 3 1.7766973483029957 17.438203769293004 0 0 0 0
1774 3 5.3300920449090015 17.438203769293004 0 0 0 0
1780 3 8.883486741515 17.438203769293004 0 0 0 0
1786 3 12.436881438120999 17.438203769293004 0 0 0 0
1792 3 15.990276134727004 17.438203769293004 0 0 0 0
1798 3 19.543670831332996 17.438203769293004 0 0 0 0
1804 3 23.097065527939 17.438203769293004 0 0 0 0
1810 3 26.650460224544993 17.438203769293004 0 0 0 0
1816 3 30.203854921151 17.438203769293004 0 0 0 0
1822 3 33.757249617757005 17.438203769293004 0 0 0 0
1828 3 37.310644314362996 17.438203769293004 0 0 0 0
1834 3 40.864039010969 17.438203769293004 0 0 0 0
1840 3 44.41743370757499 17.438203769293004 0 0 0 0
1846 3 47.970828404181 17.438203769293004 0 0 0 0
1684 3 51.524223100787005 17.438203769293004 0 -1 0 0
1690 3 55.077617797393 17.438203769293004 0 -1 0 0
1696 3 58.631012493999 17.438203769293004 0 -1 0 0
1702 3 62.184407190605 17.438203769293004 0 -1 0 0
1708 3 65.737801887211 17.438203769293004 0 -1 0 0
1714 3 69.291196583817 17.438203769293004 0 -1 0 0
1720 3 72.844591280423 17.438203769293004 0 -1 0 0
1726 3 76.39798597702901 17.438203769293004 0 -1 0 0
1732 3 79.951380673635 17.438203769293004 0 -1 0 0
1738 3 83.50477537024099 17.438203769293004 0 -1 0 0
1744 3 87.058170066847 17.438203769293004 0 -1 0 0
1750 3 90.611564763453 17.438203769293004 0 -1 0 0
1756 3 94.16495946005901 17.438203769293004 0 -1 0 0
1762 3 97.718354156665 17.438203769293004 0 -1 0 0
1937 1 0 18.463980461604002 1.2450718334049995 0 0 0
1943 1 3.5533946966059986 18.463980461604002 1.2450718334049995 0 0 0
1949 1 7.106789393211997 18.463980461604002 1.2450718334049995 0 0 0
1955 1 10.660184089817996 18.463980461604002 1.2450718334049995 0 0 0
1961 1 14.213578786424002 18.463980461604002 1.2450718334049995 0 0 0
1967 1 17.766973483029993 18.463980461604002 1.2450718334049995 0 0 0
1973 1 21.320368179636 18.463980461604002 1.2450718334049995 0 0 0
1979 1 24.873762876242004 18.463980461604002 1.2450718334049995 0 0 0
1985 1 28.427157572847996 18.463980461604002 1.2450718334049995 0 0 0
1991 1 31.980552269454 18.463980461604002 1.2450718334049995 0 0 0
1997 1 35.53394696605999 18.463980461604002 1.2450718334049995 0 0 0
2003 1 39.087341662666 18.463980461604002 1.2450718334049995 0 0 0
2009 1 42.640736359272005 18.463980461604002 1.2450718334049995 0 0 0
2015 1 46.194131055877996 18.463980461604002 1.2450718334049995 0 0 0
1853 1 49.747525752484 18.463980461604002 1.2450718334049995 -1 0 0
1859 1 53.30092044909 18.463980461604002 1.2450718334049995 -1 0 0
1865 1 56.854315145696 18.463980461604002 1.2450718334049995 -1 0 0
1871 1 60.407709842302 18.463980461604002 1.2450718334049995 -1 0 0
1877 1 63.961104538908 18.463980461604002 1.2450718334049995 -1 0 0
1883 1 67.514499235514 18.463980461604002 1.2450718334049995 -1 0 0
1889 1 71.06789393212 18.463980461604002 1.2450718334049995 -1 0 0
1895 1 74.621288628726 18.463980461604002 1.2450718334049995 -1 0 0
1901 1 78.174683325332 18.463980461604002 1.2450718334049995 -1 0 0
1907 1 81.728078021938 18.463980461604002 1.2450718334049995 -1 0 0
1913 1 85.281472718544 18.463980461604002 1.2450718334049995 -1 0 0
1919 1 88.83486741515 18.463980461604002 1.2450718334049995 -1 0 0
1925 1 92.388262111756 18.463980461604002 1.2450718334049995 -1 0 0
1931 1 95.94165680836201 18.463980461604002 1.2450718334049995 -1 0 0
1935 3 0 20.515533846226994 0 0 0 0
1938 1 1.7766973483029957 21.541310538538006 1.2450718334049995 0 0 0
1941 3 3.5533946966059986 20.515533846226994 0 0 0 0
1944 1 5.3300920449090015 21.541310538538006 1.2450718334049995 0 0 0
1947 3 7.106789393211997 20.515533846226994 0 0 0 0
1950 1 8.883486741515 21.541310538538006 1.2450718334049995 0 0 0
1953 3 10.660184089817996 20.515533846226994 0 0 0 0
1956 1 12.436881438120999 21.541310538538006 1.2450718334049995 0 0 0
1959 3 14.213578786424002 20.515533846226994 0 0 0 0
1962 1 15.990276134727004 21.541310538538006 1.2450718334049995 0 0 0
1965 3 17.766973483029993 20.515533846226994 0 0 0 0
1968 1 19.543670831332996 21.541310538538006 1.2450718334049995 0 0 0
1971 3 21.320368179636 20.515533846226994 0 0 0 0
1974 1 23.097065527939 21.541310538538006 1.2450718334049995 0 0 0
1977 3 24.873762876242004 20.515533846226994 0 0 0 0
1980 1 26.650460224544993 21.541310538538006 1.2450718334049995 0 0 0
1983 3 28.427157572847996 20.515533846226994 0 0 0 0
1986 1 30.203854921151 21.541310538538006 1.2450718334049995 0 0 0
1989 3 31.980552269454 20.515533846226994 0 0 0 0
1992 1 33.757249617757005 21.541310538538006 1.2450718334049995 0 0 0
1995 3 35.53394696605999 20.515533846226994 0 0 0 0
1998 1 37.310644314362996 21.541310538538006 1.2450718334049995 0 0 0
2001 3 39.087341662666 20.515533846226994 0 0 0 0
2004 1 40.864039010969 21.541310538538006 1.2450718334049995 0 0 0
2007 3 42.640736359272005 20.515533846226994 0 0 0 0
2010 1 44.41743370757499 21.541310538538006 1.2450718334049995 0 0 0
2013 3 46.194131055877996 20.515533846226994 0 0 0 0
2016 1 47.970828404181 21.541310538538006 1.2450718334049995 0 0 0
1851 3 49.747525752484 20.515533846226994 0 -1 0 0
1854 1 51.524223100787005 21.541310538538006 1.2450718334049995 -1 0 0
1857 3 53.30092044909 20.515533846226994 0 -1 0 0
1860 1 55.077617797393 21.541310538538006 1.2450718334049995 -1 0 0
1863 3 56.854315145696 20.515533846226994 0 -1 0 0
1866 1 58.631012493999 21.541310538538006 1.2450718334049995 -1 0 0
1869 3 60.407709842302 20.515533846226994 0 -1 0 0
1872 1 62.184407190605 21.541310538538006 1.2450718334049995 -1 0 0
1875 3 63.961104538908 20.515533846226994 0 -1 0 0
1878 1 65.737801887211 21.541310538538006 1.2450718334049995 -1 0 0
1881 3 67.514499235514 20.515533846226994 0 -1 0 0
1884 1 69.291196583817 21.541310538538006 1.2450718334049995 -1 0 0
1887 3 71.06789393212 20.515533846226994 0 -1 0 0
1890 1 72.844591280423 21.541310538538006 1.2450718334049995 -1 0 0
1893 3 74.621288628726 20.515533846226994 0 -1 0 0
1896 1 76.39798597702901 21.541310538538006 1.2450718334049995 -1 0 0
1899 3 78.174683325332 20.515533846226994 0 -1 0 0
1902 1 79.951380673635 21.541310538538006 1.2450718334049995 -1 0 0
1905 3 81.728078021938 20.515533846226994 0 -1 0 0
1908 1 83.50477537024099 21.541310538538006 1.2450718334049995 -1 0 0
1911 3 85.281472718544 20.515533846226994 0 -1 0 0
1914 1 87.058170066847 21.541310538538006 1.2450718334049995 -1 0 0
1917 3 88.83486741515 20.515533846226994 0 -1 0 0
1920 1 90.611564763453 21.541310538538006 1.2450718334049995 -1 0 0
1923 3 92.388262111756 20.515533846226994 0 -1 0 0
1926 1 94.16495946005901 21.541310538538006 1.2450718334049995 -1 0 0
1929 3 95.94165680836201 20.515533846226994 0 -1 0 0
1932 1 97.718354156665 21.541310538538006 1.2450718334049995 -1 0 0
1936 3 1.7766973483029957 23.592863923160998 0 0 0 0
1942 3 5.3300920449090015 23.592863923160998 0 0 0 0
1948 3 8.883486741515 23.592863923160998 0 0 0 0
1954 3 12.436881438120999 23.592863923160998 0 0 0 0
1960 3 15.990276134727004 23.592863923160998 0 0 0 0
1966 3 19.543670831332996 23.592863923160998 0 0 0 0
1972 3 23.097065527939 23.592863923160998 0 0 0 0
1978 3 26.650460224544993 23.592863923160998 0 0 0 0
1984 3 30.203854921151 23.592863923160998 0 0 0 0
1990 3 33.757249617757005 23.592863923160998 0 0 0 0
1996 3 37.310644314362996 23.592863923160998 0 0 0 0
2002 3 40.864039010969 23.592863923160998 0 0 0 0
2008 3 44.41743370757499 23.592863923160998 0 0 0 0
2014 3 47.970828404181 23.592863923160998 0 0 0 0
1852 3 51.524223100787005 23.592863923160998 0 -1 0 0
1858 3 55.077617797393 23.592863923160998 0 -1 0 0
1864 3 58.631012493999 23.592863923160998 0 -1 0 0
1870 3 62.184407190605 23.592863923160998 0 -1 0 0
1876 3 65.737801887211 23.592863923160998 0 -1 0 0
1882 3 69.291196583817 23.592863923160998 0 -1 0 0
1888 3 72.844591280423 23.592863923160998 0 -1 0 0
1894 3 76.39798597702901 23.592863923160998 0 -1 0 0
1900 3 79.951380673635 23.592863923160998 0 -1 0 0
1906 3 83.50477537024099 23.592863923160998 0 -1 0 0
1912 3 87.058170066847 23.592863923160998 0 -1 0 0
1918 3 90.611564763453 23.592863923160998 0 -1 0 0
1924 3 94.16495946005901 23.592863923160998 0 -1 0 0
1930 3 97.718354156665 23.592863923160998 0 -1 0 0
2105 1 0 24.618640615471996 1.2450718334049995 0 0 0
2111 1 3.5533946966059986 24.618640615471996 1.2450718334049995 0 0 0
2117 1 7.106789393211997 24.618640615471996 1.2450718334049995 0 0 0
2123 1 10.660184089817996 24.618640615471996 1.2450718334049995 0 0 0
2129 1 14.213578786424002 24.618640615471996 1.2450718334049995 0 0 0
2135 1 17.766973483029993 24.618640615471996 1.2450718334049995 0 0 0
2141 1 21.320368179636 24.618640615471996 1.2450718334049995 0 0 0
2147 1 24.873762876242004 24.618640615471996 1.2450718334049995 0 0 0
2153 1 28.427157572847996 24.618640615471996 1.2450718334049995 0 0 0
2159 1 31.980552269454 24.618640615471996 1.2450718334049995 0 0 0
2165 1 35.53394696605999 24.618640615471996 1.2450718334049995 0 0 0
2171 1 39.087341662666 24.618640615471996 1.2450718334049995 0 0 0
2177 1 42.640736359272005 24.618640615471996 1.2450718334049995 0 0 0
2183 1 46.194131055877996 24.618640615471996 1.2450718334049995 0 0 0
2021 1 49.747525752484 24.618640615471996 1.2450718334049995 -1 0 0
2027 1 53.30092044909 24.618640615471996 1.2450718334049995 -1 0 0
2033 1 56.854315145696 24.618640615471996 1.2450718334049995 -1 0 0
2039 1 60.407709842302 24.618640615471996 1.2450718334049995 -1 0 0
2045 1 63.961104538908 24.618640615471996 1.2450718334049995 -1 0 0
2051 1 67.514499235514 24.618640615471996 1.2450718334049995 -1 0 0
2057 1 71.06789393212 24.618640615471996 1.2450718334049995 -1 0 0
2063 1 74.621288628726 24.618640615471996 1.2450718334049995 -1 0 0
2069 1 78.174683325332 24.618640615471996 1.2450718334049995 -1 0 0
2075 1 81.728078021938 24.618640615471996 1.2450718334049995 -1 0 0
2081 1 85.281472718544 24.618640615471996 1.2450718334049995 -1 0 0
2087 1 88.83486741515 24.618640615471996 1.2450718334049995 -1 0 0
2093 1 92.388262111756 24.618640615471996 1.2450718334049995 -1 0 0
2099 1 95.94165680836201 24.618640615471996 1.2450718334049995 -1 0 0
2103 3 0 26.670194000095 0 0 0 0
2109 3 3.5533946966059986 26.670194000095 0 0 0 0
2115 3 7.106789393211997 26.670194000095 0 0 0 0
2121 3 10.660184089817996 26.670194000095 0 0 0 0
2127 3 14.213578786424002 26.670194000095 0 0 0 0
2133 3 17.766973483029993 26.670194000095 0 0 0 0
2139 3 21.320368179636 26.670194000095 0 0 0 0
2145 3 24.873762876242004 26.670194000095 0 0 0 0
2151 3 28.427157572847996 26.670194000095 0 0 0 0
2157 3 31.980552269454 26.670194000095 0 0 0 0
2163 3 35.53394696605999 26.670194000095 0 0 0 0
2169 3 39.087341662666 26.670194000095 0 0 0 0
2175 3 42.640736359272005 26.670194000095 0 0 0 0
2181 3 46.194131055877996 26.670194000095 0 0 0 0
2019 3 49.747525752484 26.670194000095 0 -1 0 0
2025 3 53.30092044909 26.670194000095 0 -1 0 0
2031 3 56.854315145696 26.670194000095 0 -1 0 0
2037 3 60.407709842302 26.670194000095 0 -1 0 0
2043 3 63.961104538908 26.670194000095 0 -1 0 0
2049 3 67.514499235514 26.670194000095 0 -1 0 0
2055 3 71.06789393212 26.670194000095 0 -1 0 0
2061 3 74.621288628726 26.670194000095 0 -1 0 0
2067 3 78.174683325332 26.670194000095 0 -1 0 0
2073 3 81.728078021938 26.670194000095 0 -1 0 0
2079 3 85.281472718544 26.670194000095 0 -1 0 0
2085 3 88.83486741515 26.670194000095 0 -1 0 0
2091 3 92.388262111756 26.670194000095 0 -1 0 0
2097 3 95.94165680836201 26.670194000095 0 -1 0 0
2106 1 1.7766973483029957 27.695970692406 1.2450718334049995 0 0 0
2112 1 5.3300920449090015 27.695970692406 1.2450718334049995 0 0 0
2118 1 8.883486741515 27.695970692406 1.2450718334049995 0 0 0
2124 1 12.436881438120999 27.695970692406 1.2450718334049995 0 0 0
2130 1 15.990276134727004 27.695970692406 1.2450718334049995 0 0 0
2136 1 19.543670831332996 27.695970692406 1.2450718334049995 0 0 0
2142 1 23.097065527939 27.695970692406 1.2450718334049995 0 0 0