LAMMPS data file via write_data, version 29 Aug 2024, timestep = 1, units = metal

8064 atoms
9 atom types

0 99.495051504968 xlo xhi
0 98.474562461888 ylo yhi
-50 50 zlo zhi

Masses

1 106.42
2 106.42
3 106.42
4 32.06
5 32.06
6 32.06
7 32.06
8 32.06
9 32.06

Atoms # atomic

1433 1 0 0 1.2456258747979367 0 0 0
1439 1 3.5533946966059986 0 1.245625874797937 0 0 0
1431 5 0 2.051553384622648 -0.0057725129118204 0 0 0
1434 1 1.7766973483030015 3.0773300769339973 1.245625874797934 0 0 0
1437 5 3.5533946966059986 2.0515533846226495 -0.005772512911818691 0 0 0
1440 1 5.330092044908995 3.0773300769339973 1.245625874797934 0 0 0
1432 5 1.7766973483029984 5.128883461556649 -0.0057725129118228555 0 0 0
1438 5 5.330092044908999 5.128883461556649 -0.0057725129118228555 0 0 0
1429 4 1.7766973483029986 1.0257766923113576 2.4892043029575306 0 0 0
1435 4 5.330092044908999 1.0257766923113576 2.4892043029575306 0 0 0
1430 4 0 4.1031067692453576 2.4892043029575324 0 0 0
1436 4 3.5533946966059986 4.103106769245357 2.4892043029575306 0 0 0
1445 1 7.1067893932120025 0 1.2456258747979367 0 0 0
1451 1 10.660184089818001 0 1.2456258747979367 0 0 0
1443 5 7.106789393212 2.051553384622648 -0.005772512911820498 0 0 0
1446 1 8.883486741514995 3.0773300769339973 1.245625874797934 0 0 0
1449 5 10.660184089818 2.051553384622648 -0.005772512911820604 0 0 0
1444 5 8.883486741514998 5.128883461556649 -0.0057725129118227515 0 0 0
1441 4 8.883486741514997 1.0257766923113574 2.48920430295753 0 0 0
1442 4 7.106789393212 4.1031067692453576 2.4892043029575324 0 0 0
1448 4 10.660184089818 4.1031067692453576 2.489204302957533 0 0 0
1457 1 14.213578786424002 0 1.245625874797937 0 0 0
1452 1 12.436881438120999 3.0773300769339973 1.245625874797934 0 0 0
1455 5 14.213578786424002 2.0515533846226495 -0.005772512911818697 0 0 0
1458 1 15.990276134726992 3.0773300769339973 1.245625874797934 0 0 0
1450 5 12.436881438120999 5.12888346155665 -0.005772512911821227 0 0 0
1456 5 15.990276134726999 5.128883461556647 -0.0057725129118247455 0 0 0
1447 4 12.436881438120999 1.0257766923113563 2.489204302957529 0 0 0
1453 4 15.990276134726999 1.025776692311359 2.4892043029575324 0 0 0
1454 4 14.213578786424002 4.103106769245357 2.4892043029575306 0 0 0
1463 1 17.766973483030004 0 1.2456258747979367 0 0 0
1469 1 21.320368179636 0 1.245625874797937 0 0 0
1461 5 17.76697348303 2.051553384622647 -0.0057725129118223265 0 0 0
1464 1 19.543670831332996 3.0773300769339973 1.245625874797934 0 0 0
1467 5 21.320368179636 2.0515533846226495 -0.0057725129118189 0 0 0
1470 1 23.097065527939 3.0773300769339973 1.245625874797934 0 0 0
1462 5 19.543670831332996 5.128883461556651 -0.005772512911821131 0 0 0
1468 5 23.097065527939 5.128883461556651 -0.005772512911821131 0 0 0
1459 4 19.543670831332996 1.025776692311356 2.489204302957529 0 0 0
1465 4 23.097065527939 1.025776692311356 2.4892043029575284 0 0 0
1460 4 17.76697348303 4.103106769245359 2.489204302957534 0 0 0
1466 4 21.320368179636 4.103106769245357 2.4892043029575306 0 0 0
1475 1 24.873762876241994 0 1.2456258747979367 0 0 0
1481 1 28.427157572847996 0 1.245625874797937 0 0 0
1473 5 24.873762876241997 2.051553384622647 -0.005772512911822325 0 0 0
1476 1 26.650460224545004 3.0773300769339973 1.245625874797934 0 0 0
1479 5 28.427157572847996 2.0515533846226495 -0.0057725129118186965 0 0 0
1474 5 26.650460224545 5.128883461556647 -0.005772512911824746 0 0 0
1471 4 26.650460224545 1.025776692311359 2.4892043029575324 0 0 0
1472 4 24.873762876241997 4.103106769245359 2.489204302957534 0 0 0
1478 4 28.427157572847996 4.103106769245357 2.4892043029575306 0 0 0
1487 1 31.980552269454 0 1.245625874797937 0 0 0
1482 1 30.203854921151 3.0773300769339973 1.245625874797934 0 0 0
1485 5 31.980552269454 2.0515533846226495 -0.0057725129118186965 0 0 0
1488 1 33.75724961775699 3.0773300769339973 1.245625874797934 0 0 0
1480 5 30.203854921151 5.12888346155665 -0.005772512911821331 0 0 0
1486 5 33.757249617757 5.128883461556647 -0.005772512911824745 0 0 0
1477 4 30.203854921151 1.0257766923113563 2.489204302957529 0 0 0
1483 4 33.757249617757 1.025776692311359 2.4892043029575324 0 0 0
1484 4 31.980552269454 4.103106769245357 2.4892043029575306 0 0 0
1493 1 35.53394696606001 0 1.2456258747979367 0 0 0
1499 1 39.087341662666 0 1.245625874797937 0 0 0
1491 5 35.53394696606 2.051553384622647 -0.0057725129118223265 0 0 0
1494 1 37.310644314362996 3.0773300769339973 1.245625874797934 0 0 0
1497 5 39.087341662666 2.0515533846226495 -0.0057725129118189 0 0 0
1500 1 40.864039010969 3.0773300769339973 1.245625874797934 0 0 0
1492 5 37.310644314362996 5.128883461556651 -0.005772512911821132 0 0 0
1498 5 40.864039010969 5.128883461556651 -0.005772512911821131 0 0 0
1489 4 37.310644314362996 1.025776692311356 2.489204302957529 0 0 0
1495 4 40.864039010969 1.025776692311356 2.4892043029575284 0 0 0
1490 4 35.53394696606 4.103106769245359 2.489204302957534 0 0 0
1496 4 39.087341662666 4.103106769245357 2.489204302957531 0 0 0
1505 1 42.64073635927199 0 1.2456258747979367 0 0 0
1511 1 46.194131055877996 0 1.245625874797937 0 0 0
1503 5 42.640736359272 2.051553384622647 -0.005772512911822325 0 0 0
1506 1 44.41743370757501 3.0773300769339973 1.245625874797934 0 0 0
1509 5 46.194131055877996 2.0515533846226495 -0.005772512911818697 0 0 0
1504 5 44.417433707575 5.128883461556647 -0.0057725129118247455 0 0 0
1501 4 44.417433707575 1.025776692311359 2.4892043029575324 0 0 0
1502 4 42.640736359272 4.103106769245359 2.489204302957534 0 0 0
1508 4 46.194131055877996 4.103106769245357 2.4892043029575306 0 0 0
1349 1 49.747525752484 0 1.245625874797937 -1 0 0
1512 1 47.970828404181 3.0773300769339973 1.245625874797934 0 0 0
1347 5 49.747525752484 2.0515533846226495 -0.0057725129118187946 -1 0 0
1350 1 51.524223100787 3.0773300769339973 1.245625874797934 -1 0 0
1510 5 47.970828404181 5.12888346155665 -0.005772512911821331 0 0 0
1348 5 51.524223100787005 5.128883461556649 -0.005772512911822856 -1 0 0
1507 4 47.970828404181 1.0257766923113563 2.489204302957529 0 0 0
1345 4 51.524223100787005 1.0257766923113576 2.4892043029575306 -1 0 0
1346 4 49.747525752484 4.103106769245357 2.4892043029575306 -1 0 0
1355 1 53.30092044909001 0 1.2456258747979367 -1 0 0
1361 1 56.854315145696006 0 1.2456258747979367 -1 0 0
1353 5 53.30092044909 2.051553384622648 -0.005772512911820498 -1 0 0
1356 1 55.077617797392996 3.0773300769339973 1.245625874797934 -1 0 0
1359 5 56.854315145696 2.051553384622648 -0.005772512911820498 -1 0 0
1354 5 55.077617797393 5.128883461556649 -0.0057725129118227515 -1 0 0
1351 4 55.077617797393 1.0257766923113576 2.4892043029575306 -1 0 0
1352 4 53.30092044909 4.1031067692453576 2.4892043029575324 -1 0 0
1358 4 56.854315145696 4.1031067692453576 2.4892043029575324 -1 0 0
1367 1 60.407709842302005 0 1.2456258747979367 -1 0 0
1373 1 63.961104538908 0 1.245625874797937 -1 0 0
1362 1 58.631012493998995 3.0773300769339973 1.245625874797934 -1 0 0
1365 5 60.407709842302 2.051553384622648 -0.005772512911820604 -1 0 0
1368 1 62.184407190605 3.0773300769339973 1.245625874797934 -1 0 0
1371 5 63.961104538908 2.0515533846226495 -0.0057725129118186965 -1 0 0
1360 5 58.631012493999 5.128883461556649 -0.0057725129118227515 -1 0 0
1366 5 62.184407190605 5.12888346155665 -0.005772512911821226 -1 0 0
1357 4 58.631012493999 1.0257766923113574 2.48920430295753 -1 0 0
1363 4 62.184407190605 1.0257766923113563 2.489204302957529 -1 0 0
1364 4 60.407709842302 4.1031067692453576 2.4892043029575324 -1 0 0
1370 4 63.961104538908 4.103106769245357 2.4892043029575306 -1 0 0
1379 1 67.51449923551401 0 1.2456258747979367 -1 0 0
1374 1 65.73780188721099 3.0773300769339973 1.245625874797934 -1 0 0
1377 5 67.514499235514 2.051553384622647 -0.005772512911822326 -1 0 0
1380 1 69.291196583817 3.0773300769339973 1.245625874797934 -1 0 0
1372 5 65.737801887211 5.128883461556647 -0.005772512911824745 -1 0 0
1378 5 69.291196583817 5.128883461556651 -0.005772512911821131 -1 0 0
1369 4 65.737801887211 1.025776692311359 2.4892043029575324 -1 0 0
1375 4 69.291196583817 1.025776692311356 2.4892043029575284 -1 0 0
1376 4 67.514499235514 4.103106769245359 2.489204302957534 -1 0 0
1385 1 71.06789393212 0 1.245625874797937 -1 0 0
1391 1 74.621288628726 0 1.245625874797937 -1 0 0
1383 5 71.06789393212 2.0515533846226495 -0.0057725129118189 -1 0 0
1386 1 72.844591280423 3.0773300769339973 1.245625874797934 -1 0 0
1389 5 74.621288628726 2.0515533846226495 -0.0057725129118186965 -1 0 0
1384 5 72.844591280423 5.12888346155665 -0.005772512911821331 -1 0 0
1381 4 72.844591280423 1.0257766923113563 2.489204302957529 -1 0 0
1382 4 71.06789393212 4.103106769245357 2.489204302957531 -1 0 0
1388 4 74.621288628726 4.103106769245357 2.4892043029575306 -1 0 0
1397 1 78.17468332533201 0 1.2456258747979367 -1 0 0
1403 1 81.72807802193799 0 1.2456258747979367 -1 0 0
1392 1 76.397985977029 3.0773300769339973 1.245625874797934 -1 0 0
1395 5 78.174683325332 2.051553384622647 -0.005772512911822326 -1 0 0
1398 1 79.951380673635 3.0773300769339973 1.245625874797934 -1 0 0
1401 5 81.728078021938 2.051553384622647 -0.005772512911822325 -1 0 0
1390 5 76.39798597702901 5.128883461556647 -0.005772512911824745 -1 0 0
1396 5 79.951380673635 5.128883461556651 -0.005772512911820932 -1 0 0
1387 4 76.39798597702901 1.025776692311359 2.4892043029575324 -1 0 0
1393 4 79.951380673635 1.0257766923113558 2.4892043029575284 -1 0 0
1394 4 78.174683325332 4.103106769245359 2.489204302957534 -1 0 0
1400 4 81.728078021938 4.103106769245359 2.4892043029575346 -1 0 0
1409 1 85.281472718544 0 1.245625874797937 -1 0 0
1404 1 83.504775370241 3.0773300769339973 1.245625874797934 -1 0 0
1407 5 85.281472718544 2.0515533846226495 -0.0057725129118186965 -1 0 0
1410 1 87.058170066847 3.0773300769339973 1.245625874797934 -1 0 0
1402 5 83.50477537024099 5.128883461556647 -0.0057725129118247455 -1 0 0
1408 5 87.058170066847 5.12888346155665 -0.005772512911821331 -1 0 0
1399 4 83.50477537024099 1.025776692311359 2.4892043029575324 -1 0 0
1405 4 87.058170066847 1.0257766923113563 2.489204302957529 -1 0 0
1406 4 85.281472718544 4.103106769245357 2.4892043029575306 -1 0 0
1415 1 88.83486741515 0 1.245625874797937 -1 0 0
1421 1 92.388262111756 0 1.245625874797937 -1 0 0
1413 5 88.83486741515 2.0515533846226495 -0.0057725129118189 -1 0 0
1416 1 90.611564763453 3.0773300769339973 1.245625874797934 -1 0 0
1419 5 92.388262111756 2.0515533846226495 -0.0057725129118189 -1 0 0
1414 5 90.611564763453 5.12888346155665 -0.005772512911821331 -1 0 0
1411 4 90.611564763453 1.0257766923113563 2.489204302957529 -1 0 0
1412 4 88.83486741515 4.103106769245357 2.489204302957531 -1 0 0
1418 4 92.388262111756 4.103106769245357 2.4892043029575306 -1 0 0
1427 1 95.941656808362 0 1.2456258747979367 -1 0 0
1422 1 94.16495946005901 3.0773300769339973 1.245625874797934 -1 0 0
1425 5 95.94165680836201 2.051553384622647 -0.0057725129118223265 -1 0 0
1428 1 97.71835415666501 3.0773300769339973 1.245625874797934 -1 0 0
1420 5 94.16495946005901 5.128883461556651 -0.005772512911821132 -1 0 0
1426 5 97.718354156665 5.128883461556648 -0.005772512911824641 -1 0 0
1417 4 94.16495946005901 1.025776692311356 2.489204302957529 -1 0 0
1423 4 97.718354156665 1.025776692311359 2.4892043029575324 -1 0 0
1424 4 95.94165680836201 4.103106769245359 2.489204302957534 -1 0 0
1601 1 0 6.154660153868001 1.245625874797934 0 0 0
1607 1 3.5533946966059986 6.154660153868001 1.2456258747979343 0 0 0
1599 5 0 8.206213538490646 -0.0057725129118224965 0 0 0
1605 5 3.5533946966059986 8.206213538490648 -0.0057725129118209656 0 0 0
1602 1 1.776697348303001 9.231990230802005 1.245625874797934 0 0 0
1608 1 5.330092044908996 9.231990230802005 1.245625874797934 0 0 0
1600 5 1.7766973483029984 11.283543615424646 -0.0057725129118205865 0 0 0
1606 5 5.330092044908999 11.283543615424646 -0.0057725129118205865 0 0 0
1597 4 1.7766973483029986 7.180436846179355 2.489204302957533 0 0 0
1603 4 5.330092044908999 7.180436846179355 2.489204302957533 0 0 0
1598 4 0 10.257766923113357 2.4892043029575306 0 0 0
1604 4 3.5533946966059986 10.257766923113355 2.489204302957529 0 0 0
1613 1 7.1067893932120025 6.154660153868001 1.245625874797934 0 0 0
1619 1 10.660184089818001 6.154660153868001 1.245625874797934 0 0 0
1611 5 7.106789393212 8.206213538490646 -0.005772512911822593 0 0 0
1617 5 10.660184089817998 8.206213538490646 -0.005772512911822696 0 0 0
1614 1 8.883486741514995 9.231990230802005 1.245625874797934 0 0 0
1612 5 8.883486741514998 11.283543615424646 -0.005772512911820483 0 0 0
1609 4 8.883486741514997 7.180436846179354 2.4892043029575324 0 0 0
1610 4 7.106789393212 10.257766923113357 2.4892043029575306 0 0 0
1616 4 10.660184089817998 10.257766923113357 2.4892043029575306 0 0 0
1625 1 14.213578786424002 6.154660153868001 1.2456258747979343 0 0 0
1623 5 14.213578786424002 8.206213538490648 -0.005772512911820975 0 0 0
1620 1 12.436881438120999 9.231990230802005 1.245625874797934 0 0 0
1626 1 15.990276134726994 9.231990230802005 1.245625874797934 0 0 0
1618 5 12.436881438120999 11.283543615424648 -0.005772512911818964 0 0 0
1624 5 15.990276134726999 11.283543615424644 -0.00577251291182248 0 0 0
1615 4 12.436881438120999 7.1804368461793535 2.489204302957531 0 0 0
1621 4 15.990276134726999 7.180436846179356 2.4892043029575346 0 0 0
1622 4 14.213578786424002 10.257766923113355 2.489204302957529 0 0 0
1631 1 17.766973483030004 6.154660153868001 1.2456258747979343 0 0 0
1637 1 21.320368179636 6.154660153868001 1.2456258747979343 0 0 0
1629 5 17.76697348303 8.206213538490644 -0.005772512911824588 0 0 0
1635 5 21.320368179636 8.206213538490648 -0.005772512911821174 0 0 0
1632 1 19.543670831332996 9.231990230802005 1.245625874797934 0 0 0
1638 1 23.097065527939 9.231990230802005 1.245625874797934 0 0 0
1630 5 19.543670831332996 11.283543615424648 -0.0057725129118188665 0 0 0
1636 5 23.097065527939 11.283543615424648 -0.0057725129118188665 0 0 0
1627 4 19.543670831332996 7.1804368461793535 2.4892043029575306 0 0 0
1633 4 23.097065527939 7.1804368461793535 2.4892043029575306 0 0 0
1628 4 17.76697348303 10.257766923113357 2.4892043029575324 0 0 0
1634 4 21.320368179636 10.257766923113355 2.489204302957529 0 0 0
1643 1 24.873762876241994 6.154660153868001 1.2456258747979343 0 0 0
1649 1 28.427157572847996 6.154660153868001 1.2456258747979343 0 0 0
1641 5 24.873762876241997 8.206213538490644 -0.005772512911824587 0 0 0
1647 5 28.427157572847996 8.206213538490648 -0.005772512911820974 0 0 0
1644 1 26.650460224545004 9.231990230802005 1.245625874797934 0 0 0
1642 5 26.650460224545 11.283543615424644 -0.005772512911822482 0 0 0
1639 4 26.650460224545 7.180436846179356 2.4892043029575346 0 0 0
1640 4 24.873762876241997 10.257766923113357 2.4892043029575324 0 0 0
1646 4 28.427157572847996 10.257766923113355 2.489204302957529 0 0 0
1655 1 31.980552269454 6.154660153868001 1.2456258747979343 0 0 0
1653 5 31.980552269454 8.206213538490648 -0.005772512911820974 0 0 0
1650 1 30.203854921151 9.231990230802005 1.245625874797934 0 0 0
1656 1 33.75724961775699 9.231990230802005 1.245625874797934 0 0 0
1648 5 30.203854921151 11.283543615424648 -0.005772512911819066 0 0 0
1654 5 33.757249617757 11.283543615424644 -0.005772512911822479 0 0 0
1645 4 30.203854921151 7.1804368461793535 2.489204302957531 0 0 0
1651 4 33.757249617757 7.180436846179356 2.4892043029575346 0 0 0
1652 4 31.980552269454 10.257766923113355 2.489204302957529 0 0 0
1661 1 35.53394696606001 6.154660153868001 1.2456258747979343 0 0 0
1667 1 39.087341662666 6.154660153868001 1.2456258747979343 0 0 0
1659 5 35.53394696606 8.206213538490644 -0.005772512911824588 0 0 0
1665 5 39.087341662666 8.206213538490648 -0.005772512911821174 0 0 0
1662 1 37.310644314362996 9.231990230802005 1.245625874797934 0 0 0
1668 1 40.864039010969 9.231990230802005 1.245625874797934 0 0 0
1660 5 37.310644314362996 11.283543615424648 -0.005772512911818867 0 0 0
1666 5 40.864039010969 11.283543615424648 -0.0057725129118188665 0 0 0
1657 4 37.310644314362996 7.1804368461793535 2.4892043029575306 0 0 0
1663 4 40.864039010969 7.1804368461793535 2.4892043029575306 0 0 0
1658 4 35.53394696606 10.257766923113357 2.4892043029575324 0 0 0
1664 4 39.087341662666 10.257766923113355 2.4892043029575293 0 0 0
1673 1 42.64073635927199 6.154660153868001 1.2456258747979343 0 0 0
1679 1 46.194131055877996 6.154660153868001 1.2456258747979343 0 0 0
1671 5 42.640736359272 8.206213538490644 -0.005772512911824587 0 0 0
1677 5 46.194131055877996 8.206213538490648 -0.005772512911820975 0 0 0
1674 1 44.41743370757501 9.231990230802005 1.245625874797934 0 0 0
1672 5 44.417433707575 11.283543615424644 -0.00577251291182248 0 0 0
1669 4 44.417433707575 7.180436846179356 2.4892043029575346 0 0 0
1670 4 42.640736359272 10.257766923113357 2.4892043029575324 0 0 0
1676 4 46.194131055877996 10.257766923113355 2.489204302957529 0 0 0
1517 1 49.747525752484 6.154660153868001 1.2456258747979343 -1 0 0
1515 5 49.747525752484 8.206213538490648 -0.00577251291182107 -1 0 0
1680 1 47.970828404181 9.231990230802005 1.245625874797934 0 0 0
1518 1 51.524223100787 9.231990230802005 1.245625874797934 -1 0 0
1678 5 47.970828404181 11.283543615424648 -0.005772512911819066 0 0 0
1516 5 51.524223100787005 11.283543615424646 -0.005772512911820587 -1 0 0
1675 4 47.970828404181 7.1804368461793535 2.489204302957531 0 0 0
1513 4 51.524223100787005 7.180436846179355 2.489204302957533 -1 0 0
1514 4 49.747525752484 10.257766923113355 2.489204302957529 -1 0 0
1523 1 53.30092044909001 6.154660153868001 1.245625874797934 -1 0 0
1529 1 56.854315145696006 6.154660153868001 1.245625874797934 -1 0 0
1521 5 53.30092044909 8.206213538490646 -0.005772512911822593 -1 0 0
1527 5 56.854315145696 8.206213538490646 -0.005772512911822593 -1 0 0
1524 1 55.077617797392996 9.231990230802005 1.245625874797934 -1 0 0
1522 5 55.077617797393 11.283543615424646 -0.005772512911820483 -1 0 0
1519 4 55.077617797393 7.180436846179354 2.489204302957533 -1 0 0
1520 4 53.30092044909 10.257766923113357 2.4892043029575306 -1 0 0
1526 4 56.854315145696 10.257766923113357 2.4892043029575306 -1 0 0
1535 1 60.407709842302005 6.154660153868001 1.245625874797934 -1 0 0
1541 1 63.961104538908 6.154660153868001 1.2456258747979343 -1 0 0
1533 5 60.407709842302 8.206213538490646 -0.005772512911822696 -1 0 0
1539 5 63.961104538908 8.206213538490648 -0.005772512911820974 -1 0 0
1530 1 58.631012493998995 9.231990230802005 1.245625874797934 -1 0 0
1536 1 62.184407190605 9.231990230802005 1.245625874797934 -1 0 0
1528 5 58.631012493999 11.283543615424646 -0.005772512911820483 -1 0 0
1534 5 62.184407190605 11.283543615424648 -0.005772512911818963 -1 0 0
1525 4 58.631012493999 7.180436846179354 2.4892043029575324 -1 0 0
1531 4 62.184407190605 7.1804368461793535 2.489204302957531 -1 0 0
1532 4 60.407709842302 10.257766923113357 2.4892043029575306 -1 0 0
1538 4 63.961104538908 10.257766923113355 2.489204302957529 -1 0 0
1547 1 67.51449923551401 6.154660153868001 1.2456258747979343 -1 0 0
1545 5 67.514499235514 8.206213538490644 -0.005772512911824587 -1 0 0
1542 1 65.73780188721099 9.231990230802005 1.245625874797934 -1 0 0
1548 1 69.291196583817 9.231990230802005 1.245625874797934 -1 0 0
1540 5 65.737801887211 11.283543615424644 -0.005772512911822479 -1 0 0
1546 5 69.291196583817 11.283543615424648 -0.0057725129118188665 -1 0 0
1537 4 65.737801887211 7.180436846179356 2.4892043029575346 -1 0 0
1543 4 69.291196583817 7.1804368461793535 2.4892043029575306 -1 0 0
1544 4 67.514499235514 10.257766923113357 2.4892043029575324 -1 0 0
1553 1 71.06789393212 6.154660153868001 1.2456258747979343 -1 0 0
1559 1 74.621288628726 6.154660153868001 1.2456258747979343 -1 0 0
1551 5 71.06789393212 8.206213538490648 -0.005772512911821173 -1 0 0
1557 5 74.621288628726 8.206213538490648 -0.005772512911820974 -1 0 0
1554 1 72.844591280423 9.231990230802005 1.245625874797934 -1 0 0
1552 5 72.844591280423 11.283543615424648 -0.005772512911819066 -1 0 0
1549 4 72.844591280423 7.1804368461793535 2.489204302957531 -1 0 0
1550 4 71.06789393212 10.257766923113355 2.4892043029575293 -1 0 0
1556 4 74.621288628726 10.257766923113355 2.489204302957529 -1 0 0
1565 1 78.17468332533201 6.154660153868001 1.2456258747979343 -1 0 0
1571 1 81.72807802193799 6.154660153868001 1.2456258747979343 -1 0 0
1563 5 78.174683325332 8.206213538490644 -0.005772512911824587 -1 0 0
1569 5 81.728078021938 8.206213538490644 -0.005772512911824587 -1 0 0
1560 1 76.397985977029 9.231990230802005 1.245625874797934 -1 0 0
1566 1 79.951380673635 9.231990230802005 1.245625874797934 -1 0 0
1558 5 76.39798597702901 11.283543615424644 -0.005772512911822479 -1 0 0
1564 5 79.951380673635 11.283543615424648 -0.005772512911818667 -1 0 0
1555 4 76.39798597702901 7.180436846179356 2.489204302957534 -1 0 0
1561 4 79.951380673635 7.1804368461793535 2.4892043029575306 -1 0 0
1562 4 78.174683325332 10.257766923113357 2.4892043029575324 -1 0 0
1568 4 81.728078021938 10.257766923113357 2.4892043029575324 -1 0 0
1577 1 85.281472718544 6.154660153868001 1.2456258747979343 -1 0 0
1575 5 85.281472718544 8.206213538490648 -0.005772512911820974 -1 0 0
1572 1 83.504775370241 9.231990230802005 1.245625874797934 -1 0 0
1578 1 87.058170066847 9.231990230802005 1.245625874797934 -1 0 0
1570 5 83.50477537024099 11.283543615424644 -0.00577251291182248 -1 0 0
1576 5 87.058170066847 11.283543615424648 -0.005772512911819066 -1 0 0
1567 4 83.50477537024099 7.180436846179356 2.489204302957534 -1 0 0
1573 4 87.058170066847 7.1804368461793535 2.489204302957531 -1 0 0
1574 4 85.281472718544 10.257766923113355 2.489204302957529 -1 0 0
1583 1 88.83486741515 6.154660153868001 1.2456258747979343 -1 0 0
1589 1 92.388262111756 6.154660153868001 1.2456258747979343 -1 0 0
1581 5 88.83486741515 8.206213538490648 -0.005772512911821173 -1 0 0
1587 5 92.388262111756 8.206213538490648 -0.005772512911821174 -1 0 0
1584 1 90.611564763453 9.231990230802005 1.245625874797934 -1 0 0
1582 5 90.611564763453 11.283543615424648 -0.005772512911819066 -1 0 0
1579 4 90.611564763453 7.1804368461793535 2.489204302957531 -1 0 0
1580 4 88.83486741515 10.257766923113355 2.4892043029575293 -1 0 0
1586 4 92.388262111756 10.257766923113355 2.489204302957529 -1 0 0
1595 1 95.941656808362 6.154660153868001 1.2456258747979343 -1 0 0
1593 5 95.94165680836201 8.206213538490644 -0.0057725129118245885 -1 0 0
1590 1 94.16495946005901 9.231990230802005 1.245625874797934 -1 0 0
1596 1 97.71835415666501 9.231990230802005 1.2456258747979343 -1 0 0
1588 5 94.16495946005901 11.283543615424648 -0.005772512911818867 -1 0 0
1594 5 97.718354156665 11.283543615424644 -0.005772512911822376 -1 0 0
1585 4 94.16495946005901 7.1804368461793535 2.4892043029575306 -1 0 0
1591 4 97.718354156665 7.180436846179356 2.489204302957534 -1 0 0
1592 4 95.94165680836201 10.257766923113357 2.4892043029575324 -1 0 0
1769 1 0 12.309320307736002 1.2456258747979339 0 0 0
1775 1 3.5533946966059986 12.309320307736002 1.245625874797934 0 0 0
1767 5 0 14.360873692358647 -0.0057725129118224965 0 0 0
1773 5 3.5533946966059986 14.360873692358648 -0.0057725129118209656 0 0 0
1770 1 1.7766973483030013 15.386650384670002 1.245625874797932 0 0 0
1776 1 5.330092044908996 15.386650384670002 1.245625874797932 0 0 0
1765 4 1.7766973483029986 13.335097000047355 2.4892043029575324 0 0 0
1771 4 5.330092044908999 13.335097000047355 2.4892043029575324 0 0 0
1766 4 0 16.412427076981356 2.48920430295753 0 0 0
1772 4 3.5533946966059986 16.412427076981356 2.4892043029575284 0 0 0
1781 1 7.1067893932120025 12.309320307736002 1.2456258747979339 0 0 0
1787 1 10.660184089818001 12.309320307736002 1.2456258747979339 0 0 0
1779 5 7.106789393212 14.360873692358647 -0.005772512911822593 0 0 0
1785 5 10.660184089817998 14.360873692358647 -0.005772512911822696 0 0 0
1782 1 8.883486741514995 15.386650384670002 1.245625874797932 0 0 0
1777 4 8.883486741514997 13.335097000047355 2.4892043029575324 0 0 0
1778 4 7.106789393212 16.412427076981356 2.48920430295753 0 0 0
1784 4 10.660184089818 16.412427076981356 2.4892043029575306 0 0 0
1793 1 14.213578786424002 12.309320307736002 1.245625874797934 0 0 0
1791 5 14.213578786424002 14.360873692358648 -0.005772512911820975 0 0 0
1788 1 12.436881438120999 15.386650384670002 1.2456258747979323 0 0 0
1794 1 15.990276134726992 15.386650384670002 1.245625874797932 0 0 0
1783 4 12.436881438120999 13.335097000047353 2.4892043029575306 0 0 0
1789 4 15.990276134726999 13.335097000047357 2.489204302957534 0 0 0
1790 4 14.213578786424002 16.412427076981356 2.4892043029575284 0 0 0
1799 1 17.766973483030004 12.309320307736002 1.245625874797934 0 0 0
1805 1 21.320368179636 12.309320307736002 1.245625874797934 0 0 0
1797 5 17.76697348303 14.360873692358645 -0.005772512911824588 0 0 0
1803 5 21.320368179636 14.360873692358648 -0.005772512911821174 0 0 0
1800 1 19.543670831332996 15.386650384670002 1.2456258747979323 0 0 0
1806 1 23.097065527939 15.386650384670002 1.2456258747979323 0 0 0
1795 4 19.543670831332996 13.335097000047353 2.4892043029575306 0 0 0
1801 4 23.097065527939 13.335097000047353 2.4892043029575306 0 0 0
1796 4 17.76697348303 16.41242707698136 2.4892043029575324 0 0 0
1802 4 21.320368179636 16.412427076981356 2.489204302957529 0 0 0
1811 1 24.873762876241994 12.309320307736002 1.245625874797934 0 0 0
1817 1 28.427157572847996 12.309320307736002 1.245625874797934 0 0 0
1809 5 24.873762876241997 14.360873692358645 -0.005772512911824587 0 0 0
1815 5 28.427157572847996 14.360873692358648 -0.005772512911820974 0 0 0
1812 1 26.650460224545004 15.386650384670002 1.245625874797932 0 0 0
1807 4 26.650460224545 13.335097000047357 2.489204302957534 0 0 0
1808 4 24.873762876241997 16.41242707698136 2.4892043029575324 0 0 0
1814 4 28.427157572847996 16.412427076981356 2.4892043029575284 0 0 0
1823 1 31.980552269454 12.309320307736002 1.245625874797934 0 0 0
1821 5 31.980552269454 14.360873692358648 -0.005772512911820974 0 0 0
1818 1 30.203854921151 15.386650384670002 1.2456258747979323 0 0 0
1824 1 33.75724961775699 15.386650384670002 1.245625874797932 0 0 0
1813 4 30.203854921151 13.335097000047353 2.4892043029575306 0 0 0
1819 4 33.757249617757 13.335097000047357 2.489204302957534 0 0 0
1820 4 31.980552269454 16.412427076981356 2.4892043029575284 0 0 0
1829 1 35.53394696606001 12.309320307736002 1.245625874797934 0 0 0
1835 1 39.087341662666 12.309320307736002 1.245625874797934 0 0 0
1827 5 35.53394696606 14.360873692358645 -0.005772512911824588 0 0 0
1833 5 39.087341662666 14.360873692358648 -0.005772512911821174 0 0 0
1830 1 37.310644314362996 15.386650384670002 1.2456258747979323 0 0 0
1836 1 40.864039010969 15.386650384670002 1.2456258747979323 0 0 0
1825 4 37.310644314362996 13.335097000047353 2.4892043029575306 0 0 0
1831 4 40.864039010969 13.335097000047353 2.4892043029575306 0 0 0
1826 4 35.53394696606 16.41242707698136 2.4892043029575324 0 0 0
1832 4 39.087341662666 16.412427076981356 2.489204302957529 0 0 0
1841 1 42.64073635927199 12.309320307736002 1.245625874797934 0 0 0
1847 1 46.194131055877996 12.309320307736002 1.245625874797934 0 0 0
1839 5 42.640736359272 14.360873692358645 -0.005772512911824587 0 0 0
1845 5 46.194131055877996 14.360873692358648 -0.005772512911820975 0 0 0
1842 1 44.41743370757501 15.386650384670002 1.245625874797932 0 0 0
1837 4 44.417433707575 13.335097000047357 2.489204302957534 0 0 0
1838 4 42.640736359272 16.41242707698136 2.4892043029575324 0 0 0
1844 4 46.194131055877996 16.412427076981356 2.4892043029575284 0 0 0
1685 1 49.747525752484 12.309320307736002 1.245625874797934 -1 0 0
1683 5 49.747525752484 14.360873692358648 -0.00577251291182107 -1 0 0
1848 1 47.970828404181 15.386650384670002 1.2456258747979323 0 0 0
1686 1 51.524223100787 15.386650384670002 1.245625874797932 -1 0 0
1843 4 47.970828404181 13.335097000047353 2.4892043029575306 0 0 0
1681 4 51.524223100787005 13.335097000047355 2.4892043029575324 -1 0 0
1682 4 49.747525752484 16.412427076981356 2.4892043029575284 -1 0 0
1691 1 53.30092044909001 12.309320307736002 1.2456258747979339 -1 0 0
1697 1 56.854315145696006 12.309320307736002 1.2456258747979339 -1 0 0
1689 5 53.30092044909 14.360873692358647 -0.005772512911822593 -1 0 0
1695 5 56.854315145696 14.360873692358647 -0.005772512911822593 -1 0 0
1692 1 55.077617797392996 15.386650384670002 1.245625874797932 -1 0 0
1687 4 55.077617797393 13.335097000047355 2.4892043029575324 -1 0 0
1688 4 53.30092044909 16.412427076981356 2.4892043029575306 -1 0 0
1694 4 56.854315145696 16.412427076981356 2.4892043029575306 -1 0 0
1703 1 60.407709842302005 12.309320307736002 1.2456258747979339 -1 0 0
1709 1 63.961104538908 12.309320307736002 1.245625874797934 -1 0 0
1701 5 60.407709842302 14.360873692358647 -0.005772512911822696 -1 0 0
1707 5 63.961104538908 14.360873692358648 -0.005772512911820974 -1 0 0
1698 1 58.631012493998995 15.386650384670002 1.245625874797932 -1 0 0
1704 1 62.184407190605 15.386650384670002 1.2456258747979323 -1 0 0
1693 4 58.631012493999 13.335097000047355 2.4892043029575324 -1 0 0
1699 4 62.184407190605 13.335097000047353 2.4892043029575306 -1 0 0
1700 4 60.407709842302 16.412427076981356 2.4892043029575306 -1 0 0
1706 4 63.961104538908 16.412427076981356 2.4892043029575284 -1 0 0
1715 1 67.51449923551401 12.309320307736002 1.245625874797934 -1 0 0
1713 5 67.514499235514 14.360873692358645 -0.005772512911824587 -1 0 0
1710 1 65.73780188721099 15.386650384670002 1.245625874797932 -1 0 0
1716 1 69.291196583817 15.386650384670002 1.2456258747979323 -1 0 0
1705 4 65.737801887211 13.335097000047357 2.489204302957534 -1 0 0
1711 4 69.291196583817 13.335097000047353 2.4892043029575306 -1 0 0
1712 4 67.514499235514 16.41242707698136 2.4892043029575324 -1 0 0
1721 1 71.06789393212 12.309320307736002 1.245625874797934 -1 0 0
1727 1 74.621288628726 12.309320307736002 1.245625874797934 -1 0 0
1719 5 71.06789393212 14.360873692358648 -0.005772512911821173 -1 0 0
1725 5 74.621288628726 14.360873692358648 -0.005772512911820974 -1 0 0
1722 1 72.844591280423 15.386650384670002 1.2456258747979323 -1 0 0
1717 4 72.844591280423 13.335097000047353 2.4892043029575306 -1 0 0