LAMMPS data file via write_data, version 29 Aug 2024, timestep = 9, units = metal

5016 atoms
4 atom types

0 101.079 xlo xhi
0 100.800160848096 ylo yhi
-50 111.78334620315381 zlo zhi

Masses

1 12.011
2 12.011
3 78.971
4 78.971

Atoms # atomic

1256 1 0.002268209152590818 0.8821545669851193 0.35750780914090036 0 0 0
1260 1 3.0652682091543606 0.8821545669858557 0.35750780913989777 0 0 0
1385 3 0.0010815365184129178 2.6518534205613835 1.4003739546232474 0 0 0
1389 3 3.064081536520382 2.651853420560588 1.400373954624323 0 0 0
1391 1 1.5337682091545206 3.5347903787757486 0.35750780913778724 0 0 0
1395 1 4.596768209154301 3.5347903787759725 0.35750780913786034 0 0 0
1390 3 1.532581536520379 5.304489232354054 1.4003739546252514 0 0 0
1394 3 4.595581536520237 5.3044892323538395 1.400373954625211 0 0 0
1264 1 6.128268209154193 0.8821545669859107 0.3575078091394337 0 0 0
1268 1 9.191268209152827 0.8821545669853368 0.3575078091402437 0 0 0
1393 3 6.127081536520052 2.6518534205605984 1.4003739546247262 0 0 0
1397 3 9.190081536518626 2.6518534205611903 1.4003739546239018 0 0 0
1399 1 7.659768209155864 3.5347903787752126 0.3575078091386252 0 0 0
1403 1 10.722768209154472 3.534790378776174 0.3575078091370888 0 0 0
1398 3 7.65858153652177 5.304489232354531 1.4003739546244633 0 0 0
1402 3 10.721581536520418 5.304489232353612 1.4003739546259757 0 0 0
1272 1 12.254268209156178 0.8821545669852728 0.3575078091406889 0 0 0
1276 1 15.31726820915757 0.882154566985751 0.35750780913988334 0 0 0
1401 3 12.253081536522066 2.6518534205611726 1.400373954623495 0 0 0
1405 3 15.31608153652348 2.6518534205606104 1.4003739546243483 0 0 0
1407 1 13.785768209151206 3.534790378775883 0.35750780913774577 0 0 0
1411 1 16.848768209151384 3.5347903787757398 0.3575078091381209 0 0 0
1406 3 13.784581536517178 5.30448923235388 1.4003739546253826 0 0 0
1410 3 16.847581536517247 5.304489232354154 1.400373954624852 0 0 0
1280 1 18.380268209157556 0.882154566985719 0.3575078091400158 0 0 0
1284 1 21.44326820915715 0.8821545669858895 0.35750780913908503 0 0 0
1409 3 18.379081536523337 2.651853420560677 1.4003739546242597 0 0 0
1413 3 21.442081536523006 2.6518534205606326 1.4003739546251681 0 0 0
1415 1 19.911768209151006 3.534790378776068 0.35750780913783314 0 0 0
1419 1 22.97476820915442 3.5347903787745243 0.3575078091397866 0 0 0
1414 3 19.910581536516943 5.304489232353684 1.4003739546253209 0 0 0
1418 3 22.97358153652044 5.304489232355313 1.400373954623117 0 0 0
1288 1 24.506268209151507 0.8821545669857789 0.3575078091392998 0 0 0
1292 1 27.569268209150955 0.8821545669861163 0.3575078091396493 0 0 0
1417 3 24.505081536517633 2.6518534205607693 1.400373954624974 0 0 0
1421 3 27.56808153651682 2.651853420560407 1.4003739546245 0 0 0
1423 1 26.037768209157733 3.5347903787760546 0.35750780913790464 0 0 0
1427 1 29.100768209157064 3.534790378775977 0.3575078091373095 0 0 0
1422 3 26.036581536523617 5.30448923235354 1.4003739546254048 0 0 0
1426 3 29.099581536522898 5.304489232353866 1.4003739546256204 0 0 0
1296 1 30.632268209154283 0.8821545669844422 0.3575078091417574 0 0 0
1300 1 33.695268209158 0.8821545669859732 0.35750780913962416 0 0 0
1425 3 30.631081536520337 2.651853420562023 1.4003739546225524 0 0 0
1429 3 33.69408153652351 2.6518534205606166 1.4003739546244054 0 0 0
1431 1 32.16376820915171 3.534790378775907 0.3575078091373458 0 0 0
1435 1 35.22676820915129 3.5347903787758215 0.3575078091380683 0 0 0
1430 3 32.16258153651702 5.304489232353768 1.4003739546259186 0 0 0
1434 3 35.225581536517 5.304489232353993 1.400373954624938 0 0 0
1304 1 36.75826820915751 0.8821545669856049 0.3575078091401024 0 0 0
1308 1 39.821268209157466 0.8821545669858946 0.35750780913912394 0 0 0
1433 3 36.75708153652344 2.6518534205607494 1.4003739546242695 0 0 0
1437 3 39.82008153652329 2.651853420560548 1.4003739546253007 0 0 0
1439 1 38.28976820915065 3.534790378776097 0.3575078091376777 0 0 0
1443 1 41.352768209154576 3.534790378774473 0.3575078091400367 0 0 0
1438 3 38.288581536516915 5.304489232353904 1.4003739546250737 0 0 0
1442 3 41.35158153652043 5.30448923235506 1.4003739546233178 0 0 0
1312 1 42.884268209151124 0.8821545669859163 0.3575078091391753 0 0 0
1316 1 45.947268209150806 0.8821545669858751 0.35750780913990493 0 0 0
1441 3 42.88308153651722 2.6518534205607813 1.4003739546249447 0 0 0
1445 3 45.946081536517 2.651853420560418 1.4003739546244487 0 0 0
1447 1 44.41576820915797 3.5347903787760946 0.35750780913773794 0 0 0
1451 1 47.47876820915674 3.534790378776079 0.3575078091372179 0 0 0
1446 3 44.414581536523265 5.304489232353805 1.4003739546251412 0 0 0
1450 3 47.47758153652306 5.304489232353631 1.400373954626 0 0 0
1320 1 49.01026820915443 0.8821545669847238 0.3575078091411901 0 0 0
1192 1 52.07326820915446 0.8821545669862847 0.3575078091392298 -1 0 0
1449 3 49.009081536520426 2.651853420561965 1.4003739546227767 0 0 0
1321 3 52.07208153652047 2.6518534205601654 1.4003739546251057 -1 0 0
1323 1 50.54176820915298 3.5347903787752513 0.3575078091383269 -1 0 0
1322 3 50.54058153651921 5.304489232354517 1.400373954624757 -1 0 0
1196 1 55.13626820915542 0.8821545669851985 0.3575078091404035 -1 0 0
1200 1 58.19926820915434 0.8821545669860112 0.35750780913941665 -1 0 0
1325 3 55.13508153652171 2.651853420561361 1.400373954623713 -1 0 0
1329 3 58.19808153652044 2.6518534205604833 1.4003739546247438 -1 0 0
1327 1 53.60476820915426 3.5347903787762647 0.357507809137303 -1 0 0
1331 1 56.66776820915292 3.5347903787750847 0.3575078091387511 -1 0 0
1326 3 53.603581536520316 5.304489232353566 1.400373954625663 -1 0 0
1330 3 56.666581536519196 5.30448923235461 1.400373954624394 -1 0 0
1204 1 61.262268209154456 0.8821545669857409 0.35750780913969576 -1 0 0
1208 1 64.32526820915137 0.8821545669860333 0.3575078091394027 -1 0 0
1333 3 61.26108153652067 2.651853420560773 1.4003739546244194 -1 0 0
1337 3 64.32408153651751 2.6518534205603155 1.4003739546251095 -1 0 0
1335 1 59.73076820915428 3.5347903787761275 0.35750780913764696 -1 0 0
1339 1 62.79376820915512 3.5347903787751607 0.3575078091389652 -1 0 0
1334 3 59.72958153652044 5.3044892323536965 1.4003739546254328 -1 0 0
1338 3 62.79258153652174 5.304489232354738 1.4003739546238845 -1 0 0
1212 1 67.38826820915475 0.8821545669847674 0.3575078091413524 -1 0 0
1216 1 70.45126820915773 0.8821545669857916 0.35750780914005803 -1 0 0
1341 3 67.38708153652053 2.651853420562097 1.4003739546222485 -1 0 0
1345 3 70.45008153652357 2.651853420560383 1.4003739546246996 -1 0 0
1343 1 65.85676820915728 3.5347903787760973 0.3575078091372371 -1 0 0
1347 1 68.91976820915123 3.534790378775707 0.3575078091375912 -1 0 0
1342 3 65.85558153652285 5.3044892323534665 1.400373954626184 -1 0 0
1346 3 68.91858153651762 5.304489232354023 1.4003739546255483 -1 0 0
1220 1 73.5142682091578 0.8821545669859465 0.35750780913905716 -1 0 0
1224 1 76.57726820915082 0.8821545669856445 0.35750780914007557 -1 0 0
1349 3 73.51308153652279 2.6518534205605584 1.4003739546250988 -1 0 0
1353 3 76.57608153651721 2.6518534205607804 1.4003739546242806 -1 0 0
1351 1 71.98276820915098 3.53479037877636 0.35750780913753666 -1 0 0
1355 1 75.04576820915518 3.534790378774024 0.35750780914041386 -1 0 0
1350 3 71.98158153651688 5.304489232353521 1.4003739546255383 -1 0 0
1354 3 75.04458153652087 5.304489232355896 1.4003739546223075 -1 0 0
1228 1 79.64026820915694 0.8821545669861616 0.35750780913937735 -1 0 0
1232 1 82.7032682091555 0.8821545669841103 0.3575078091414203 -1 0 0
1357 3 79.6390815365223 2.6518534205606836 1.400373954624434 -1 0 0
1361 3 82.70208153652132 2.6518534205624307 1.4003739546227447 -1 0 0
1359 1 78.10876820915502 3.5347903787777653 0.3575078091355535 -1 0 0
1363 1 81.17176820915346 3.5347903787742125 0.35750780913949376 -1 0 0
1358 3 78.10758153652026 5.3044892323518225 1.4003739546278924 -1 0 0
1362 3 81.17058153651952 5.304489232355539 1.400373954623485 -1 0 0
1236 1 85.76626820915476 0.8821545669876472 0.35750780913767133 -1 0 0
1240 1 88.82926820915326 0.8821545669842569 0.3575078091411878 -1 0 0
1365 3 85.76508153652065 2.6518534205583806 1.400373954627192 -1 0 0
1369 3 88.82808153651943 2.6518534205624222 1.4003739546227574 -1 0 0
1367 1 84.23476820915144 3.534790378776305 0.35750780913756625 -1 0 0
1371 1 87.29776820915677 3.5347903787761066 0.35750780913784586 -1 0 0
1366 3 84.23358153651783 5.3044892323536095 1.4003739546253768 -1 0 0
1370 3 87.29658153652234 5.304489232353796 1.4003739546250278 -1 0 0
1244 1 91.89226820915157 0.8821545669862878 0.3575078091393921 -1 0 0
1248 1 94.95526820915696 0.8821545669855896 0.35750780914016966 -1 0 0
1373 3 91.8910815365176 2.65185342056038 1.4003739546248017 -1 0 0
1377 3 94.95408153652212 2.651853420560918 1.4003739546242235 -1 0 0
1375 1 90.36076820915515 3.5347903787741424 0.35750780913960756 -1 0 0
1379 1 93.42376820915501 3.53479037877769 0.35750780913562336 -1 0 0
1374 3 90.35958153652135 5.3044892323555715 1.400373954623456 -1 0 0
1378 3 93.42258153652077 5.30448923235174 1.400373954627943 -1 0 0
1252 1 98.01826820915083 0.8821545669858424 0.35750780913896807 -1 0 0
1381 3 98.01708153651735 2.651853420560609 1.400373954625231 -1 0 0
1383 1 96.48676820915438 3.534790378774251 0.35750780914004315 -1 0 0
1387 1 99.54976820915792 3.5347903787761465 0.35750780913742636 -1 0 0
1382 3 96.48558153651969 5.3044892323559 1.400373954622313 -1 0 0
1386 3 99.54858153652428 5.3044892323534585 1.4003739546260083 -1 0 0
1388 1 0.0022682091527159052 6.187426190569137 0.3575078091405995 0 0 0
1392 1 3.0652682091543753 6.187426190569811 0.357507809139614 0 0 0
1517 3 0.0010815365183276526 7.9571250441446395 1.4003739546223926 0 0 0
1521 3 3.064081536520411 7.957125044143928 1.400373954623455 0 0 0
1523 1 1.5337682091545457 8.840062002360337 0.35750780913873387 0 0 0
1527 1 4.596768209154312 8.840062002360405 0.35750780913892194 0 0 0
1522 3 1.5325815365203443 10.609760855937898 1.400373954625073 0 0 0
1526 3 4.59558153652025 10.609760855937727 1.4003739546250547 0 0 0
1520 1 0.002268209152700984 11.49269781415179 0.35750780913955177 0 0 0
1524 1 3.065268209154378 11.492697814152558 0.35750780913855523 0 0 0
1396 1 6.128268209154115 6.187426190569847 0.35750780913920976 0 0 0
1400 1 9.191268209152764 6.187426190569319 0.35750780914005625 0 0 0
1525 3 6.127081536519984 7.957125044143919 1.4003739546238043 0 0 0
1529 3 9.190081536518685 7.957125044144411 1.4003739546229774 0 0 0
1531 1 7.659768209155891 8.84006200235982 0.35750780913962177 0 0 0
1535 1 10.722768209154433 8.840062002360686 0.3575078091380736 0 0 0
1530 3 7.658581536521717 10.609760855938351 1.4003739546242822 0 0 0
1534 3 10.721581536520484 10.60976085593755 1.4003739546257865 0 0 0
1528 1 6.128268209154129 11.492697814152562 0.35750780913816954 0 0 0
1532 1 9.191268209152781 11.492697814152082 0.35750780913900004 0 0 0
1404 1 12.254268209156011 6.187426190569324 0.35750780914041497 0 0 0
1408 1 15.317268209157659 6.187426190569696 0.3575078091396236 0 0 0
1533 3 12.253081536522087 7.957125044144428 1.4003739546226157 0 0 0
1537 3 15.316081536523528 7.957125044143982 1.4003739546234881 0 0 0
1539 1 13.785768209151168 8.840062002360401 0.35750780913867564 0 0 0
1543 1 16.84876820915139 8.840062002360206 0.3575078091392041 0 0 0
1538 3 13.784581536517022 10.609760855937816 1.400373954625222 0 0 0
1542 3 16.84758153651721 10.609760855937953 1.4003739546246676 0 0 0
1536 1 12.254268209156054 11.492697814151898 0.3575078091394373 0 0 0
1540 1 15.317268209157767 11.492697814152518 0.35750780913857694 0 0 0
1412 1 18.38026820915733 6.1874261905696954 0.3575078091396566 0 0 0
1416 1 21.443268209157264 6.187426190569848 0.3575078091387756 0 0 0
1541 3 18.379081536523373 7.957125044144074 1.4003739546233465 0 0 0
1545 3 21.44208153652292 7.957125044143856 1.4003739546242464 0 0 0
1547 1 19.911768209151067 8.840062002360604 0.3575078091389228 0 0 0
1551 1 22.974768209154522 8.840062002359067 0.3575078091408392 0 0 0
1546 3 19.91058153651679 10.609760855937461 1.4003739546251828 0 0 0
1550 3 22.973581536520378 10.609760855939163 1.4003739546228948 0 0 0
1544 1 18.380268209157386 11.492697814152528 0.35750780913863156 0 0 0
1548 1 21.4432682091574 11.492697814152665 0.3575078091376966 0 0 0
1420 1 24.506268209151337 6.187426190569761 0.3575078091389826 0 0 0
1424 1 27.56926820915127 6.187426190570038 0.35750780913939323 0 0 0
1549 3 24.505081536517658 7.957125044144054 1.400373954623981 0 0 0
1553 3 27.56808153651682 7.957125044143701 1.4003739546237022 0 0 0
1555 1 26.037768209157576 8.840062002360611 0.35750780913892516 0 0 0
1559 1 29.100768209157145 8.84006200236044 0.35750780913828706 0 0 0
1554 3 26.03658153652361 10.609760855937347 1.4003739546252798 0 0 0
1558 3 29.099581536522923 10.609760855937786 1.4003739546254594 0 0 0
1552 1 24.506268209151322 11.492697814152537 0.3575078091379224 0 0 0
1556 1 27.569268209151303 11.492697814152908 0.3575078091383495 0 0 0
1428 1 30.632268209154454 6.187426190568375 0.3575078091415243 0 0 0
1432 1 33.69526820915815 6.187426190569939 0.3575078091393205 0 0 0
1557 3 30.6310815365203 7.957125044145329 1.4003739546215952 0 0 0
1561 3 33.69408153652355 7.957125044143934 1.4003739546234641 0 0 0
1563 1 32.1637682091517 8.84006200236042 0.3575078091384024 0 0 0
1567 1 35.22676820915124 8.840062002360296 0.3575078091391358 0 0 0
1562 3 32.16258153651702 10.60976085593763 1.4003739546257254 0 0 0
1566 3 35.22558153651699 10.609760855937857 1.4003739546247642 0 0 0
1560 1 30.63226820915441 11.492697814151132 0.35750780914053654 0 0 0
1564 1 33.69526820915818 11.492697814152724 0.35750780913831504 0 0 0
1436 1 36.75826820915765 6.187426190569628 0.357507809139718 0 0 0
1440 1 39.8212682091568 6.187426190569924 0.35750780913876273 0 0 0
1565 3 36.75708153652332 7.957125044144003 1.400373954623417 0 0 0
1569 3 39.82008153652329 7.957125044143821 1.4003739546242877 0 0 0
1571 1 38.2897682091509 8.840062002360614 0.35750780913876873 0 0 0
1575 1 41.352768209154505 8.840062002359016 0.3575078091410274 0 0 0
1570 3 38.28858153651688 10.609760855937711 1.400373954624849 0 0 0
1574 3 41.351581536520456 10.60976085593901 1.4003739546231946 0 0 0
1568 1 36.75826820915767 11.492697814152484 0.3575078091387166 0 0 0
1572 1 39.821268209156784 11.49269781415265 0.35750780913771046 0 0 0
1444 1 42.884268209152005 6.187426190569685 0.3575078091391282 0 0 0
1448 1 45.94726820915087 6.187426190570152 0.35750780913918334 0 0 0
1573 3 42.88308153651711 7.957125044144032 1.4003739546240346 0 0 0
1577 3 45.94608153651699 7.957125044143741 1.4003739546235603 0 0 0
1579 1 44.41576820915798 8.840062002360646 0.3575078091388227 0 0 0
1583 1 47.47876820915674 8.840062002360536 0.3575078091382828 0 0 0
1578 3 44.414581536523286 10.609760855937559 1.4003739546249026 0 0 0
1582 3 47.47758153652306 10.609760855937463 1.4003739546258342 0 0 0
1576 1 42.884268209152 11.492697814152423 0.3575078091380704 0 0 0
1580 1 45.94726820915085 11.492697814152997 0.3575078091381762 0 0 0
1452 1 49.010268209154255 6.187426190568534 0.3575078091411091 0 0 0
1324 1 52.07326820915444 6.1874261905702355 0.3575078091389284 -1 0 0
1581 3 49.00908153652047 7.957125044145299 1.4003739546218028 0 0 0
1453 3 52.072081536520294 7.9571250441434085 1.4003739546243017 -1 0 0
1455 1 50.541768209153005 8.840062002359723 0.35750780913935654 -1 0 0
1454 3 50.54058153651922 10.609760855938429 1.4003739546246066 -1 0 0
1584 1 49.01026820915427 11.492697814151363 0.35750780914009883 0 0 0
1456 1 52.073268209154406 11.492697814152946 0.35750780913786867 -1 0 0
1328 1 55.136268209155425 6.1874261905692185 0.35750780914020325 -1 0 0
1332 1 58.199268209154255 6.187426190569928 0.35750780913915725 -1 0 0
1457 3 55.13508153652142 7.957125044144531 1.4003739546228016 -1 0 0
1461 3 58.19808153652061 7.957125044143841 1.400373954623837 -1 0 0
1459 1 53.60476820915457 8.840062002360828 0.3575078091383159 -1 0 0
1463 1 56.667768209153024 8.840062002359774 0.3575078091396566 -1 0 0
1458 3 53.603581536520245 10.6097608559374 1.4003739546254965 -1 0 0
1462 3 56.66658153651901 10.609760855938498 1.4003739546241076 -1 0 0
1460 1 55.1362682091556 11.492697814151912 0.3575078091392882 -1 0 0
1464 1 58.199268209154305 11.492697814152644 0.3575078091380717 -1 0 0
1336 1 61.262268209154534 6.187426190569606 0.35750780913952074 -1 0 0
1340 1 64.32526820915102 6.18742619057005 0.35750780913904906 -1 0 0
1465 3 61.261081536520415 7.957125044144062 1.400373954623551 -1 0 0
1469 3 64.32408153651754 7.957125044143609 1.400373954624244 -1 0 0
1467 1 59.73076820915428 8.84006200236055 0.35750780913878216 -1 0 0
1471 1 62.79376820915529 8.840062002359751 0.3575078091398486 -1 0 0
1466 3 59.72958153652035 10.609760855937553 1.4003739546252987 -1 0 0
1470 3 62.792581536521716 10.609760855938621 1.40037395462368 -1 0 0
1468 1 61.26226820915462 11.492697814152352 0.3575078091384461 -1 0 0
1472 1 64.32526820915095 11.492697814152814 0.35750780913804925 -1 0 0
1344 1 67.38826820915482 6.187426190568582 0.3575078091412292 -1 0 0
1348 1 70.45126820915735 6.187426190570069 0.3575078091393177 -1 0 0
1473 3 67.38708153652047 7.95712504414544 1.400373954621315 -1 0 0
1477 3 70.45008153652361 7.957125044143662 1.400373954623758 -1 0 0
1475 1 65.8567682091573 8.840062002360588 0.3575078091382777 -1 0 0
1479 1 68.9197682091513 8.840062002360192 0.3575078091386343 -1 0 0
1474 3 65.85558153652289 10.609760855937346 1.4003739546260279 -1 0 0
1478 3 68.9185815365176 10.609760855937877 1.4003739546253433 -1 0 0
1476 1 67.38826820915482 11.492697814151361 0.35750780914022967 -1 0 0
1480 1 70.45126820915733 11.492697814152907 0.3575078091383059 -1 0 0
1352 1 73.51426820915735 6.187426190569589 0.3575078091390739 -1 0 0
1356 1 76.57726820915124 6.187426190569695 0.35750780913977787 -1 0 0
1481 3 73.51308153652279 7.957125044143965 1.4003739546242697 -1 0 0
1485 3 76.57608153651711 7.95712504414401 1.4003739546234044 -1 0 0
1483 1 71.98276820915092 8.84006200236088 0.35750780913864055 -1 0 0
1487 1 75.04576820915526 8.840062002358568 0.3575078091413617 -1 0 0
1482 3 71.98158153651688 10.609760855937292 1.4003739546253697 -1 0 0
1486 3 75.04458153652084 10.609760855939795 1.4003739546221505 -1 0 0
1484 1 73.5142682091574 11.492697814152379 0.3575078091380341 -1 0 0
1488 1 76.57726820915124 11.492697814152432 0.35750780913874153 -1 0 0
1360 1 79.640268209157 6.187426190570125 0.35750780913917307 -1 0 0
1364 1 82.70326820915507 6.187426190568137 0.3575078091412532 -1 0 0
1489 3 79.63908153652233 7.957125044143861 1.4003739546234377 -1 0 0
1493 3 82.70208153652136 7.957125044145599 1.4003739546217366 -1 0 0
1491 1 78.10876820915504 8.840062002362368 0.35750780913658203 -1 0 0
1495 1 81.17176820915347 8.840062002358668 0.3575078091404931 -1 0 0
1490 3 78.10758153652024 10.609760855935606 1.4003739546277003 -1 0 0
1494 3 81.17058153651956 10.609760855939513 1.4003739546233176 -1 0 0
1492 1 79.64026820915703 11.492697814152956 0.35750780913816016 -1 0 0
1496 1 82.70326820915507 11.492697814150699 0.3575078091402074 -1 0 0
1368 1 85.76626820915467 6.187426190571763 0.35750780913712205 -1 0 0
1372 1 88.82926820915351 6.187426190568117 0.35750780914117497 -1 0 0
1497 3 85.76508153652064 7.957125044141774 1.4003739546263023 -1 0 0
1501 3 88.82808153651946 7.9571250441456245 1.4003739546217635 -1 0 0
1499 1 84.23476820915145 8.840062002360831 0.35750780913866537 -1 0 0
1503 1 87.29776820915674 8.840062002360655 0.35750780913891633 -1 0 0
1498 3 84.23358153651778 10.609760855937447 1.4003739546251637 -1 0 0
1502 3 87.29658153652235 10.609760855937614 1.4003739546248362 -1 0 0
1500 1 85.7662682091547 11.492697814154694 0.35750780913612457 -1 0 0
1504 1 88.82926820915351 11.492697814150741 0.3575078091400777 -1 0 0
1376 1 91.89226820915115 6.1874261905703944 0.35750780913905217 -1 0 0
1380 1 94.95526820915757 6.187426190569565 0.35750780914002256 -1 0 0
1505 3 91.89108153651769 7.957125044143517 1.4003739546238299 -1 0 0
1509 3 94.954081536522 7.957125044144068 1.4003739546232046 -1 0 0
1507 1 90.36076820915511 8.840062002358655 0.3575078091406127 -1 0 0
1511 1 93.42376820915499 8.840062002362284 0.3575078091367541 -1 0 0
1506 3 90.35958153652129 10.60976085593951 1.4003739546232805 -1 0 0
1510 3 93.42258153652078 10.609760855935557 1.4003739546278062 -1 0 0
1508 1 91.89226820915111 11.492697814153143 0.35750780913797253 -1 0 0
1512 1 94.9552682091576 11.492697814152324 0.3575078091389233 -1 0 0
1384 1 98.01826820915053 6.187426190569887 0.3575078091386386 -1 0 0
1513 3 98.01708153651737 7.957125044143902 1.4003739546242693 -1 0 0
1515 1 96.48676820915442 8.84006200235874 0.35750780914107166 -1 0 0
1519 1 99.54976820915792 8.840062002360622 0.3575078091384706 -1 0 0
1514 3 96.48558153651972 10.60976085593975 1.4003739546221274 -1 0 0
1518 3 99.54858153652432 10.609760855937363 1.4003739546258522 -1 0 0
1516 1 98.01826820915049 11.492697814152649 0.35750780913760594 -1 0 0
1655 1 1.5337682091545406 14.145333625944815 0.35750780913884095 0 0 0
1649 3 0.0010815365183418635 13.262396667729911 1.400373954623746 0 0 0
1653 3 3.0640815365204346 13.262396667729165 1.4003739546247467 0 0 0
1659 1 4.596768209154277 14.145333625944906 0.3575078091390216 0 0 0
1654 3 1.5325815365204087 15.915032479520717 1.4003739546238798 0 0 0
1658 3 4.595581536520128 15.915032479520573 1.4003739546238687 0 0 0
1652 1 0.002268209152717721 16.797969437737677 0.35750780914113783 0 0 0
1656 1 3.0652682091544103 16.797969437738093 0.35750780914013036 0 0 0
1657 3 6.127081536519996 13.26239666772913 1.4003739546251357 0 0 0
1663 1 7.659768209155909 14.145333625944309 0.3575078091397113 0 0 0
1661 3 9.190081536518617 13.262396667729604 1.4003739546243061 0 0 0
1667 1 10.72276820915446 14.145333625945185 0.3575078091381239 0 0 0
1662 3 7.658581536521763 15.91503247952122 1.4003739546231055 0 0 0
1666 3 10.72158153652033 15.915032479520445 1.4003739546245522 0 0 0
1660 1 6.128268209154145 16.797969437738235 0.3575078091396525 0 0 0
1664 1 9.19126820915288 16.797969437737564 0.357507809140607 0 0 0
1665 3 12.25308153652211 13.262396667729709 1.4003739546239602 0 0 0
1671 1 13.785768209151163 14.145333625944897 0.3575078091387961 0 0 0
1669 3 15.316081536523482 13.262396667729163 1.4003739546247664 0 0 0
1675 1 16.848768209151395 14.145333625944588 0.3575078091392061 0 0 0
1670 3 13.784581536517136 15.915032479520582 1.4003739546241025 0 0 0
1674 3 16.84758153651717 15.915032479521043 1.400373954623463 0 0 0
1668 1 12.254268209155995 16.79796943773778 0.35750780914098046 0 0 0
1672 1 15.317268209157808 16.797969437738 0.35750780914011926 0 0 0
1673 3 18.37908153652338 13.262396667729263 1.4003739546246365 0 0 0
1679 1 19.911768209151035 14.145333625944867 0.3575078091388945 0 0 0
1677 3 21.442081536522927 13.26239666772912 1.4003739546255383 0 0 0
1683 1 22.9747682091545 14.145333625943476 0.35750780914094815 0 0 0
1678 3 19.910581536516872 15.915032479520596 1.4003739546240352 0 0 0
1682 3 22.9735815365204 15.91503247952196 1.4003739546218135 0 0 0
1676 1 18.380268209157386 16.797969437737976 0.35750780914020625 0 0 0
1680 1 21.443268209157267 16.797969437738352 0.3575078091393084 0 0 0
1681 3 24.505081536517668 13.26239666772932 1.4003739546252514 0 0 0
1687 1 26.03776820915759 14.145333625944929 0.35750780913897173 0 0 0
1685 3 27.56808153651681 13.26239666772887 1.4003739546249505 0 0 0
1691 1 29.100768209157096 14.145333625944941 0.35750780913834024 0 0 0
1686 3 26.03658153652367 15.915032479520379 1.4003739546241496 0 0 0
1690 3 29.099581536522873 15.915032479520725 1.4003739546242746 0 0 0
1684 1 24.50626820915135 16.797969437738367 0.35750780913948976 0 0 0
1688 1 27.56926820915127 16.79796943773833 0.3575078091398988 0 0 0
1689 3 30.631081536520313 13.262396667730467 1.4003739546229352 0 0 0
1695 1 32.16376820915172 14.145333625944877 0.3575078091384233 0 0 0
1699 1 35.226768209151274 14.145333625944659 0.35750780913916586 0 0 0
1693 3 33.6940815365235 13.262396667729115 1.4003739546247609 0 0 0
1694 3 32.16258153651707 15.915032479520558 1.4003739546245986 0 0 0
1698 3 35.22558153651702 15.915032479520926 1.4003739546235872 0 0 0
1692 1 30.63226820915442 16.797969437736754 0.3575078091420371 0 0 0
1696 1 33.69526820915816 16.797969437738242 0.35750780913985253 0 0 0
1697 3 36.75708153652328 13.262396667729202 1.4003739546246696 0 0 0
1703 1 38.28976820915089 14.145333625944945 0.35750780913876407 0 0 0
1701 3 39.82008153652332 13.262396667729066 1.4003739546255969 0 0 0
1707 1 41.3527682091545 14.145333625943453 0.3575078091411183 0 0 0
1702 3 38.288581536516816 15.915032479520736 1.400373954623732 0 0 0
1706 3 41.351581536520456 15.91503247952184 1.4003739546220841 0 0 0
1700 1 36.75826820915767 16.79796943773791 0.3575078091403087 0 0 0
1704 1 39.82126820915679 16.79796943773837 0.3575078091392513 0 0 0
1705 3 42.8830815365171 13.26239666772931 1.4003739546253369 0 0 0
1711 1 44.41576820915799 14.14533362594492 0.35750780913883756 0 0 0
1709 3 45.94608153651698 13.262396667728927 1.4003739546248235 0 0 0
1715 1 47.47876820915672 14.145333625945014 0.3575078091383364 0 0 0
1710 3 44.414581536523244 15.91503247952061 1.400373954623799 0 0 0
1714 3 47.47758153652297 15.91503247952044 1.4003739546246183 0 0 0
1708 1 42.88426820915204 16.797969437738125 0.3575078091396405 0 0 0
1712 1 45.94726820915092 16.79796943773851 0.3575078091397767 0 0 0
1713 3 49.009081536520455 13.262396667730412 1.4003739546231175 0 0 0
1587 1 50.541768209153034 14.145333625944168 0.3575078091393802 -1 0 0
1585 3 52.07208153652029 13.262396667728675 1.4003739546256206 -1 0 0
1586 3 50.54058153651922 15.915032479521303 1.400373954623504 -1 0 0
1716 1 49.01026820915429 16.79796943773697 0.35750780914159674 0 0 0
1588 1 52.073268209154406 16.797969437738562 0.3575078091393885 -1 0 0
1591 1 53.60476820915453 14.145333625945318 0.35750780913841684 -1 0 0
1589 3 55.135081536521454 13.262396667729753 1.4003739546240312 -1 0 0
1595 1 56.667768209152996 14.145333625944161 0.35750780913975555 -1 0 0
1593 3 58.19808153652049 13.26239666772907 1.400373954625225 -1 0 0
1590 3 53.603581536520245 15.915032479520283 1.4003739546243275 -1 0 0
1594 3 56.66658153651895 15.915032479521404 1.4003739546229654 -1 0 0
1592 1 55.13626820915564 16.79796943773748 0.35750780914082037 -1 0 0
1596 1 58.19926820915424 16.79796943773844 0.35750780913957014 -1 0 0
1599 1 59.73076820915437 14.14533362594501 0.357507809138803 -1 0 0
1597 3 61.261081536520486 13.262396667729384 1.400373954624797 -1 0 0
1603 1 62.793768209155196 14.145333625944165 0.35750780914001595 -1 0 0
1601 3 64.32408153651757 13.262396667728748 1.4003739546255116 -1 0 0
1598 3 59.729581536520556 15.915032479520399 1.40037395462417 -1 0 0
1602 3 62.79258153652172 15.915032479521521 1.4003739546224845 -1 0 0
1600 1 61.26226820915453 16.797969437737965 0.35750780914005525 -1 0 0
1604 1 64.32526820915074 16.797969437738473 0.35750780913940594 -1 0 0
1607 1 65.85676820915718 14.145333625945119 0.3575078091382882 -1 0 0
1611 1 68.91976820915139 14.145333625944703 0.3575078091386863 -1 0 0
1605 3 67.3870815365205 13.262396667730577 1.4003739546227028 -1 0 0
1609 3 70.45008153652361 13.262396667728805 1.4003739546250258 -1 0 0
1606 3 65.85558153652333 15.915032479520208 1.4003739546248792 -1 0 0
1610 3 68.91858153651717 15.91503247952083 1.4003739546241134 -1 0 0
1608 1 67.38826820915484 16.79796943773676 0.3575078091420726 -1 0 0
1612 1 70.45126820915763 16.79796943773837 0.35750780913971053 -1 0 0
1615 1 71.98276820915089 14.145333625945193 0.35750780913862484 -1 0 0
1613 3 73.5130815365228 13.262396667729172 1.4003739546255565 -1 0 0
1619 1 75.04576820915528 14.145333625942984 0.35750780914147023 -1 0 0
1617 3 76.57608153651711 13.26239666772926 1.4003739546246567 -1 0 0
1614 3 71.98158153651683 15.915032479520397 1.400373954624233 -1 0 0
1618 3 75.04458153652084 15.915032479522683 1.4003739546210097 -1 0 0
1616 1 73.51426820915736 16.79796943773805 0.3575078091396096 -1 0 0
1620 1 76.57726820915128 16.79796943773795 0.35750780914026453 -1 0 0
1623 1 78.10876820915502 14.14533362594669 0.35750780913659314 -1 0 0
1621 3 79.63908153652231 13.262396667729005 1.4003739546247267 -1 0 0
1627 1 81.1717682091535 14.145333625943142 0.35750780914058305 -1 0 0
1625 3 82.70208153652138 13.26239666773099 1.400373954623083 -1 0 0
1622 3 78.10758153652026 15.915032479518702 1.4003739546265404 -1 0 0
1626 3 81.17058153651953 15.915032479522337 1.4003739546221492 -1 0 0
1624 1 79.64026820915703 16.797969437738402 0.3575078091396979 -1 0 0
1628 1 82.70326820915497 16.797969437736516 0.35750780914174946 -1 0 0
1631 1 84.23476820915137 14.145333625945261 0.3575078091386801 -1 0 0
1629 3 85.76508153652067 13.262396667726833 1.4003739546275935 -1 0 0
1635 1 87.29776820915676 14.145333625944966 0.35750780913889607 -1 0 0
1633 3 88.82808153651948 13.262396667730957 1.4003739546231466 -1 0 0
1630 3 84.23358153651772 15.915032479520328 1.400373954624165 -1 0 0
1634 3 87.29658153652204 15.915032479520805 1.4003739546235368 -1 0 0
1632 1 85.76626820915516 16.797969437740054 0.3575078091377461 -1 0 0
1636 1 88.82926820915348 16.797969437736523 0.3575078091416736 -1 0 0
1639 1 90.36076820915511 14.145333625943126 0.3575078091407068 -1 0 0
1637 3 91.89108153651773 13.26239666772877 1.4003739546250942 -1 0 0
1643 1 93.42376820915494 14.145333625946655 0.35750780913683466 -1 0 0
1641 3 94.95408153652198 13.262396667729316 1.4003739546245333 -1 0 0
1638 3 90.35958153652133 15.915032479522312 1.4003739546221698 -1 0 0
1642 3 93.42258153652074 15.91503247951861 1.4003739546265854 -1 0 0
1640 1 91.89226820915121 16.797969437738566 0.3575078091394547 -1 0 0
1644 1 94.95526820915755 16.7979694377378 0.3575078091404604 -1 0 0
1647 1 96.48676820915443 14.145333625943202 0.3575078091411602 -1 0 0
1645 3 98.01708153651738 13.26239666772913 1.4003739546255682 -1 0 0
1651 1 99.5497682091579 14.145333625945067 0.357507809138531 -1 0 0
1646 3 96.48558153651972 15.915032479522598 1.400373954620967 -1 0 0
1650 3 99.54858153652427 15.915032479520162 1.4003739546247331 -1 0 0
1648 1 98.01826820915053 16.797969437738455 0.35750780913919256 -1 0 0