LAMMPS data file via write_data, version 29 Aug 2024, timestep = 1, units = metal

7524 atoms
6 atom types

0 101.079 xlo xhi
0 100.800160848096 ylo yhi
-50 117.56669240630764 zlo zhi

Masses

1 12.011
2 12.011
3 12.011
4 78.971
5 78.971
6 78.971

Atoms # atomic

1256 1 7.800327840043797e-06 0.8842179125965622 0.006110699041861117 0 0 0
1260 1 3.0630078003278323 0.8842179125965578 0.006110699041866869 0 0 0
1385 4 3.795346456308277e-05 2.6526075542471013 1.0567365141335505 0 0 0
1389 4 3.0630379534645553 2.6526075542471057 1.0567365141335447 0 0 0
1391 1 1.5315078003278322 3.53685372438858 0.006110699041865829 0 0 0
1395 1 4.5945078003278335 3.5368537243885805 0.006110699041865068 0 0 0
1390 4 1.531537953464555 5.305243366039097 1.0567365141335363 0 0 0
1394 4 4.594537953464557 5.305243366039096 1.056736514133537 0 0 0
1264 1 6.126007800327834 0.8842179125965571 0.006110699041867628 0 0 0
1268 1 9.189007800327841 0.8842179125965616 0.006110699041861882 0 0 0
1393 4 6.126037953464556 2.6526075542471066 1.056736514133544 0 0 0
1397 4 9.189037953464563 2.652607554247102 1.0567365141335499 0 0 0
1399 1 7.657507800327825 3.536853724388584 0.006110699041860076 0 0 0
1403 1 10.720507800327832 3.536853724388579 0.006110699041866598 0 0 0
1398 4 7.657537953464548 5.305243366039092 1.056736514133542 0 0 0
1402 4 10.720537953464554 5.305243366039098 1.0567365141335354 0 0 0
1272 1 12.252007800327823 0.8842179125965622 0.00611069904186112 0 0 0
1276 1 15.315007800327816 0.8842179125965584 0.006110699041866222 0 0 0
1401 4 12.252037953464546 2.6526075542471013 1.0567365141335505 0 0 0
1405 4 15.315037953464538 2.6526075542471057 1.0567365141335447 0 0 0
1407 1 13.783507800327847 3.53685372438858 0.0061106990418657945 0 0 0
1411 1 16.84650780032785 3.5368537243885805 0.006110699041865024 0 0 0
1406 4 13.78353795346457 5.305243366039097 1.0567365141335363 0 0 0
1410 4 16.846537953464573 5.305243366039096 1.0567365141335372 0 0 0
1280 1 18.37800780032782 0.8842179125965584 0.0061106990418662195 0 0 0
1284 1 21.441007800327817 0.884217912596557 0.006110699041867789 0 0 0
1409 4 18.37803795346454 2.6526075542471057 1.0567365141335447 0 0 0
1413 4 21.44103795346454 2.652607554247107 1.0567365141335432 0 0 0
1415 1 19.90950780032785 3.5368537243885805 0.006110699041865026 0 0 0
1419 1 22.972507800327833 3.5368537243885894 0.0061106990418535925 0 0 0
1414 4 19.909537953464575 5.305243366039096 1.0567365141335372 0 0 0
1418 4 22.972537953464556 5.305243366039087 1.0567365141335485 0 0 0
1288 1 24.504007800327848 0.884217912596557 0.006110699041867788 0 0 0
1292 1 27.56700780032785 0.8842179125965584 0.006110699041866221 0 0 0
1417 4 24.50403795346457 2.652607554247107 1.0567365141335432 0 0 0
1421 4 27.567037953464574 2.6526075542471057 1.0567365141335447 0 0 0
1423 1 26.035507800327817 3.5368537243885805 0.006110699041865027 0 0 0
1427 1 29.098507800327816 3.536853724388579 0.006110699041866578 0 0 0
1422 4 26.035537953464537 5.305243366039096 1.0567365141335372 0 0 0
1426 4 29.09853795346454 5.305243366039098 1.0567365141335356 0 0 0
1296 1 30.63000780032783 0.8842179125965666 0.0061106990418554556 0 0 0
1300 1 33.69300780032781 0.8842179125965584 0.006110699041866222 0 0 0
1425 4 30.630037953464555 2.652607554247097 1.0567365141335563 0 0 0
1429 4 33.69303795346454 2.6526075542471057 1.0567365141335447 0 0 0
1431 1 32.16150780032785 3.536853724388579 0.006110699041866579 0 0 0
1435 1 35.22450780032785 3.5368537243885805 0.006110699041865028 0 0 0
1430 4 32.161537953464574 5.305243366039098 1.0567365141335356 0 0 0
1434 4 35.22453795346457 5.305243366039096 1.0567365141335372 0 0 0
1304 1 36.756007800327815 0.8842179125965584 0.006110699041866221 0 0 0
1308 1 39.81900780032782 0.884217912596557 0.006110699041867787 0 0 0
1433 4 36.75603795346454 2.6526075542471057 1.0567365141335447 0 0 0
1437 4 39.81903795346454 2.652607554247107 1.0567365141335432 0 0 0
1439 1 38.28750780032785 3.5368537243885805 0.006110699041865026 0 0 0
1443 1 41.35050780032783 3.5368537243885894 0.006110699041853588 0 0 0
1438 4 38.28753795346457 5.305243366039096 1.0567365141335372 0 0 0
1442 4 41.35053795346456 5.305243366039087 1.0567365141335485 0 0 0
1312 1 42.88200780032785 0.884217912596557 0.006110699041867786 0 0 0
1316 1 45.94500780032785 0.8842179125965584 0.006110699041866221 0 0 0
1441 4 42.882037953464575 2.652607554247107 1.0567365141335432 0 0 0
1445 4 45.94503795346457 2.6526075542471057 1.0567365141335447 0 0 0
1447 1 44.413507800327814 3.5368537243885805 0.006110699041865023 0 0 0
1451 1 47.476507800327816 3.536853724388579 0.006110699041866577 0 0 0
1446 4 44.41353795346454 5.305243366039096 1.0567365141335372 0 0 0
1450 4 47.476537953464536 5.305243366039098 1.0567365141335356 0 0 0
1320 1 49.00800780032783 0.8842179125965659 0.006110699041856224 0 0 0
1192 1 52.07100780032783 0.8842179125965571 0.006110699041867624 -1 0 0
1449 4 49.00803795346455 2.6526075542470977 1.0567365141335554 0 0 0
1321 4 52.071037953464554 2.6526075542471066 1.056736514133544 -1 0 0
1323 1 50.53950780032784 3.5368537243885836 0.006110699041860861 -1 0 0
1322 4 50.53953795346456 5.305243366039093 1.0567365141335412 -1 0 0
1196 1 55.13400780032782 0.8842179125965616 0.006110699041861885 -1 0 0
1200 1 58.197007800327825 0.8842179125965571 0.006110699041867627 -1 0 0
1325 4 55.13403795346454 2.652607554247102 1.0567365141335499 -1 0 0
1329 4 58.19703795346455 2.6526075542471066 1.056736514133544 -1 0 0
1327 1 53.60250780032783 3.53685372438858 0.006110699041865833 -1 0 0
1331 1 56.66550780032784 3.536853724388584 0.006110699041860076 -1 0 0
1326 4 53.60253795346455 5.305243366039097 1.0567365141335363 -1 0 0
1330 4 56.66553795346456 5.305243366039092 1.056736514133542 -1 0 0
1204 1 61.26000780032783 0.8842179125965571 0.0061106990418676255 -1 0 0
1208 1 64.32300780032784 0.8842179125965577 0.006110699041866986 -1 0 0
1333 4 61.26003795346455 2.6526075542471066 1.056736514133544 -1 0 0
1337 4 64.32303795346456 2.652607554247106 1.056736514133544 -1 0 0
1335 1 59.728507800327826 3.5368537243885805 0.006110699041865064 -1 0 0
1339 1 62.79150780032782 3.536853724388585 0.0061106990418593075 -1 0 0
1334 4 59.72853795346455 5.305243366039096 1.056736514133537 -1 0 0
1338 4 62.79153795346454 5.305243366039091 1.0567365141335427 -1 0 0
1212 1 67.38600780032783 0.8842179125965666 0.006110699041855454 -1 0 0
1216 1 70.4490078003278 0.8842179125965584 0.006110699041866217 -1 0 0
1341 4 67.38603795346455 2.652607554247097 1.0567365141335563 -1 0 0
1345 4 70.44903795346453 2.6526075542471057 1.0567365141335447 -1 0 0
1343 1 65.85450780032781 3.536853724388579 0.006110699041866578 -1 0 0
1347 1 68.91750780032784 3.536853724388579 0.006110699041866577 -1 0 0
1342 4 65.85453795346453 5.305243366039098 1.0567365141335356 -1 0 0
1346 4 68.91753795346456 5.305243366039098 1.0567365141335356 -1 0 0
1220 1 73.51200780032781 0.884217912596557 0.006110699041867787 -1 0 0
1224 1 76.57500780032784 0.8842179125965584 0.006110699041866227 -1 0 0
1349 4 73.51203795346453 2.652607554247107 1.0567365141335432 -1 0 0
1353 4 76.57503795346456 2.6526075542471057 1.0567365141335447 -1 0 0
1351 1 71.98050780032784 3.5368537243885805 0.006110699041865025 -1 0 0
1355 1 75.04350780032783 3.5368537243885894 0.006110699041853589 -1 0 0
1350 4 71.98053795346456 5.305243366039096 1.0567365141335372 -1 0 0
1354 4 75.04353795346455 5.305243366039087 1.0567365141335485 -1 0 0
1228 1 79.63800780032781 0.8842179125965584 0.00611069904186623 -1 0 0
1232 1 82.70100780032783 0.8842179125965652 0.00611069904185702 -1 0 0
1357 4 79.63803795346453 2.6526075542471057 1.0567365141335447 -1 0 0
1361 4 82.70103795346455 2.652607554247098 1.0567365141335547 -1 0 0
1359 1 78.10650780032783 3.536853724388572 0.006110699041876468 -1 0 0
1363 1 81.16950780032782 3.536853724388588 0.006110699041855142 -1 0 0
1358 4 78.10653795346455 5.305243366039105 1.0567365141335257 -1 0 0
1362 4 81.16953795346456 5.305243366039089 1.056736514133547 -1 0 0
1236 1 85.76400780032783 0.8842179125965502 0.006110699041877001 -1 0 0
1240 1 88.82700780032782 0.8842179125965652 0.006110699041857018 -1 0 0
1365 4 85.76403795346455 2.6526075542471146 1.0567365141335334 -1 0 0
1369 4 88.82703795346455 2.652607554247098 1.0567365141335547 -1 0 0
1367 1 84.23250780032784 3.5368537243885805 0.0061106990418650295 -1 0 0
1371 1 87.29550780032781 3.5368537243885805 0.006110699041865028 -1 0 0
1366 4 84.23253795346456 5.305243366039096 1.0567365141335372 -1 0 0
1370 4 87.29553795346453 5.305243366039096 1.0567365141335372 -1 0 0
1244 1 91.89000780032784 0.8842179125965584 0.00611069904186623 -1 0 0
1248 1 94.95300780032781 0.8842179125965584 0.006110699041866229 -1 0 0
1373 4 91.89003795346456 2.6526075542471057 1.0567365141335447 -1 0 0
1377 4 94.95303795346453 2.6526075542471057 1.0567365141335447 -1 0 0
1375 1 90.35850780032783 3.536853724388588 0.006110699041855142 -1 0 0
1379 1 93.42150780032783 3.536853724388572 0.00611069904187647 -1 0 0
1374 4 90.35853795346455 5.305243366039089 1.056736514133547 -1 0 0
1378 4 93.42153795346455 5.305243366039105 1.0567365141335257 -1 0 0
1252 1 98.01600780032784 0.884217912596557 0.006110699041867786 -1 0 0
1381 4 98.01603795346456 2.652607554247107 1.0567365141335432 -1 0 0
1383 1 96.48450780032783 3.5368537243885894 0.006110699041853588 -1 0 0
1387 1 99.5475078003278 3.53685372438858 0.006110699041865791 -1 0 0
1382 4 96.48453795346455 5.305243366039087 1.0567365141335485 -1 0 0
1386 4 99.54753795346453 5.305243366039097 1.0567365141335363 -1 0 0
1388 1 7.800327840129818e-06 6.189489536180574 0.006110699041853487 0 0 0
1392 1 3.0630078003278323 6.189489536180569 0.006110699041859254 0 0 0
1517 4 3.79534645630766e-05 7.9578791778311 1.0567365141335487 0 0 0
1521 4 3.0630379534645553 7.957879177831105 1.056736514133543 0 0 0
1523 1 1.5315078003278322 8.842125347972578 0.006110699041865828 0 0 0
1527 1 4.5945078003278335 8.842125347972578 0.006110699041865067 0 0 0
1522 4 1.531537953464555 10.610514989623097 1.056736514133537 0 0 0
1526 4 4.594537953464557 10.610514989623095 1.0567365141335379 0 0 0
1520 1 7.800327840128768e-06 11.494761159764584 0.006110699041858511 0 0 0
1524 1 3.0630078003278323 11.49476115976458 0.006110699041864261 0 0 0
1396 1 6.126007800327834 6.189489536180569 0.006110699041860024 0 0 0
1400 1 9.189007800327841 6.189489536180574 0.0061106990418542525 0 0 0
1525 4 6.126037953464556 7.9578791778311055 1.056736514133542 0 0 0
1529 4 9.189037953464563 7.957879177831101 1.0567365141335479 0 0 0
1531 1 7.657507800327825 8.842125347972582 0.006110699041860074 0 0 0
1535 1 10.720507800327832 8.842125347972578 0.006110699041866597 0 0 0
1530 4 7.657537953464548 10.610514989623091 1.0567365141335427 0 0 0
1534 4 10.720537953464554 10.610514989623097 1.0567365141335363 0 0 0
1528 1 6.126007800327834 11.494761159764579 0.006110699041865034 0 0 0
1532 1 9.189007800327841 11.494761159764584 0.006110699041859278 0 0 0
1404 1 12.252007800327823 6.189489536180574 0.006110699041853489 0 0 0
1408 1 15.315007800327814 6.189489536180569 0.006110699041859186 0 0 0
1533 4 12.252037953464546 7.9578791778311 1.0567365141335487 0 0 0
1537 4 15.315037953464538 7.957879177831105 1.056736514133543 0 0 0
1539 1 13.783507800327847 8.842125347972578 0.0061106990418657945 0 0 0
1543 1 16.84650780032785 8.842125347972578 0.006110699041865023 0 0 0
1538 4 13.78353795346457 10.610514989623097 1.0567365141335372 0 0 0
1542 4 16.846537953464573 10.610514989623095 1.0567365141335379 0 0 0
1536 1 12.252007800327823 11.494761159764584 0.006110699041858512 0 0 0
1540 1 15.315007800327814 11.49476115976458 0.006110699041864238 0 0 0
1412 1 18.37800780032782 6.189489536180569 0.006110699041859183 0 0 0
1416 1 21.441007800327817 6.189489536180568 0.006110699041860739 0 0 0
1541 4 18.37803795346454 7.957879177831105 1.056736514133543 0 0 0
1545 4 21.44103795346454 7.957879177831106 1.0567365141335414 0 0 0
1547 1 19.90950780032785 8.842125347972578 0.006110699041865024 0 0 0
1551 1 22.972507800327833 8.842125347972587 0.006110699041853592 0 0 0
1546 4 19.909537953464575 10.610514989623095 1.0567365141335379 0 0 0
1550 4 22.972537953464556 10.610514989623086 1.0567365141335494 0 0 0
1544 1 18.37800780032782 11.49476115976458 0.006110699041864234 0 0 0
1548 1 21.441007800327817 11.494761159764579 0.006110699041865789 0 0 0
1420 1 24.504007800327848 6.189489536180568 0.006110699041860739 0 0 0
1424 1 27.56700780032785 6.189489536180569 0.006110699041859185 0 0 0
1549 4 24.50403795346457 7.957879177831106 1.0567365141335414 0 0 0
1553 4 27.567037953464574 7.957879177831105 1.056736514133543 0 0 0
1555 1 26.035507800327817 8.842125347972578 0.006110699041865026 0 0 0
1559 1 29.098507800327816 8.842125347972578 0.006110699041866577 0 0 0
1554 4 26.035537953464537 10.610514989623095 1.0567365141335379 0 0 0
1558 4 29.09853795346454 10.610514989623097 1.0567365141335363 0 0 0
1552 1 24.504007800327848 11.494761159764579 0.006110699041865791 0 0 0
1556 1 27.56700780032785 11.49476115976458 0.006110699041864236 0 0 0
1428 1 30.63000780032783 6.189489536180578 0.00611069904184776 0 0 0
1432 1 33.69300780032781 6.189489536180569 0.006110699041859187 0 0 0
1557 4 30.630037953464555 7.957879177831096 1.0567365141335543 0 0 0
1561 4 33.69303795346454 7.957879177831105 1.056736514133543 0 0 0
1563 1 32.16150780032785 8.842125347972578 0.006110699041866578 0 0 0
1567 1 35.22450780032785 8.842125347972578 0.006110699041865026 0 0 0
1562 4 32.161537953464574 10.610514989623097 1.0567365141335363 0 0 0
1566 4 35.22453795346457 10.610514989623095 1.0567365141335379 0 0 0
1560 1 30.63000780032783 11.49476115976459 0.006110699041852797 0 0 0
1564 1 33.69300780032781 11.49476115976458 0.006110699041864238 0 0 0
1436 1 36.756007800327815 6.189489536180569 0.006110699041859186 0 0 0
1440 1 39.81900780032782 6.189489536180568 0.006110699041860737 0 0 0
1565 4 36.75603795346454 7.957879177831105 1.056736514133543 0 0 0
1569 4 39.81903795346454 7.957879177831106 1.0567365141335414 0 0 0
1571 1 38.28750780032785 8.842125347972578 0.006110699041865025 0 0 0
1575 1 41.35050780032783 8.842125347972587 0.006110699041853586 0 0 0
1570 4 38.28753795346457 10.610514989623095 1.0567365141335379 0 0 0
1574 4 41.35053795346456 10.610514989623086 1.0567365141335494 0 0 0
1568 1 36.756007800327815 11.49476115976458 0.006110699041864238 0 0 0
1572 1 39.81900780032782 11.494761159764579 0.006110699041865787 0 0 0
1444 1 42.88200780032785 6.189489536180568 0.006110699041860735 0 0 0
1448 1 45.94500780032785 6.189489536180569 0.006110699041859185 0 0 0
1573 4 42.882037953464575 7.957879177831106 1.0567365141335414 0 0 0
1577 4 45.94503795346457 7.957879177831105 1.056736514133543 0 0 0
1579 1 44.413507800327814 8.842125347972578 0.0061106990418650226 0 0 0
1583 1 47.476507800327816 8.842125347972578 0.006110699041866578 0 0 0
1578 4 44.41353795346454 10.610514989623095 1.0567365141335379 0 0 0
1582 4 47.476537953464536 10.610514989623097 1.0567365141335363 0 0 0
1576 1 42.88200780032785 11.494761159764579 0.0061106990418657876 0 0 0
1580 1 45.94500780032785 11.49476115976458 0.006110699041864238 0 0 0
1452 1 49.00800780032783 6.189489536180577 0.006110699041848528 0 0 0
1324 1 52.07100780032783 6.189489536180569 0.006110699041860021 -1 0 0
1581 4 49.00803795346455 7.957879177831097 1.0567365141335536 0 0 0
1453 4 52.071037953464554 7.9578791778311055 1.056736514133542 -1 0 0
1455 1 50.53950780032784 8.842125347972582 0.00611069904186086 -1 0 0
1454 4 50.53953795346456 10.610514989623091 1.056736514133542 -1 0 0
1584 1 49.00800780032783 11.494761159764588 0.006110699041853564 0 0 0
1456 1 52.07100780032783 11.494761159764579 0.006110699041865029 -1 0 0
1328 1 55.13400780032782 6.189489536180574 0.006110699041854256 -1 0 0
1332 1 58.197007800327825 6.189489536180569 0.006110699041860021 -1 0 0
1457 4 55.13403795346454 7.957879177831101 1.0567365141335479 -1 0 0
1461 4 58.19703795346455 7.9578791778311055 1.056736514133542 -1 0 0
1459 1 53.60250780032783 8.842125347972578 0.006110699041865832 -1 0 0
1463 1 56.66550780032784 8.842125347972582 0.006110699041860076 -1 0 0
1458 4 53.60253795346455 10.610514989623097 1.0567365141335372 -1 0 0
1462 4 56.66553795346456 10.610514989623091 1.0567365141335427 -1 0 0
1460 1 55.13400780032782 11.494761159764584 0.006110699041859279 -1 0 0
1464 1 58.197007800327825 11.494761159764579 0.006110699041865031 -1 0 0
1336 1 61.26000780032783 6.189489536180569 0.00611069904186002 -1 0 0
1340 1 64.32300780032784 6.189489536180569 0.006110699041859953 -1 0 0
1465 4 61.26003795346455 7.9578791778311055 1.056736514133542 -1 0 0
1469 4 64.32303795346456 7.9578791778311055 1.056736514133542 -1 0 0
1467 1 59.728507800327826 8.842125347972578 0.006110699041865064 -1 0 0
1471 1 62.79150780032782 8.842125347972583 0.0061106990418593075 -1 0 0
1466 4 59.72853795346455 10.610514989623095 1.0567365141335379 -1 0 0
1470 4 62.79153795346454 10.610514989623091 1.0567365141335436 -1 0 0
1468 1 61.26000780032783 11.494761159764579 0.006110699041865029 -1 0 0
1472 1 64.32300780032784 11.494761159764579 0.006110699041865003 -1 0 0
1344 1 67.38600780032783 6.189489536180578 0.00611069904184776 -1 0 0
1348 1 70.4490078003278 6.189489536180569 0.006110699041859185 -1 0 0
1473 4 67.38603795346455 7.957879177831096 1.0567365141335543 -1 0 0
1477 4 70.44903795346453 7.957879177831105 1.056736514133543 -1 0 0
1475 1 65.85450780032781 8.842125347972578 0.006110699041866577 -1 0 0
1479 1 68.91750780032784 8.842125347972578 0.006110699041866577 -1 0 0
1474 4 65.85453795346453 10.610514989623097 1.0567365141335363 -1 0 0
1478 4 68.91753795346456 10.610514989623097 1.0567365141335363 -1 0 0
1476 1 67.38600780032783 11.49476115976459 0.006110699041852797 -1 0 0
1480 1 70.4490078003278 11.49476115976458 0.006110699041864235 -1 0 0
1352 1 73.51200780032781 6.189489536180568 0.006110699041860738 -1 0 0
1356 1 76.57500780032784 6.189489536180569 0.006110699041859189 -1 0 0
1481 4 73.51203795346453 7.957879177831106 1.0567365141335414 -1 0 0
1485 4 76.57503795346456 7.957879177831105 1.056736514133543 -1 0 0
1483 1 71.98050780032784 8.842125347972578 0.006110699041865024 -1 0 0
1487 1 75.04350780032783 8.842125347972587 0.006110699041853589 -1 0 0
1482 4 71.98053795346456 10.610514989623095 1.0567365141335379 -1 0 0
1486 4 75.04353795346455 10.610514989623086 1.0567365141335494 -1 0 0
1484 1 73.51200780032781 11.494761159764579 0.006110699041865789 -1 0 0
1488 1 76.57500780032784 11.49476115976458 0.006110699041864241 -1 0 0
1360 1 79.63800780032781 6.189489536180569 0.0061106990418591895 -1 0 0
1364 1 82.70100780032783 6.189489536180577 0.006110699041849313 -1 0 0
1489 4 79.63803795346453 7.957879177831105 1.056736514133543 -1 0 0
1493 4 82.70103795346455 7.9578791778310976 1.0567365141335527 -1 0 0
1491 1 78.10650780032783 8.84212534797257 0.006110699041876469 -1 0 0
1495 1 81.16950780032782 8.842125347972585 0.006110699041855142 -1 0 0
1490 4 78.10653795346455 10.610514989623104 1.0567365141335263 -1 0 0
1494 4 81.16953795346456 10.610514989623088 1.0567365141335479 -1 0 0
1492 1 79.63800780032781 11.49476115976458 0.006110699041864244 -1 0 0
1496 1 82.70100780032783 11.494761159764588 0.00611069904185435 -1 0 0
1368 1 85.76400780032783 6.189489536180561 0.006110699041870619 -1 0 0
1372 1 88.82700780032782 6.189489536180577 0.00611069904184931 -1 0 0
1497 4 85.76403795346455 7.9578791778311135 1.0567365141335314 -1 0 0
1501 4 88.82703795346455 7.9578791778310976 1.0567365141335527 -1 0 0
1499 1 84.23250780032784 8.842125347972578 0.006110699041865029 -1 0 0
1503 1 87.29550780032781 8.842125347972578 0.006110699041865029 -1 0 0
1498 4 84.23253795346456 10.610514989623095 1.0567365141335379 -1 0 0
1502 4 87.29553795346453 10.610514989623095 1.0567365141335379 -1 0 0
1500 1 85.76400780032783 11.494761159764572 0.006110699041875684 -1 0 0
1504 1 88.82700780032782 11.494761159764588 0.006110699041854345 -1 0 0
1376 1 91.89000780032784 6.189489536180569 0.006110699041859191 -1 0 0
1380 1 94.95300780032781 6.189489536180569 0.00611069904185919 -1 0 0
1505 4 91.89003795346456 7.957879177831105 1.056736514133543 -1 0 0
1509 4 94.95303795346453 7.957879177831105 1.056736514133543 -1 0 0
1507 1 90.35850780032783 8.842125347972585 0.006110699041855142 -1 0 0
1511 1 93.42150780032783 8.84212534797257 0.006110699041876469 -1 0 0
1506 4 90.35853795346455 10.610514989623088 1.0567365141335479 -1 0 0
1510 4 93.42153795346455 10.610514989623104 1.0567365141335265 -1 0 0
1508 1 91.89000780032784 11.49476115976458 0.006110699041864244 -1 0 0
1512 1 94.95300780032781 11.49476115976458 0.006110699041864242 -1 0 0
1384 1 98.01600780032784 6.189489536180568 0.006110699041860738 -1 0 0
1513 4 98.01603795346456 7.957879177831106 1.0567365141335414 -1 0 0
1515 1 96.48450780032783 8.842125347972587 0.006110699041853589 -1 0 0
1519 1 99.5475078003278 8.842125347972578 0.006110699041865791 -1 0 0
1514 4 96.48453795346455 10.610514989623086 1.0567365141335494 -1 0 0
1518 4 99.54753795346453 10.610514989623097 1.0567365141335372 -1 0 0
1516 1 98.01600780032784 11.494761159764579 0.006110699041865789 -1 0 0
1655 1 1.5315078003278322 14.147396971556569 0.0061106990418600205 0 0 0
1649 4 3.7953464563076803e-05 13.263150801415092 1.0567365141335427 0 0 0
1653 4 3.0630379534645553 13.263150801415097 1.056736514133537 0 0 0
1659 1 4.5945078003278335 14.14739697155657 0.006110699041859259 0 0 0
1654 4 1.531537953464555 15.915786613207105 1.0567365141335414 0 0 0
1658 4 4.594537953464557 15.915786613207105 1.056736514133542 0 0 0
1652 1 7.800327840130656e-06 16.80003278334857 0.006110699041854284 0 0 0
1656 1 3.0630078003278323 16.800032783348566 0.006110699041860055 0 0 0
1657 4 6.126037953464556 13.263150801415097 1.0567365141335363 0 0 0
1663 1 7.657507800327825 14.147396971556574 0.006110699041854258 0 0 0
1661 4 9.189037953464563 13.263150801415092 1.056736514133542 0 0 0
1667 1 10.720507800327832 14.147396971556569 0.006110699041860789 0 0 0
1662 4 7.657537953464548 15.9157866132071 1.0567365141335472 0 0 0
1666 4 10.720537953464554 15.915786613207105 1.0567365141335405 0 0 0
1660 1 6.126007800327834 16.800032783348566 0.0061106990418608245 0 0 0
1664 1 9.189007800327841 16.80003278334857 0.006110699041855049 0 0 0
1665 4 12.252037953464546 13.263150801415092 1.0567365141335427 0 0 0
1671 1 13.783507800327847 14.147396971556569 0.006110699041859955 0 0 0
1669 4 15.315037953464538 13.263150801415097 1.0567365141335372 0 0 0
1675 1 16.84650780032785 14.14739697155657 0.006110699041859185 0 0 0
1670 4 13.78353795346457 15.915786613207105 1.0567365141335414 0 0 0
1674 4 16.846537953464573 15.915786613207104 1.056736514133542 0 0 0
1668 1 12.252007800327823 16.80003278334857 0.006110699041854286 0 0 0
1672 1 15.315007800327814 16.800032783348566 0.006110699041859974 0 0 0
1673 4 18.37803795346454 13.263150801415097 1.0567365141335372 0 0 0
1679 1 19.90950780032785 14.14739697155657 0.006110699041859187 0 0 0
1677 4 21.44103795346454 13.263150801415097 1.0567365141335356 0 0 0
1683 1 22.972507800327833 14.14739697155658 0.006110699041847763 0 0 0
1678 4 19.909537953464575 15.915786613207104 1.056736514133542 0 0 0
1682 4 22.972537953464556 15.915786613207096 1.0567365141335536 0 0 0
1676 1 18.37800780032782 16.800032783348566 0.00611069904185997 0 0 0
1680 1 21.441007800327817 16.800032783348566 0.006110699041861527 0 0 0
1681 4 24.50403795346457 13.263150801415097 1.0567365141335356 0 0 0
1687 1 26.035507800327817 14.14739697155657 0.0061106990418591895 0 0 0
1685 4 27.567037953464574 13.263150801415097 1.0567365141335372 0 0 0
1691 1 29.098507800327816 14.147396971556569 0.0061106990418607395 0 0 0
1686 4 26.035537953464537 15.915786613207104 1.056736514133542 0 0 0
1690 4 29.09853795346454 15.915786613207105 1.0567365141335405 0 0 0
1684 1 24.504007800327848 16.800032783348566 0.006110699041861525 0 0 0
1688 1 27.56700780032785 16.800032783348566 0.006110699041859972 0 0 0
1689 4 30.630037953464555 13.263150801415089 1.0567365141335485 0 0 0
1695 1 32.16150780032785 14.147396971556569 0.00611069904186074 0 0 0
1699 1 35.22450780032785 14.14739697155657 0.006110699041859188 0 0 0
1693 4 33.69303795346454 13.263150801415097 1.0567365141335372 0 0 0
1694 4 32.161537953464574 15.915786613207105 1.0567365141335405 0 0 0
1698 4 35.22453795346457 15.915786613207104 1.056736514133542 0 0 0
1692 1 30.63000780032783 16.800032783348577 0.006110699041848551 0 0 0
1696 1 33.69300780032781 16.800032783348566 0.006110699041859975 0 0 0
1697 4 36.75603795346454 13.263150801415097 1.0567365141335372 0 0 0
1703 1 38.28750780032785 14.14739697155657 0.0061106990418591895 0 0 0
1701 4 39.81903795346454 13.263150801415097 1.0567365141335356 0 0 0
1707 1 41.35050780032783 14.14739697155658 0.00611069904184776 0 0 0
1702 4 38.28753795346457 15.915786613207104 1.056736514133542 0 0 0
1706 4 41.35053795346456 15.915786613207096 1.0567365141335536 0 0 0
1700 1 36.756007800327815 16.800032783348566 0.006110699041859976 0 0 0
1704 1 39.81900780032782 16.800032783348566 0.006110699041861526 0 0 0
1705 4 42.882037953464575 13.263150801415097 1.0567365141335356 0 0 0
1711 1 44.413507800327814 14.14739697155657 0.006110699041859186 0 0 0
1709 4 45.94503795346457 13.263150801415097 1.0567365141335372 0 0 0
1715 1 47.476507800327816 14.147396971556569 0.0061106990418607395 0 0 0
1710 4 44.41353795346454 15.915786613207104 1.056736514133542 0 0 0
1714 4 47.476537953464536 15.915786613207105 1.0567365141335405 0 0 0
1708 1 42.88200780032785 16.800032783348566 0.006110699041861523 0 0 0
1712 1 45.94500780032785 16.800032783348566 0.006110699041859973 0 0 0
1713 4 49.00803795346455 13.263150801415089 1.0567365141335479 0 0 0
1587 1 50.53950780032784 14.147396971556573 0.006110699041855042 -1 0 0
1585 4 52.071037953464554 13.263150801415097 1.0567365141335363 -1 0 0
1586 4 50.53953795346456 15.915786613207102 1.0567365141335463 -1 0 0
1716 1 49.00800780032783 16.800032783348573 0.006110699041849319 0 0 0
1588 1 52.07100780032783 16.800032783348566 0.006110699041860823 -1 0 0
1591 1 53.60250780032783 14.147396971556569 0.006110699041860024 -1 0 0
1589 4 55.13403795346454 13.263150801415092 1.056736514133542 -1 0 0
1595 1 56.66550780032784 14.147396971556574 0.006110699041854258 -1 0 0
1593 4 58.19703795346455 13.263150801415097 1.0567365141335363 -1 0 0
1590 4 53.60253795346455 15.915786613207105 1.0567365141335414 -1 0 0
1594 4 56.66553795346456 15.9157866132071 1.0567365141335472 -1 0 0
1592 1 55.13400780032782 16.80003278334857 0.006110699041855053 -1 0 0
1596 1 58.197007800327825 16.800032783348566 0.006110699041860822 -1 0 0
1599 1 59.728507800327826 14.14739697155657 0.0061106990418592555 -1 0 0
1597 4 61.26003795346455 13.263150801415097 1.0567365141335363 -1 0 0
1603 1 62.79150780032782 14.147396971556574 0.006110699041853488 -1 0 0
1601 4 64.32303795346456 13.263150801415097 1.0567365141335363 -1 0 0
1598 4 59.72853795346455 15.915786613207105 1.056736514133542 -1 0 0
1602 4 62.79153795346454 15.9157866132071 1.0567365141335479 -1 0 0
1600 1 61.26000780032783 16.800032783348566 0.00611069904186082 -1 0 0
1604 1 64.32300780032784 16.800032783348566 0.006110699041860739 -1 0 0
1607 1 65.85450780032781 14.147396971556569 0.006110699041860739 -1 0 0
1611 1 68.91750780032784 14.147396971556569 0.0061106990418607395 -1 0 0
1605 4 67.38603795346455 13.263150801415089 1.0567365141335485 -1 0 0
1609 4 70.44903795346453 13.263150801415097 1.0567365141335372 -1 0 0
1606 4 65.85453795346453 15.915786613207105 1.0567365141335405 -1 0 0
1610 4 68.91753795346456 15.915786613207105 1.0567365141335405 -1 0 0
1608 1 67.38600780032783 16.800032783348577 0.006110699041848551 -1 0 0
1612 1 70.4490078003278 16.800032783348566 0.006110699041859973 -1 0 0
1615 1 71.98050780032784 14.14739697155657 0.006110699041859188 -1 0 0
1613 4 73.51203795346453 13.263150801415097 1.0567365141335356 -1 0 0
1619 1 75.04350780032783 14.14739697155658 0.006110699041847763 -1 0 0
1617 4 76.57503795346456 13.263150801415097 1.0567365141335372 -1 0 0
1614 4 71.98053795346456 15.915786613207104 1.056736514133542 -1 0 0
1618 4 75.04353795346455 15.915786613207096 1.0567365141335536 -1 0 0
1616 1 73.51200780032781 16.800032783348566 0.006110699041861526 -1 0 0
1620 1 76.57500780032784 16.800032783348566 0.006110699041859977 -1 0 0
1623 1 78.10650780032783 14.147396971556562 0.006110699041870621 -1 0 0
1621 4 79.63803795346453 13.263150801415097 1.0567365141335372 -1 0 0
1627 1 81.16950780032782 14.147396971556578 0.006110699041849314 -1 0 0
1625 4 82.70103795346455 13.263150801415089 1.056736514133547 -1 0 0
1622 4 78.10653795346455 15.915786613207112 1.0567365141335308 -1 0 0
1626 4 81.16953795346456 15.915786613207096 1.056736514133552 -1 0 0
1624 1 79.63800780032781 16.800032783348566 0.006110699041859978 -1 0 0
1628 1 82.70100780032783 16.800032783348573 0.006110699041850104 -1 0 0
1631 1 84.23250780032784 14.14739697155657 0.006110699041859191 -1 0 0
1629 4 85.76403795346455 13.263150801415104 1.0567365141335257 -1 0 0
1635 1 87.29550780032781 14.14739697155657 0.00611069904185919 -1 0 0
1633 4 88.82703795346455 13.263150801415089 1.056736514133547 -1 0 0
1630 4 84.23253795346456 15.915786613207104 1.056736514133542 -1 0 0
1634 4 87.29553795346453 15.915786613207104 1.056736514133542 -1 0 0
1632 1 85.76400780032783 16.80003278334856 0.006110699041871403 -1 0 0
1636 1 88.82700780032782 16.800032783348573 0.006110699041850102 -1 0 0
1639 1 90.35850780032783 14.147396971556578 0.006110699041849314 -1 0 0
1637 4 91.89003795346456 13.263150801415097 1.0567365141335372 -1 0 0
1643 1 93.42150780032783 14.147396971556562 0.006110699041870625 -1 0 0
1641 4 94.95303795346453 13.263150801415097 1.0567365141335372 -1 0 0
1638 4 90.35853795346455 15.915786613207096 1.056736514133552 -1 0 0
1642 4 93.42153795346455 15.915786613207112 1.0567365141335308 -1 0 0
1640 1 91.89000780032784 16.800032783348566 0.006110699041859978 -1 0 0
1644 1 94.95300780032781 16.800032783348566 0.006110699041859978 -1 0 0