LAMMPS data file via write_data, version 29 Aug 2024, timestep = 7, units = metal

6750 atoms
9 atom types

0 99.428451760875 xlo xhi
0 103.32907810065 ylo yhi
-50 50 zlo zhi

Masses

1 178.49
2 178.49
3 178.49
4 127.6
5 127.6
6 127.6
7 127.6
8 127.6
9 127.6

Atoms # atomic

1128 5 0.05673428402272695 2.237884788533603 -0.12425620825624113 0 0 0
1279 1 2.0485222795901867 3.3826372677549092 1.5816574522963738 0 0 0
1134 5 4.0338723544577215 2.237884788533614 -0.12425620825623607 0 0 0
1283 5 2.0453033192397574 5.68218739188861 -0.1242562082562231 0 0 0
1285 1 6.025660350025182 3.3826372677549204 1.5816574522963627 0 0 0
1140 5 8.011010424892726 2.237884788533616 -0.12425620825623052 0 0 0
1291 1 10.00279842046018 3.382637267754911 1.5816574522963567 0 0 0
1289 5 6.02244138967476 5.6821873918886014 -0.1242562082562285 0 0 0
1295 5 9.999579460109757 5.682187391888607 -0.124256208256224 0 0 0
1146 5 11.98814849532773 2.2378847885336155 -0.12425620825623745 0 0 0
1297 1 13.97993649089519 3.3826372677549146 1.5816574522963582 0 0 0
1152 5 15.965286565762723 2.237884788533609 -0.12425620825623769 0 0 0
1301 5 13.976717530544756 5.682187391888604 -0.12425620825622152 0 0 0
1303 1 17.957074561330188 3.38263726775491 1.5816574522963665 0 0 0
1158 5 19.94242463619772 2.237884788533607 -0.12425620825623439 0 0 0
1309 1 21.93421263176518 3.3826372677549106 1.5816574522963573 0 0 0
1307 5 17.953855600979757 5.682187391888606 -0.12425620825622913 0 0 0
1313 5 21.930993671414754 5.682187391888604 -0.12425620825622989 0 0 0
1164 5 23.919562706632725 2.2378847885336075 -0.12425620825622509 0 0 0
1315 1 25.911350702200174 3.382637267754912 1.581657452296359 0 0 0
1170 5 27.89670077706772 2.2378847885336213 -0.1242562082562351 0 0 0
1319 5 25.908131741849758 5.682187391888602 -0.1242562082562233 0 0 0
1321 1 29.888488772635185 3.3826372677549092 1.5816574522963565 0 0 0
1176 5 31.87383884750273 2.2378847885336115 -0.12425620825623965 0 0 0
1327 1 33.86562684307018 3.3826372677549132 1.5816574522963538 0 0 0
1325 5 29.885269812284754 5.682187391888606 -0.12425620825622308 0 0 0
1331 5 33.86240788271975 5.682187391888601 -0.12425620825622968 0 0 0
1182 5 35.85097691793773 2.237884788533616 -0.12425620825622966 0 0 0
1333 1 37.84276491350517 3.382637267754911 1.5816574522963534 0 0 0
1188 5 39.82811498837274 2.237884788533605 -0.12425620825622286 0 0 0
1337 5 37.839545953154754 5.682187391888606 -0.12425620825622263 0 0 0
1339 1 41.81990298394017 3.3826372677549066 1.5816574522963713 0 0 0
1194 5 43.80525305880773 2.2378847885336204 -0.1242562082562488 0 0 0
1345 1 45.79704105437519 3.3826372677549132 1.5816574522963633 0 0 0
1343 5 41.816684023589765 5.682187391888605 -0.12425620825622623 0 0 0
1349 5 45.79382209402476 5.6821873918886086 -0.1242562082562226 0 0 0
1200 5 47.78239112924274 2.237884788533616 -0.12425620825623451 0 0 0
1201 1 49.77417912481018 3.382637267754914 1.5816574522963556 -1 0 0
1056 5 51.75952919967773 2.2378847885336164 -0.12425620825623018 -1 0 0
1205 5 49.77096016445976 5.682187391888601 -0.12425620825622115 -1 0 0
1207 1 53.75131719524517 3.3826372677549177 1.5816574522963693 -1 0 0
1062 5 55.736667270112726 2.237884788533616 -0.12425620825623529 -1 0 0
1213 1 57.728455265680196 3.382637267754916 1.5816574522963633 -1 0 0
1211 5 53.74809823489475 5.682187391888608 -0.12425620825622705 -1 0 0
1217 5 57.72523630532975 5.682187391888613 -0.1242562082562223 -1 0 0
1068 5 59.71380534054772 2.237884788533612 -0.1242562082562402 -1 0 0
1219 1 61.70559333611518 3.382637267754913 1.581657452296357 -1 0 0
1074 5 63.690943410982726 2.237884788533609 -0.12425620825623349 -1 0 0
1223 5 61.70237437576476 5.682187391888608 -0.12425620825622308 -1 0 0
1080 5 67.66808148141773 2.2378847885336146 -0.12425620825622984 -1 0 0
1225 1 65.68273140655019 3.382637267754926 1.5816574522963487 -1 0 0
1231 1 69.6598694769852 3.3826372677549115 1.5816574522963764 -1 0 0
1229 5 65.67951244619975 5.682187391888602 -0.12425620825621791 -1 0 0
1235 5 69.65665051663476 5.682187391888606 -0.12425620825622269 -1 0 0
1086 5 71.64521955185273 2.237884788533615 -0.12425620825622265 -1 0 0
1237 1 73.63700754742018 3.3826372677549186 1.5816574522963585 -1 0 0
1092 5 75.62235762228772 2.2378847885336115 -0.12425620825624 -1 0 0
1241 5 73.63378858706976 5.6821873918886014 -0.12425620825622594 -1 0 0
1243 1 77.61414561785519 3.3826372677549057 1.5816574522963696 -1 0 0
1098 5 79.59949569272274 2.237884788533622 -0.12425620825622238 -1 0 0
1249 1 81.59128368829016 3.38263726775491 1.5816574522963576 -1 0 0
1247 5 77.61092665750473 5.682187391888604 -0.12425620825624019 -1 0 0
1253 5 81.58806472793975 5.682187391888607 -0.12425620825621844 -1 0 0
1104 5 83.57663376315774 2.23788478853361 -0.124256208256227 -1 0 0
1255 1 85.56842175872517 3.3826372677549177 1.5816574522963358 -1 0 0
1110 5 87.55377183359273 2.2378847885336004 -0.12425620825624949 -1 0 0
1259 5 85.56520279837476 5.682187391888606 -0.12425620825622118 -1 0 0
1261 1 89.54555982916018 3.3826372677549013 1.5816574522963773 -1 0 0
1116 5 91.53090990402772 2.2378847885336173 -0.12425620825623632 -1 0 0
1267 1 93.52269789959519 3.3826372677549177 1.5816574522963593 -1 0 0
1265 5 89.54234086880975 5.682187391888607 -0.12425620825621807 -1 0 0
1271 5 93.51947893924475 5.682187391888605 -0.1242562082562287 -1 0 0
1122 5 95.50804797446273 2.237884788533606 -0.12425620825623153 -1 0 0
1273 1 97.49983597003019 3.3826372677549097 1.581657452296349 -1 0 0
1277 5 97.49661700967977 5.68218739188861 -0.12425620825622977 -1 0 0
1274 1 0.05995324437258182 6.826939871109905 1.5816574522963378 0 0 0
1280 1 4.037091314807575 6.826939871109891 1.5816574522963487 0 0 0
1278 5 0.056734284022725144 9.1264899952436 -0.12425620825623515 0 0 0
1429 1 2.0485222795901765 10.271242474464907 1.5816574522963776 0 0 0
1284 5 4.033872354457726 9.126489995243606 -0.1242562082562421 0 0 0
1286 1 8.014229385242578 6.826939871109892 1.5816574522963418 0 0 0
1435 1 6.025660350025179 10.271242474464916 1.5816574522963687 0 0 0
1290 5 8.011010424892728 9.126489995243604 -0.1242562082562385 0 0 0
1441 1 10.002798420460175 10.271242474464911 1.581657452296364 0 0 0
1292 1 11.991367455677572 6.826939871109895 1.5816574522963398 0 0 0
1298 1 15.96850552611257 6.826939871109895 1.5816574522963476 0 0 0
1296 5 11.988148495327732 9.126489995243604 -0.12425620825623909 0 0 0
1447 1 13.97993649089518 10.271242474464916 1.581657452296357 0 0 0
1302 5 15.965286565762723 9.126489995243604 -0.12425620825623993 0 0 0
1304 1 19.94564359654758 6.826939871109895 1.581657452296353 0 0 0
1453 1 17.95707456133018 10.271242474464914 1.5816574522963653 0 0 0
1308 5 19.942424636197725 9.126489995243608 -0.12425620825624194 0 0 0
1459 1 21.934212631765185 10.271242474464914 1.5816574522963713 0 0 0
1310 1 23.92278166698258 6.826939871109894 1.5816574522963498 0 0 0
1316 1 27.89991973741758 6.826939871109897 1.581657452296347 0 0 0
1314 5 23.91956270663273 9.126489995243608 -0.12425620825623428 0 0 0
1465 1 25.91135070220017 10.271242474464916 1.5816574522963613 0 0 0
1320 5 27.896700777067725 9.126489995243606 -0.12425620825623516 0 0 0
1322 1 31.87705780785257 6.826939871109894 1.5816574522963498 0 0 0
1471 1 29.88848877263518 10.271242474464914 1.5816574522963651 0 0 0
1326 5 31.873838847502725 9.126489995243602 -0.12425620825624387 0 0 0
1477 1 33.865626843070174 10.271242474464913 1.5816574522963585 0 0 0
1328 1 35.85419587828759 6.826939871109895 1.5816574522963396 0 0 0
1334 1 39.831333948722595 6.826939871109898 1.5816574522963431 0 0 0
1332 5 35.85097691793773 9.126489995243611 -0.12425620825623468 0 0 0
1483 1 37.84276491350517 10.271242474464916 1.5816574522963642 0 0 0
1338 5 39.82811498837274 9.126489995243606 -0.12425620825623093 0 0 0
1340 1 43.808472019157584 6.826939871109892 1.5816574522963636 0 0 0
1489 1 41.819902983940175 10.271242474464911 1.5816574522963665 0 0 0
1344 5 43.80525305880773 9.126489995243606 -0.12425620825624764 0 0 0
1495 1 45.79704105437519 10.271242474464913 1.581657452296369 0 0 0
1346 1 47.78561008959257 6.826939871109898 1.5816574522963445 0 0 0
1202 1 51.76274816002758 6.826939871109896 1.5816574522963425 -1 0 0
1350 5 47.78239112924274 9.126489995243602 -0.1242562082562347 0 0 0
1351 1 49.774179124810175 10.271242474464914 1.5816574522963582 -1 0 0
1206 5 51.75952919967772 9.126489995243608 -0.12425620825623818 -1 0 0
1208 1 55.73988623046258 6.826939871109894 1.5816574522963651 -1 0 0
1357 1 53.75131719524517 10.271242474464914 1.5816574522963698 -1 0 0
1212 5 55.73666727011273 9.126489995243611 -0.12425620825624265 -1 0 0
1363 1 57.728455265680175 10.271242474464918 1.5816574522963807 -1 0 0
1214 1 59.71702430089757 6.826939871109896 1.5816574522963467 -1 0 0
1220 1 63.69416237133258 6.826939871109898 1.581657452296323 -1 0 0
1218 5 59.71380534054773 9.126489995243597 -0.12425620825623643 -1 0 0
1369 1 61.70559333611517 10.271242474464913 1.5816574522963527 -1 0 0
1224 5 63.690943410982726 9.126489995243604 -0.12425620825624538 -1 0 0
1226 1 67.6713004417676 6.8269398711098885 1.58165745229635 -1 0 0
1230 5 67.66808148141774 9.126489995243611 -0.12425620825623648 -1 0 0
1375 1 65.68273140655019 10.271242474464923 1.5816574522963753 -1 0 0
1381 1 69.6598694769852 10.271242474464911 1.5816574522963813 -1 0 0
1232 1 71.6484385122026 6.826939871109894 1.5816574522963467 -1 0 0
1238 1 75.62557658263759 6.82693987110989 1.5816574522963425 -1 0 0
1236 5 71.64521955185273 9.12648999524361 -0.1242562082562319 -1 0 0
1387 1 73.63700754742017 10.271242474464918 1.5816574522963625 -1 0 0
1242 5 75.62235762228774 9.1264899952436 -0.12425620825624245 -1 0 0
1244 1 79.60271465307258 6.826939871109894 1.5816574522963545 -1 0 0
1393 1 77.61414561785517 10.271242474464914 1.5816574522963696 -1 0 0
1248 5 79.59949569272273 9.12648999524361 -0.12425620825622695 -1 0 0
1399 1 81.59128368829016 10.271242474464914 1.5816574522963704 -1 0 0
1250 1 83.5798527235076 6.826939871109898 1.581657452296344 -1 0 0
1256 1 87.5569907939426 6.826939871109892 1.5816574522963496 -1 0 0
1254 5 83.57663376315774 9.126489995243608 -0.12425620825624661 -1 0 0
1405 1 85.56842175872518 10.271242474464913 1.5816574522963502 -1 0 0
1260 5 87.55377183359275 9.126489995243599 -0.1242562082562457 -1 0 0
1262 1 91.53412886437758 6.826939871109894 1.581657452296356 -1 0 0
1411 1 89.54555982916018 10.271242474464911 1.5816574522963764 -1 0 0
1266 5 91.53090990402772 9.126489995243611 -0.12425620825623662 -1 0 0
1417 1 93.52269789959517 10.271242474464907 1.581657452296364 -1 0 0
1268 1 95.51126693481257 6.826939871109891 1.5816574522963627 -1 0 0
1272 5 95.50804797446271 9.126489995243608 -0.12425620825624994 -1 0 0
1423 1 97.49983597003018 10.271242474464923 1.5816574522963471 -1 0 0
1433 5 2.045303319239764 12.570792598598612 -0.12425620825623615 0 0 0
1424 1 0.059953244372577444 13.715545077819895 1.5816574522963576 0 0 0
1430 1 4.037091314807575 13.715545077819892 1.5816574522963536 0 0 0
1428 5 0.056734284022725394 16.01509520195361 -0.12425620825623832 0 0 0
1434 5 4.033872354457728 16.01509520195361 -0.12425620825623096 0 0 0
1579 1 2.048522279590183 17.159847681174902 1.5816574522963787 0 0 0
1439 5 6.022441389674763 12.570792598598606 -0.12425620825623052 0 0 0
1445 5 9.999579460109757 12.57079259859861 -0.1242562082562271 0 0 0
1436 1 8.014229385242578 13.715545077819892 1.5816574522963394 0 0 0
1440 5 8.011010424892726 16.01509520195361 -0.12425620825623299 0 0 0
1585 1 6.0256603500251815 17.15984768117491 1.5816574522963631 0 0 0
1591 1 10.002798420460175 17.159847681174906 1.581657452296373 0 0 0
1451 5 13.976717530544759 12.57079259859861 -0.12425620825622023 0 0 0
1442 1 11.991367455677574 13.715545077819893 1.581657452296342 0 0 0
1448 1 15.968505526112569 13.715545077819895 1.581657452296329 0 0 0
1446 5 11.988148495327732 16.01509520195361 -0.12425620825623548 0 0 0
1452 5 15.965286565762723 16.015095201953606 -0.12425620825622957 0 0 0
1597 1 13.979936490895183 17.159847681174917 1.5816574522963602 0 0 0
1457 5 17.953855600979757 12.57079259859861 -0.12425620825622788 0 0 0
1463 5 21.930993671414758 12.570792598598608 -0.12425620825623039 0 0 0
1454 1 19.94564359654758 13.715545077819893 1.5816574522963502 0 0 0
1458 5 19.94242463619772 16.01509520195361 -0.12425620825623736 0 0 0
1603 1 17.957074561330185 17.15984768117491 1.5816574522963691 0 0 0
1609 1 21.93421263176518 17.159847681174913 1.5816574522963727 0 0 0
1469 5 25.908131741849754 12.570792598598606 -0.12425620825622416 0 0 0
1460 1 23.92278166698258 13.715545077819897 1.5816574522963402 0 0 0
1466 1 27.899919737417587 13.715545077819893 1.5816574522963371 0 0 0
1464 5 23.919562706632732 16.01509520195361 -0.12425620825623113 0 0 0
1470 5 27.896700777067725 16.015095201953613 -0.1242562082562309 0 0 0
1615 1 25.911350702200167 17.159847681174913 1.5816574522963742 0 0 0
1475 5 29.88526981228475 12.570792598598613 -0.12425620825622455 0 0 0
1481 5 33.86240788271975 12.570792598598606 -0.12425620825622852 0 0 0
1472 1 31.87705780785257 13.715545077819893 1.581657452296338 0 0 0
1476 5 31.873838847502725 16.015095201953603 -0.12425620825623551 0 0 0
1621 1 29.888488772635178 17.15984768117491 1.581657452296366 0 0 0
1627 1 33.865626843070174 17.15984768117492 1.5816574522963682 0 0 0
1487 5 37.839545953154754 12.570792598598612 -0.12425620825622156 0 0 0
1478 1 35.854195878287584 13.715545077819893 1.5816574522963356 0 0 0
1484 1 39.83133394872259 13.715545077819899 1.5816574522963402 0 0 0
1482 5 35.85097691793773 16.01509520195361 -0.12425620825623533 0 0 0
1488 5 39.82811498837274 16.01509520195361 -0.12425620825622996 0 0 0
1633 1 37.84276491350518 17.159847681174917 1.5816574522963738 0 0 0
1493 5 41.816684023589765 12.57079259859861 -0.1242562082562238 0 0 0
1499 5 45.79382209402476 12.570792598598617 -0.12425620825622807 0 0 0
1490 1 43.80847201915758 13.715545077819892 1.581657452296352 0 0 0
1494 5 43.80525305880773 16.01509520195361 -0.12425620825623737 0 0 0
1639 1 41.81990298394018 17.15984768117491 1.5816574522963767 0 0 0
1645 1 45.797041054375185 17.159847681174913 1.5816574522963753 0 0 0
1355 5 49.77096016445976 12.570792598598604 -0.12425620825622302 -1 0 0
1496 1 47.78561008959257 13.715545077819899 1.581657452296346 0 0 0
1352 1 51.76274816002758 13.715545077819899 1.581657452296335 -1 0 0
1500 5 47.78239112924274 16.015095201953603 -0.12425620825622852 0 0 0
1356 5 51.75952919967772 16.015095201953606 -0.12425620825622975 -1 0 0
1501 1 49.77417912481018 17.159847681174917 1.581657452296362 -1 0 0
1361 5 53.74809823489475 12.570792598598608 -0.12425620825622857 -1 0 0
1367 5 57.72523630532975 12.570792598598619 -0.12425620825621807 -1 0 0
1358 1 55.73988623046258 13.715545077819892 1.5816574522963465 -1 0 0
1362 5 55.736667270112726 16.01509520195361 -0.12425620825623475 -1 0 0
1507 1 53.75131719524518 17.159847681174913 1.5816574522963769 -1 0 0
1513 1 57.72845526568019 17.159847681174913 1.5816574522963838 -1 0 0
1373 5 61.70237437576476 12.57079259859861 -0.12425620825622254 -1 0 0
1364 1 59.71702430089758 13.715545077819895 1.5816574522963442 -1 0 0
1370 1 63.69416237133258 13.715545077819893 1.5816574522963205 -1 0 0
1368 5 59.71380534054772 16.015095201953606 -0.1242562082562333 -1 0 0
1374 5 63.690943410982726 16.01509520195361 -0.12425620825623723 -1 0 0
1519 1 61.70559333611518 17.159847681174913 1.5816574522963656 -1 0 0
1379 5 65.67951244619975 12.570792598598608 -0.12425620825622237 -1 0 0
1385 5 69.65665051663476 12.57079259859861 -0.12425620825622431 -1 0 0
1376 1 67.6713004417676 13.71554507781989 1.5816574522963427 -1 0 0
1380 5 67.66808148141774 16.015095201953613 -0.12425620825622716 -1 0 0
1525 1 65.68273140655019 17.15984768117492 1.5816574522963638 -1 0 0
1531 1 69.6598694769852 17.15984768117491 1.581657452296388 -1 0 0
1391 5 73.63378858706976 12.570792598598604 -0.12425620825623425 -1 0 0
1382 1 71.6484385122026 13.715545077819893 1.581657452296342 -1 0 0
1388 1 75.62557658263759 13.715545077819892 1.5816574522963416 -1 0 0
1386 5 71.64521955185273 16.015095201953613 -0.12425620825622753 -1 0 0
1392 5 75.62235762228772 16.015095201953606 -0.12425620825623677 -1 0 0
1537 1 73.63700754742017 17.159847681174913 1.5816574522963676 -1 0 0
1397 5 77.61092665750473 12.57079259859861 -0.12425620825623994 -1 0 0
1403 5 81.58806472793975 12.570792598598608 -0.12425620825621715 -1 0 0
1394 1 79.60271465307258 13.715545077819892 1.5816574522963502 -1 0 0
1398 5 79.59949569272273 16.015095201953613 -0.12425620825621897 -1 0 0
1543 1 77.61414561785517 17.15984768117491 1.5816574522963744 -1 0 0
1549 1 81.59128368829016 17.159847681174906 1.581657452296367 -1 0 0
1409 5 85.56520279837476 12.570792598598613 -0.12425620825622377 -1 0 0
1400 1 83.57985272350761 13.715545077819902 1.5816574522963338 -1 0 0
1406 1 87.5569907939426 13.715545077819892 1.5816574522963522 -1 0 0
1404 5 83.57663376315773 16.01509520195361 -0.12425620825623013 -1 0 0
1410 5 87.55377183359275 16.015095201953603 -0.12425620825624344 -1 0 0
1555 1 85.56842175872518 17.15984768117492 1.5816574522963456 -1 0 0
1415 5 89.54234086880976 12.57079259859861 -0.12425620825622169 -1 0 0
1421 5 93.51947893924475 12.570792598598612 -0.12425620825622286 -1 0 0
1412 1 91.53412886437759 13.715545077819897 1.5816574522963487 -1 0 0
1416 5 91.53090990402772 16.015095201953613 -0.12425620825622395 -1 0 0
1561 1 89.54555982916018 17.159847681174906 1.5816574522963742 -1 0 0
1567 1 93.52269789959517 17.15984768117491 1.5816574522963593 -1 0 0
1427 5 97.49661700967975 12.570792598598612 -0.1242562082562267 -1 0 0
1418 1 95.51126693481258 13.715545077819897 1.5816574522963303 -1 0 0
1422 5 95.50804797446271 16.015095201953603 -0.1242562082562299 -1 0 0
1573 1 97.49983597003018 17.159847681174917 1.5816574522963491 -1 0 0
1583 5 2.0453033192397627 19.459397805308615 -0.12425620825623764 0 0 0
1574 1 0.05995324437257771 20.604150284529897 1.581657452296353 0 0 0
1580 1 4.037091314807574 20.604150284529894 1.5816574522963467 0 0 0
1578 5 0.05673428402272474 22.903700408663607 -0.12425620825624434 0 0 0
1584 5 4.033872354457727 22.903700408663607 -0.12425620825623748 0 0 0
1589 5 6.022441389674764 19.45939780530861 -0.12425620825623437 0 0 0
1586 1 8.014229385242574 20.604150284529894 1.5816574522963354 0 0 0
1595 5 9.999579460109755 19.459397805308615 -0.12425620825623541 0 0 0
1590 5 8.011010424892728 22.903700408663603 -0.12425620825623632 0 0 0
1592 1 11.991367455677572 20.60415028452989 1.5816574522963474 0 0 0
1601 5 13.976717530544757 19.459397805308612 -0.12425620825623132 0 0 0
1598 1 15.968505526112569 20.604150284529894 1.5816574522963436 0 0 0
1596 5 11.98814849532773 22.903700408663607 -0.12425620825623891 0 0 0
1602 5 15.965286565762723 22.903700408663607 -0.12425620825623898 0 0 0
1607 5 17.953855600979757 19.459397805308612 -0.12425620825623455 0 0 0
1604 1 19.94564359654758 20.604150284529894 1.581657452296345 0 0 0
1613 5 21.930993671414754 19.45939780530861 -0.12425620825623715 0 0 0
1608 5 19.942424636197725 22.903700408663607 -0.12425620825623468 0 0 0
1610 1 23.922781666982583 20.604150284529897 1.5816574522963447 0 0 0
1619 5 25.908131741849754 19.459397805308612 -0.12425620825623304 0 0 0
1616 1 27.899919737417584 20.60415028452989 1.5816574522963494 0 0 0
1614 5 23.91956270663273 22.903700408663607 -0.12425620825622993 0 0 0
1620 5 27.896700777067725 22.903700408663607 -0.12425620825623637 0 0 0
1625 5 29.885269812284754 19.45939780530862 -0.12425620825623239 0 0 0
1631 5 33.86240788271976 19.45939780530861 -0.1242562082562319 0 0 0
1622 1 31.87705780785257 20.60415028452989 1.5816574522963414 0 0 0
1626 5 31.87383884750273 22.903700408663603 -0.12425620825623857 0 0 0
1628 1 35.854195878287584 20.604150284529894 1.5816574522963387 0 0 0
1637 5 37.839545953154754 19.459397805308612 -0.12425620825623186 0 0 0
1634 1 39.831333948722595 20.604150284529897 1.5816574522963363 0 0 0
1632 5 35.85097691793773 22.90370040866361 -0.12425620825623135 0 0 0
1638 5 39.82811498837274 22.903700408663607 -0.12425620825622624 0 0 0
1643 5 41.81668402358976 19.459397805308615 -0.12425620825623125 0 0 0
1640 1 43.808472019157584 20.60415028452989 1.581657452296363 0 0 0
1649 5 45.79382209402476 19.45939780530862 -0.12425620825623598 0 0 0
1644 5 43.805253058807736 22.903700408663607 -0.12425620825624299 0 0 0
1646 1 47.78561008959257 20.604150284529894 1.581657452296343 0 0 0
1505 5 49.77096016445976 19.459397805308605 -0.12425620825622673 -1 0 0
1502 1 51.76274816002758 20.6041502845299 1.581657452296324 -1 0 0
1650 5 47.78239112924274 22.903700408663603 -0.12425620825623762 0 0 0
1506 5 51.75952919967772 22.903700408663607 -0.12425620825622546 -1 0 0
1511 5 53.74809823489475 19.459397805308615 -0.12425620825623102 -1 0 0
1508 1 55.73988623046258 20.604150284529887 1.5816574522963593 -1 0 0
1517 5 57.72523630532975 19.459397805308623 -0.12425620825623206 -1 0 0
1512 5 55.73666727011273 22.903700408663614 -0.12425620825623673 -1 0 0
1514 1 59.71702430089758 20.604150284529894 1.5816574522963436 -1 0 0
1523 5 61.70237437576476 19.459397805308615 -0.12425620825623067 -1 0 0
1520 1 63.69416237133258 20.604150284529894 1.5816574522963318 -1 0 0
1518 5 59.71380534054773 22.903700408663603 -0.12425620825623537 -1 0 0
1524 5 63.690943410982726 22.903700408663607 -0.12425620825623132 -1 0 0
1529 5 65.67951244619975 19.45939780530861 -0.12425620825622796 -1 0 0
1526 1 67.67130044176758 20.604150284529894 1.5816574522963505 -1 0 0
1535 5 69.65665051663477 19.45939780530861 -0.12425620825623465 -1 0 0
1530 5 67.66808148141774 22.903700408663614 -0.1242562082562292 -1 0 0
1532 1 71.6484385122026 20.60415028452989 1.5816574522963451 -1 0 0
1541 5 73.63378858706976 19.459397805308612 -0.12425620825623519 -1 0 0
1538 1 75.62557658263758 20.604150284529894 1.581657452296342 -1 0 0
1536 5 71.64521955185273 22.903700408663614 -0.12425620825622426 -1 0 0
1542 5 75.62235762228774 22.903700408663603 -0.12425620825623715 -1 0 0
1547 5 77.61092665750475 19.459397805308612 -0.12425620825624577 -1 0 0
1544 1 79.60271465307257 20.604150284529897 1.5816574522963474 -1 0 0
1553 5 81.58806472793975 19.45939780530861 -0.12425620825622807 -1 0 0
1548 5 79.59949569272273 22.90370040866361 -0.12425620825622068 -1 0 0
1550 1 83.5798527235076 20.604150284529894 1.5816574522963496 -1 0 0
1559 5 85.56520279837476 19.459397805308612 -0.12425620825623168 -1 0 0
1556 1 87.5569907939426 20.604150284529897 1.5816574522963422 -1 0 0
1554 5 83.57663376315773 22.90370040866361 -0.1242562082562385 -1 0 0
1560 5 87.55377183359275 22.903700408663596 -0.12425620825624765 -1 0 0
1565 5 89.54234086880976 19.459397805308612 -0.12425620825622152 -1 0 0
1562 1 91.53412886437759 20.604150284529894 1.5816574522963498 -1 0 0
1571 5 93.51947893924476 19.45939780530861 -0.12425620825622925 -1 0 0
1566 5 91.53090990402772 22.90370040866361 -0.12425620825623043 -1 0 0
1568 1 95.51126693481258 20.604150284529897 1.5816574522963367 -1 0 0
1577 5 97.49661700967977 19.459397805308615 -0.12425620825623244 -1 0 0
1572 5 95.50804797446273 22.9037004086636 -0.12425620825623211 -1 0 0
1729 1 2.0485222795901836 24.048452887884906 1.581657452296387 0 0 0
1733 5 2.0453033192397623 26.34800301201861 -0.12425620825623356 0 0 0
1724 1 0.05995324437257913 27.492755491239897 1.581657452296343 0 0 0
1730 1 4.0370913148075775 27.49275549123989 1.5816574522963442 0 0 0
1735 1 6.025660350025182 24.048452887884913 1.5816574522963653 0 0 0
1741 1 10.002798420460183 24.04845288788491 1.5816574522963665 0 0 0
1739 5 6.022441389674762 26.3480030120186 -0.1242562082562309 0 0 0
1745 5 9.999579460109755 26.348003012018605 -0.1242562082562276 0 0 0
1736 1 8.014229385242576 27.49275549123989 1.581657452296337 0 0 0
1747 1 13.979936490895184 24.04845288788491 1.58165745229637 0 0 0
1751 5 13.976717530544759 26.3480030120186 -0.12425620825622795 0 0 0
1742 1 11.99136745567757 27.492755491239897 1.5816574522963405 0 0 0
1748 1 15.968505526112569 27.492755491239897 1.5816574522963396 0 0 0
1753 1 17.95707456133018 24.04845288788491 1.581657452296371 0 0 0
1759 1 21.934212631765178 24.048452887884913 1.5816574522963678 0 0 0
1757 5 17.953855600979757 26.348003012018605 -0.1242562082562334 0 0 0
1763 5 21.930993671414754 26.3480030120186 -0.12425620825623099 0 0 0
1754 1 19.94564359654758 27.492755491239894 1.5816574522963425 0 0 0
1765 1 25.911350702200174 24.04845288788491 1.581657452296368 0 0 0
1769 5 25.908131741849754 26.3480030120186 -0.12425620825622767 0 0 0
1760 1 23.92278166698258 27.492755491239897 1.5816574522963334 0 0 0
1766 1 27.89991973741758 27.492755491239894 1.581657452296343 0 0 0
1771 1 29.888488772635185 24.048452887884913 1.58165745229637 0 0 0
1777 1 33.86562684307017 24.048452887884906 1.5816574522963607 0 0 0
1775 5 29.885269812284754 26.34800301201861 -0.12425620825622936 0 0 0
1781 5 33.86240788271976 26.348003012018605 -0.12425620825623354 0 0 0
1772 1 31.87705780785257 27.492755491239897 1.5816574522963438 0 0 0
1783 1 37.84276491350517 24.048452887884913 1.581657452296364 0 0 0
1787 5 37.839545953154754 26.348003012018605 -0.12425620825622843 0 0 0
1778 1 35.854195878287584 27.492755491239894 1.5816574522963356 0 0 0
1784 1 39.83133394872259 27.4927554912399 1.5816574522963442 0 0 0
1789 1 41.81990298394017 24.04845288788491 1.5816574522963698 0 0 0
1795 1 45.797041054375185 24.048452887884913 1.581657452296374 0 0 0
1793 5 41.816684023589765 26.3480030120186 -0.12425620825623035 0 0 0
1799 5 45.79382209402476 26.34800301201861 -0.12425620825623257 0 0 0
1790 1 43.80847201915758 27.49275549123989 1.5816574522963627 0 0 0
1651 1 49.774179124810175 24.048452887884906 1.5816574522963496 -1 0 0
1655 5 49.77096016445976 26.348003012018598 -0.12425620825622335 -1 0 0
1796 1 47.78561008959258 27.4927554912399 1.581657452296346 0 0 0
1652 1 51.76274816002758 27.492755491239897 1.5816574522963374 -1 0 0
1657 1 53.75131719524517 24.04845288788491 1.581657452296368 -1 0 0
1663 1 57.728455265680175 24.048452887884906 1.5816574522963796 -1 0 0
1661 5 53.74809823489475 26.348003012018605 -0.12425620825623147 -1 0 0
1667 5 57.72523630532976 26.348003012018612 -0.1242562082562306 -1 0 0
1658 1 55.73988623046259 27.492755491239894 1.581657452296367 -1 0 0
1669 1 61.70559333611517 24.048452887884913 1.581657452296357 -1 0 0
1673 5 61.70237437576476 26.348003012018605 -0.1242562082562217 -1 0 0
1664 1 59.71702430089758 27.492755491239897 1.5816574522963425 -1 0 0
1670 1 63.69416237133258 27.492755491239894 1.5816574522963212 -1 0 0
1675 1 65.68273140655019 24.04845288788492 1.5816574522963516 -1 0 0
1681 1 69.6598694769852 24.04845288788491 1.5816574522963804 -1 0 0
1679 5 65.67951244619975 26.3480030120186 -0.12425620825622397 -1 0 0
1685 5 69.65665051663477 26.3480030120186 -0.12425620825623201 -1 0 0
1676 1 67.6713004417676 27.492755491239894 1.5816574522963414 -1 0 0
1687 1 73.63700754742018 24.04845288788491 1.581657452296361 -1 0 0
1691 5 73.63378858706976 26.348003012018605 -0.12425620825623057 -1 0 0
1682 1 71.64843851220262 27.492755491239897 1.5816574522963502 -1 0 0
1688 1 75.62557658263759 27.49275549123989 1.5816574522963458 -1 0 0
1693 1 77.61414561785517 24.048452887884906 1.5816574522963713 -1 0 0
1699 1 81.59128368829016 24.04845288788491 1.5816574522963647 -1 0 0
1697 5 77.61092665750473 26.34800301201861 -0.12425620825624352 -1 0 0
1703 5 81.58806472793975 26.348003012018605 -0.124256208256225 -1 0 0
1694 1 79.60271465307257 27.492755491239894 1.5816574522963496 -1 0 0
1705 1 85.56842175872518 24.04845288788491 1.5816574522963425 -1 0 0
1709 5 85.56520279837476 26.348003012018612 -0.12425620825622176 -1 0 0
1700 1 83.5798527235076 27.492755491239897 1.581657452296325 -1 0 0
1706 1 87.5569907939426 27.49275549123989 1.5816574522963542 -1 0 0
1711 1 89.5455598291602 24.048452887884906 1.581657452296383 -1 0 0
1717 1 93.52269789959517 24.048452887884913 1.581657452296361 -1 0 0
1715 5 89.54234086880976 26.348003012018605 -0.12425620825622051 -1 0 0
1721 5 93.51947893924476 26.348003012018605 -0.124256208256229 -1 0 0
1712 1 91.53412886437759 27.49275549123989 1.5816574522963547 -1 0 0
1723 1 97.49983597003016 24.048452887884913 1.5816574522963547 -1 0 0
1727 5 97.49661700967977 26.348003012018616 -0.12425620825622684 -1 0 0
1718 1 95.51126693481258 27.492755491239894 1.5816574522963294 -1 0 0
1728 5 0.05673428402272085 29.792305615373607 -0.1242562082562332 0 0 0
1879 1 2.048522279590184 30.937058094594914 1.5816574522963864 0 0 0
1734 5 4.033872354457731 29.792305615373607 -0.12425620825622703 0 0 0
1883 5 2.0453033192397636 33.23660821872861 -0.12425620825624803 0 0 0
1874 1 0.05995324437257976 34.381360697949894 1.5816574522963724 0 0 0
1880 1 4.037091314807575 34.3813606979499 1.5816574522963647 0 0 0
1885 1 6.0256603500251815 30.93705809459492 1.5816574522963591 0 0 0
1740 5 8.011010424892728 29.79230561537361 -0.12425620825622279 0 0 0
1891 1 10.002798420460177 30.93705809459491 1.581657452296357 0 0 0
1889 5 6.022441389674761 33.2366082187286 -0.12425620825624531 0 0 0
1895 5 9.999579460109759 33.236608218728605 -0.12425620825624124 0 0 0
1886 1 8.01422938524258 34.3813606979499 1.5816574522963658 0 0 0
1746 5 11.98814849532773 29.792305615373607 -0.12425620825622365 0 0 0
1897 1 13.979936490895188 30.937058094594914 1.5816574522963576 0 0 0
1752 5 15.965286565762721 29.792305615373607 -0.12425620825622337 0 0 0
1901 5 13.976717530544754 33.236608218728605 -0.1242562082562405 0 0 0
1892 1 11.991367455677574 34.381360697949894 1.5816574522963573 0 0 0
1898 1 15.96850552611257 34.3813606979499 1.5816574522963682 0 0 0
1903 1 17.957074561330188 30.937058094594914 1.581657452296361 0 0 0
1758 5 19.94242463619772 29.792305615373614 -0.12425620825622684 0 0 0
1909 1 21.934212631765178 30.937058094594914 1.5816574522963642 0 0 0
1907 5 17.953855600979757 33.236608218728605 -0.12425620825624636 0 0 0
1913 5 21.930993671414754 33.236608218728605 -0.12425620825624328 0 0 0
1904 1 19.94564359654758 34.381360697949894 1.581657452296363 0 0 0