LAMMPS data file via write_data, version 29 Aug 2024, timestep = 6, units = metal

4500 atoms
6 atom types

0 99.428451760875 xlo xhi
0 103.32907810065 ylo yhi
-50 50 zlo zhi

Masses

1 178.49
2 178.49
3 127.6
4 127.6
5 127.6
6 127.6

Atoms # atomic

1128 4 0.03659692022124808 2.258377676807398 -0.06181172571236416 0 0 0
1279 1 2.02740562692432 3.404390025963321 1.645438372477916 0 0 0
1134 4 4.013734990656252 2.2583776768073998 -0.06181172571236263 0 0 0
1283 4 2.0251659554392276 5.702680280162418 -0.06181172571234744 0 0 0
1285 1 6.004543697359318 3.404390025963324 1.645438372477924 0 0 0
1140 4 7.990873061091246 2.2583776768073984 -0.06181172571236104 0 0 0
1291 1 9.981681767794324 3.4043900259633193 1.6454383724779194 0 0 0
1289 4 6.002304025874225 5.702680280162414 -0.06181172571234796 0 0 0
1295 4 9.979442096309233 5.702680280162417 -0.061811725712348116 0 0 0
1146 4 11.968011131526257 2.258377676807395 -0.06181172571236159 0 0 0
1297 1 13.958819838229326 3.4043900259633206 1.6454383724779187 0 0 0
1152 4 15.94514920196126 2.2583776768073967 -0.06181172571236303 0 0 0
1301 4 13.956580166744232 5.702680280162417 -0.06181172571234672 0 0 0
1303 1 17.93595790866432 3.4043900259633215 1.6454383724779178 0 0 0
1158 4 19.922287272396247 2.2583776768073993 -0.06181172571235818 0 0 0
1309 1 21.913095979099324 3.404390025963322 1.6454383724779147 0 0 0
1307 4 17.933718237179225 5.702680280162412 -0.061811725712347505 0 0 0
1313 4 21.910856307614242 5.702680280162413 -0.061811725712349275 0 0 0
1164 4 23.89942534283125 2.2583776768073975 -0.06181172571235995 0 0 0
1315 1 25.890234049534325 3.404390025963323 1.6454383724779253 0 0 0
1170 4 27.87656341326625 2.2583776768073935 -0.061811725712358545 0 0 0
1319 4 25.887994378049243 5.702680280162415 -0.061811725712349906 0 0 0
1321 1 29.86737211996932 3.4043900259633206 1.6454383724779154 0 0 0
1176 4 31.853701483701247 2.2583776768073993 -0.06181172571236416 0 0 0
1327 1 33.84451019040432 3.4043900259633215 1.645438372477917 0 0 0
1325 4 29.865132448484225 5.702680280162417 -0.06181172571234683 0 0 0
1331 4 33.84227051891923 5.702680280162414 -0.06181172571234788 0 0 0
1182 4 35.83083955413625 2.258377676807401 -0.06181172571235623 0 0 0
1333 1 37.821648260839325 3.404390025963323 1.6454383724779174 0 0 0
1188 4 39.807977624571244 2.2583776768074 -0.06181172571236347 0 0 0
1337 4 37.81940858935424 5.702680280162412 -0.061811725712352404 0 0 0
1339 1 41.798786331274314 3.4043900259633237 1.6454383724779253 0 0 0
1194 4 43.785115695006226 2.2583776768073958 -0.06181172571235369 0 0 0
1345 1 45.77592440170933 3.404390025963319 1.6454383724779158 0 0 0
1343 4 41.796546659789236 5.702680280162418 -0.061811725712344084 0 0 0
1349 4 45.77368473022423 5.7026802801624195 -0.06181172571234678 0 0 0
1200 4 47.76225376544128 2.258377676807399 -0.06181172571236247 0 0 0
1201 1 49.75306247214433 3.404390025963324 1.6454383724779233 -1 0 0
1056 4 51.73939183587624 2.2583776768074006 -0.061811725712358254 -1 0 0
1205 4 49.75082280065922 5.70268028016241 -0.0618117257123471 -1 0 0
1207 1 53.73020054257932 3.4043900259633215 1.645438372477919 -1 0 0
1062 4 55.71652990631124 2.2583776768073975 -0.0618117257123559 -1 0 0
1213 1 57.70733861301432 3.404390025963321 1.6454383724779207 -1 0 0
1211 4 53.72796087109424 5.702680280162413 -0.06181172571234788 -1 0 0
1217 4 57.70509894152923 5.702680280162418 -0.06181172571234797 -1 0 0
1068 4 59.69366797674624 2.258377676807397 -0.06181172571236349 -1 0 0
1219 1 61.684476683449326 3.4043900259633224 1.6454383724779158 -1 0 0
1074 4 63.67080604718126 2.2583776768074006 -0.06181172571235335 -1 0 0
1223 4 61.68223701196424 5.702680280162419 -0.06181172571234338 -1 0 0
1080 4 67.64794411761626 2.258377676807398 -0.061811725712359024 -1 0 0
1225 1 65.66161475388435 3.4043900259633215 1.6454383724779196 -1 0 0
1231 1 69.63875282431934 3.4043900259633224 1.6454383724779216 -1 0 0
1229 4 65.65937508239925 5.702680280162412 -0.06181172571234987 -1 0 0
1235 4 69.63651315283424 5.702680280162415 -0.06181172571234869 -1 0 0
1086 4 71.62508218805127 2.2583776768073993 -0.06181172571235874 -1 0 0
1237 1 73.61589089475432 3.4043900259633233 1.6454383724779231 -1 0 0
1092 4 75.60222025848626 2.2583776768073998 -0.06181172571235619 -1 0 0
1241 4 73.61365122326922 5.702680280162413 -0.061811725712348074 -1 0 0
1243 1 77.59302896518933 3.4043900259633197 1.645438372477915 -1 0 0
1098 4 79.57935832892124 2.2583776768073927 -0.061811725712362514 -1 0 0
1249 1 81.57016703562432 3.404390025963322 1.645438372477921 -1 0 0
1247 4 77.59078929370426 5.702680280162415 -0.06181172571234766 -1 0 0
1253 4 81.56792736413925 5.7026802801624195 -0.061811725712343 -1 0 0
1104 4 83.55649639935628 2.258377676807399 -0.06181172571235843 -1 0 0
1255 1 85.54730510605933 3.404390025963321 1.6454383724779154 -1 0 0
1110 4 87.53363446979125 2.258377676807397 -0.061811725712365984 -1 0 0
1259 4 85.54506543457424 5.702680280162409 -0.06181172571234684 -1 0 0
1261 1 89.52444317649432 3.40439002596332 1.6454383724779231 -1 0 0
1116 4 91.51077254022623 2.2583776768073935 -0.06181172571235738 -1 0 0
1267 1 93.50158124692933 3.404390025963319 1.6454383724779156 -1 0 0
1265 4 89.52220350500926 5.702680280162415 -0.0618117257123499 -1 0 0
1271 4 93.49934157544425 5.702680280162416 -0.06181172571234999 -1 0 0
1122 4 95.48791061066127 2.2583776768073993 -0.06181172571236105 -1 0 0
1273 1 97.47871931736434 3.4043900259633237 1.6454383724779158 -1 0 0
1277 4 97.47647964587924 5.702680280162413 -0.061811725712347346 -1 0 0
1274 1 0.03883659170641609 6.848692629318337 1.645438372477916 0 0 0
1280 1 4.015974662141425 6.848692629318337 1.6454383724779211 0 0 0
1278 4 0.03659692022124723 9.146982883517403 -0.061811725712367316 0 0 0
1429 1 2.02740562692432 10.292995232673327 1.6454383724779067 0 0 0
1284 4 4.0137349906562525 9.146982883517405 -0.06181172571236438 0 0 0
1286 1 7.99311273257643 6.848692629318338 1.6454383724779202 0 0 0
1435 1 6.004543697359319 10.292995232673334 1.6454383724779111 0 0 0
1290 4 7.990873061091247 9.146982883517405 -0.061811725712361175 0 0 0
1441 1 9.981681767794324 10.29299523267333 1.6454383724779067 0 0 0
1292 1 11.970250803011432 6.848692629318337 1.6454383724779214 0 0 0
1298 1 15.947388873446428 6.8486926293183386 1.6454383724779198 0 0 0
1296 4 11.968011131526259 9.146982883517405 -0.0618117257123629 0 0 0
1447 1 13.958819838229324 10.29299523267333 1.6454383724779091 0 0 0
1302 4 15.945149201961256 9.146982883517405 -0.06181172571236321 0 0 0
1304 1 19.924526943881432 6.848692629318338 1.6454383724779194 0 0 0
1453 1 17.935957908664317 10.29299523267333 1.6454383724779074 0 0 0
1308 4 19.922287272396247 9.146982883517405 -0.06181172571236129 0 0 0
1459 1 21.913095979099324 10.292995232673329 1.645438372477907 0 0 0
1310 1 23.901665014316436 6.848692629318338 1.6454383724779231 0 0 0
1316 1 27.87880308475143 6.8486926293183386 1.6454383724779205 0 0 0
1314 4 23.89942534283126 9.146982883517406 -0.06181172571236162 0 0 0
1465 1 25.890234049534325 10.29299523267333 1.6454383724779122 0 0 0
1320 4 27.876563413266247 9.146982883517406 -0.061811725712363964 0 0 0
1322 1 31.85594115518643 6.84869262931834 1.645438372477921 0 0 0
1471 1 29.86737211996932 10.292995232673327 1.6454383724779 0 0 0
1326 4 31.853701483701247 9.146982883517406 -0.06181172571236335 0 0 0
1477 1 33.84451019040432 10.292995232673329 1.6454383724779058 0 0 0
1328 1 35.83307922562144 6.8486926293183386 1.6454383724779191 0 0 0
1334 1 39.810217296056436 6.8486926293183386 1.6454383724779227 0 0 0
1332 4 35.83083955413625 9.146982883517406 -0.06181172571235741 0 0 0
1483 1 37.821648260839325 10.29299523267333 1.645438372477907 0 0 0
1338 4 39.80797762457124 9.146982883517406 -0.061811725712366095 0 0 0
1340 1 43.78735536649144 6.8486926293183386 1.6454383724779202 0 0 0
1489 1 41.798786331274314 10.292995232673329 1.6454383724779136 0 0 0
1344 4 43.78511569500623 9.146982883517406 -0.061811725712358864 0 0 0
1495 1 45.77592440170933 10.292995232673329 1.6454383724779043 0 0 0
1346 1 47.76449343692644 6.848692629318339 1.6454383724779191 0 0 0
1202 1 51.74163150736143 6.848692629318339 1.6454383724779194 -1 0 0
1350 4 47.76225376544128 9.146982883517406 -0.06181172571236241 0 0 0
1351 1 49.75306247214433 10.292995232673332 1.6454383724779114 -1 0 0
1206 4 51.73939183587624 9.146982883517408 -0.06181172571236231 -1 0 0
1208 1 55.718769577796444 6.848692629318339 1.6454383724779227 -1 0 0
1357 1 53.73020054257932 10.29299523267333 1.6454383724779067 -1 0 0
1212 4 55.71652990631124 9.146982883517406 -0.06181172571235857 -1 0 0
1363 1 57.70733861301432 10.292995232673329 1.6454383724779067 -1 0 0
1214 1 59.69590764823143 6.848692629318339 1.645438372477921 -1 0 0
1220 1 63.67304571866644 6.848692629318342 1.6454383724779262 -1 0 0
1218 4 59.69366797674624 9.146982883517406 -0.061811725712362826 -1 0 0
1369 1 61.684476683449326 10.292995232673329 1.6454383724779054 -1 0 0
1224 4 63.67080604718126 9.146982883517408 -0.06181172571235761 -1 0 0
1226 1 67.65018378910143 6.8486926293183386 1.6454383724779227 -1 0 0
1230 4 67.64794411761628 9.146982883517405 -0.06181172571236378 -1 0 0
1375 1 65.66161475388435 10.29299523267333 1.6454383724779056 -1 0 0
1381 1 69.63875282431934 10.292995232673329 1.6454383724779094 -1 0 0
1232 1 71.62732185953642 6.8486926293183386 1.645438372477923 -1 0 0
1238 1 75.60445992997143 6.8486926293183386 1.6454383724779191 -1 0 0
1236 4 71.62508218805127 9.146982883517406 -0.06181172571235998 -1 0 0
1387 1 73.61589089475432 10.292995232673332 1.6454383724779114 -1 0 0
1242 4 75.60222025848626 9.14698288351741 -0.06181172571235538 -1 0 0
1244 1 79.58159800040644 6.8486926293183386 1.6454383724779185 -1 0 0
1393 1 77.59302896518933 10.292995232673329 1.6454383724779034 -1 0 0
1248 4 79.57935832892124 9.146982883517403 -0.061811725712364374 -1 0 0
1399 1 81.57016703562432 10.29299523267333 1.64543837247791 -1 0 0
1250 1 83.55873607084143 6.848692629318338 1.645438372477924 -1 0 0
1256 1 87.53587414127642 6.8486926293183386 1.6454383724779207 -1 0 0
1254 4 83.55649639935628 9.146982883517401 -0.061811725712361515 -1 0 0
1405 1 85.54730510605933 10.292995232673332 1.645438372477906 -1 0 0
1260 4 87.53363446979125 9.146982883517406 -0.06181172571236644 -1 0 0
1262 1 91.51301221171143 6.848692629318339 1.6454383724779205 -1 0 0
1411 1 89.5244431764943 10.29299523267333 1.645438372477909 -1 0 0
1266 4 91.51077254022623 9.146982883517405 -0.06181172571235981 -1 0 0
1417 1 93.50158124692933 10.292995232673329 1.6454383724779074 -1 0 0
1268 1 95.49015028214644 6.848692629318338 1.6454383724779202 -1 0 0
1272 4 95.48791061066127 9.146982883517405 -0.06181172571236372 -1 0 0
1423 1 97.47871931736434 10.292995232673334 1.645438372477906 -1 0 0
1433 4 2.025165955439228 12.591285486872426 -0.06181172571235016 0 0 0
1424 1 0.03883659170641689 13.737297836028336 1.6454383724779194 0 0 0
1430 1 4.015974662141425 13.737297836028336 1.6454383724779227 0 0 0
1428 4 0.036596920221249434 16.035588090227403 -0.06181172571236749 0 0 0
1434 4 4.013734990656251 16.035588090227407 -0.061811725712361404 0 0 0
1579 1 2.027405626924321 17.181600439383327 1.6454383724779122 0 0 0
1439 4 6.002304025874224 12.591285486872426 -0.06181172571234982 0 0 0
1445 4 9.979442096309233 12.591285486872426 -0.0618117257123513 0 0 0
1436 1 7.993112732576431 13.737297836028338 1.6454383724779222 0 0 0
1440 4 7.990873061091249 16.035588090227403 -0.061811725712357844 0 0 0
1585 1 6.004543697359319 17.18160043938333 1.645438372477916 0 0 0
1591 1 9.981681767794324 17.181600439383327 1.6454383724779094 0 0 0
1451 4 13.956580166744232 12.591285486872426 -0.061811725712350836 0 0 0
1442 1 11.970250803011432 13.737297836028338 1.6454383724779233 0 0 0
1448 1 15.947388873446426 13.737297836028338 1.645438372477923 0 0 0
1446 4 11.968011131526257 16.035588090227403 -0.06181172571235959 0 0 0
1452 4 15.945149201961254 16.035588090227407 -0.06181172571236242 0 0 0
1597 1 13.958819838229324 17.181600439383327 1.6454383724779136 0 0 0
1457 4 17.933718237179228 12.591285486872424 -0.06181172571235077 0 0 0
1463 4 21.910856307614242 12.591285486872424 -0.06181172571235155 0 0 0
1454 1 19.924526943881432 13.737297836028336 1.6454383724779216 0 0 0
1458 4 19.922287272396247 16.035588090227403 -0.06181172571236115 0 0 0
1603 1 17.935957908664317 17.18160043938333 1.6454383724779122 0 0 0
1609 1 21.91309597909932 17.18160043938333 1.6454383724779102 0 0 0
1469 4 25.887994378049232 12.591285486872426 -0.06181172571235037 0 0 0
1460 1 23.901665014316432 13.737297836028338 1.6454383724779238 0 0 0
1466 1 27.878803084751425 13.737297836028336 1.6454383724779211 0 0 0
1464 4 23.89942534283125 16.035588090227407 -0.061811725712360904 0 0 0
1470 4 27.876563413266247 16.035588090227407 -0.06181172571236185 0 0 0
1615 1 25.89023404953432 17.18160043938333 1.64543837247792 0 0 0
1475 4 29.865132448484225 12.591285486872424 -0.06181172571234854 0 0 0
1481 4 33.84227051891923 12.591285486872424 -0.06181172571235046 0 0 0
1472 1 31.85594115518643 13.73729783602834 1.6454383724779245 0 0 0
1476 4 31.853701483701244 16.035588090227403 -0.06181172571236424 0 0 0
1621 1 29.86737211996932 17.181600439383327 1.6454383724779085 0 0 0
1627 1 33.84451019040432 17.18160043938333 1.6454383724779127 0 0 0
1487 4 37.81940858935424 12.591285486872422 -0.06181172571235461 0 0 0
1478 1 35.83307922562144 13.737297836028336 1.6454383724779231 0 0 0
1484 1 39.810217296056436 13.737297836028338 1.6454383724779253 0 0 0
1482 4 35.83083955413625 16.035588090227407 -0.061811725712357234 0 0 0
1488 4 39.80797762457124 16.035588090227403 -0.06181172571236504 0 0 0
1633 1 37.821648260839325 17.18160043938333 1.6454383724779122 0 0 0
1493 4 41.796546659789236 12.591285486872428 -0.0618117257123461 0 0 0
1499 4 45.77368473022423 12.591285486872426 -0.061811725712350024 0 0 0
1490 1 43.78735536649144 13.737297836028336 1.645438372477925 0 0 0
1494 4 43.78511569500623 16.035588090227403 -0.06181172571235846 0 0 0
1639 1 41.798786331274314 17.181600439383327 1.6454383724779176 0 0 0
1645 1 45.77592440170933 17.181600439383327 1.6454383724779071 0 0 0
1355 4 49.75082280065922 12.591285486872417 -0.06181172571235252 -1 0 0
1496 1 47.76449343692644 13.737297836028338 1.645438372477923 0 0 0
1352 1 51.74163150736143 13.737297836028338 1.6454383724779251 -1 0 0
1500 4 47.76225376544128 16.035588090227407 -0.06181172571236322 0 0 0
1356 4 51.73939183587624 16.035588090227407 -0.06181172571235942 -1 0 0
1501 1 49.75306247214433 17.18160043938333 1.645438372477917 -1 0 0
1361 4 53.72796087109424 12.591285486872426 -0.06181172571234951 -1 0 0
1367 4 57.70509894152923 12.591285486872424 -0.06181172571234938 -1 0 0
1358 1 55.718769577796444 13.737297836028338 1.6454383724779262 -1 0 0
1362 4 55.71652990631124 16.035588090227403 -0.06181172571235967 -1 0 0
1507 1 53.73020054257932 17.18160043938333 1.6454383724779142 -1 0 0
1513 1 57.70733861301433 17.18160043938333 1.6454383724779171 -1 0 0
1373 4 61.68223701196424 12.591285486872426 -0.06181172571234806 -1 0 0
1364 1 59.69590764823143 13.737297836028338 1.6454383724779227 -1 0 0
1370 1 63.673045718666444 13.737297836028338 1.6454383724779276 -1 0 0
1368 4 59.69366797674624 16.035588090227407 -0.061811725712360974 -1 0 0
1374 4 63.67080604718125 16.035588090227407 -0.061811725712356914 -1 0 0
1519 1 61.684476683449326 17.18160043938333 1.6454383724779105 -1 0 0
1379 4 65.65937508239925 12.591285486872424 -0.061811725712351155 -1 0 0
1385 4 69.63651315283424 12.591285486872426 -0.06181172571235011 -1 0 0
1376 1 67.65018378910145 13.737297836028338 1.6454383724779265 -1 0 0
1380 4 67.64794411761628 16.035588090227407 -0.06181172571236065 -1 0 0
1525 1 65.66161475388435 17.18160043938333 1.6454383724779131 -1 0 0
1531 1 69.63875282431934 17.18160043938333 1.6454383724779138 -1 0 0
1391 4 73.61365122326922 12.591285486872422 -0.0618117257123515 -1 0 0
1382 1 71.62732185953642 13.73729783602834 1.6454383724779253 -1 0 0
1388 1 75.60445992997143 13.737297836028338 1.645438372477922 -1 0 0
1386 4 71.62508218805127 16.035588090227407 -0.061811725712358045 -1 0 0
1392 4 75.60222025848624 16.03558809022741 -0.06181172571235547 -1 0 0
1537 1 73.61589089475432 17.18160043938333 1.645438372477917 -1 0 0
1397 4 77.59078929370426 12.591285486872422 -0.06181172571235028 -1 0 0
1403 4 81.56792736413925 12.59128548687243 -0.061811725712348095 -1 0 0
1394 1 79.58159800040644 13.737297836028338 1.6454383724779262 -1 0 0
1398 4 79.57935832892123 16.0355880902274 -0.06181172571236697 -1 0 0
1543 1 77.59302896518933 17.181600439383327 1.645438372477907 -1 0 0
1549 1 81.57016703562432 17.181600439383327 1.6454383724779165 -1 0 0
1409 4 85.54506543457423 12.591285486872422 -0.06181172571234597 -1 0 0
1400 1 83.55873607084143 13.737297836028338 1.6454383724779251 -1 0 0
1406 1 87.53587414127642 13.737297836028338 1.645438372477922 -1 0 0
1404 4 83.55649639935628 16.035588090227403 -0.06181172571235598 -1 0 0
1410 4 87.53363446979125 16.035588090227403 -0.06181172571236579 -1 0 0
1555 1 85.54730510605933 17.18160043938333 1.6454383724779074 -1 0 0
1415 4 89.52220350500926 12.591285486872424 -0.0618117257123528 -1 0 0
1421 4 93.49934157544425 12.591285486872424 -0.06181172571235465 -1 0 0
1412 1 91.51301221171143 13.737297836028338 1.6454383724779245 -1 0 0
1416 4 91.51077254022623 16.035588090227403 -0.061811725712358524 -1 0 0
1561 1 89.5244431764943 17.181600439383327 1.6454383724779171 -1 0 0
1567 1 93.50158124692933 17.181600439383327 1.6454383724779098 -1 0 0
1427 4 97.47647964587924 12.591285486872426 -0.061811725712347866 -1 0 0
1418 1 95.49015028214644 13.737297836028336 1.6454383724779196 -1 0 0
1422 4 95.48791061066127 16.0355880902274 -0.061811725712361744 -1 0 0
1573 1 97.47871931736434 17.18160043938333 1.6454383724779118 -1 0 0
1583 4 2.025165955439228 19.479890693582423 -0.06181172571235025 0 0 0
1574 1 0.03883659170641564 20.62590304273834 1.645438372477914 0 0 0
1580 1 4.015974662141425 20.62590304273834 1.6454383724779191 0 0 0
1578 4 0.03659692022124871 22.924193296937407 -0.06181172571237027 0 0 0
1584 4 4.013734990656251 22.924193296937407 -0.061811725712365415 0 0 0
1589 4 6.002304025874225 19.479890693582423 -0.06181172571235036 0 0 0
1586 1 7.99311273257643 20.625903042738344 1.6454383724779182 0 0 0
1595 4 9.979442096309233 19.47989069358242 -0.06181172571235023 0 0 0
1590 4 7.990873061091248 22.924193296937407 -0.06181172571236372 0 0 0
1592 1 11.970250803011433 20.625903042738344 1.6454383724779185 0 0 0
1601 4 13.95658016674423 19.479890693582423 -0.06181172571235073 0 0 0
1598 1 15.947388873446426 20.625903042738344 1.6454383724779178 0 0 0
1596 4 11.968011131526255 22.924193296937407 -0.06181172571236541 0 0 0
1602 4 15.94514920196126 22.924193296937407 -0.061811725712365886 0 0 0
1607 4 17.933718237179225 19.47989069358242 -0.06181172571235029 0 0 0
1604 1 19.924526943881435 20.625903042738344 1.6454383724779156 0 0 0
1613 4 21.910856307614242 19.47989069358242 -0.061811725712350774 0 0 0
1608 4 19.922287272396247 22.924193296937407 -0.06181172571236465 0 0 0
1610 1 23.901665014316436 20.625903042738344 1.6454383724779191 0 0 0
1619 4 25.887994378049232 19.479890693582426 -0.061811725712352335 0 0 0
1616 1 27.87880308475143 20.625903042738344 1.6454383724779194 0 0 0
1614 4 23.899425342831247 22.924193296937407 -0.061811725712365546 0 0 0
1620 4 27.876563413266247 22.92419329693741 -0.06181172571236607 0 0 0
1625 4 29.865132448484225 19.479890693582423 -0.06181172571234862 0 0 0
1631 4 33.84227051891923 19.47989069358242 -0.061811725712352855 0 0 0
1622 1 31.85594115518643 20.625903042738344 1.6454383724779174 0 0 0
1626 4 31.853701483701247 22.924193296937407 -0.06181172571236624 0 0 0
1628 1 35.83307922562144 20.625903042738344 1.6454383724779196 0 0 0
1637 4 37.81940858935424 19.47989069358242 -0.061811725712354854 0 0 0
1634 1 39.810217296056436 20.625903042738344 1.6454383724779214 0 0 0
1632 4 35.83083955413625 22.924193296937407 -0.06181172571236155 0 0 0
1638 4 39.80797762457124 22.924193296937407 -0.061811725712366455 0 0 0
1643 4 41.796546659789236 19.479890693582423 -0.0618117257123458 0 0 0
1640 1 43.78735536649143 20.625903042738344 1.6454383724779187 0 0 0
1649 4 45.773684730224225 19.479890693582423 -0.06181172571234907 0 0 0
1644 4 43.785115695006226 22.924193296937407 -0.061811725712361425 0 0 0
1646 1 47.76449343692644 20.62590304273834 1.6454383724779182 0 0 0
1505 4 49.75082280065924 19.479890693582416 -0.06181172571235255 -1 0 0
1502 1 51.74163150736143 20.625903042738344 1.6454383724779227 -1 0 0
1650 4 47.76225376544128 22.924193296937407 -0.06181172571236597 0 0 0
1506 4 51.73939183587624 22.924193296937407 -0.06181172571236593 -1 0 0
1511 4 53.72796087109424 19.479890693582423 -0.061811725712349705 -1 0 0
1508 1 55.718769577796444 20.625903042738344 1.6454383724779165 -1 0 0
1517 4 57.70509894152923 19.479890693582423 -0.06181172571234995 -1 0 0
1512 4 55.71652990631124 22.924193296937407 -0.061811725712363236 -1 0 0
1514 1 59.69590764823143 20.62590304273834 1.645438372477917 -1 0 0
1523 4 61.68223701196424 19.479890693582423 -0.06181172571234658 -1 0 0
1520 1 63.67304571866644 20.625903042738344 1.6454383724779214 -1 0 0
1518 4 59.69366797674624 22.924193296937407 -0.0618117257123646 -1 0 0
1524 4 63.67080604718125 22.924193296937407 -0.061811725712360197 -1 0 0
1529 4 65.65937508239925 19.479890693582423 -0.06181172571235045 -1 0 0
1526 1 67.65018378910143 20.625903042738344 1.64543837247792 -1 0 0
1535 4 69.63651315283424 19.479890693582423 -0.06181172571235036 -1 0 0
1530 4 67.64794411761626 22.924193296937407 -0.06181172571236609 -1 0 0
1532 1 71.62732185953642 20.625903042738344 1.6454383724779191 -1 0 0
1541 4 73.61365122326922 19.47989069358242 -0.061811725712350454 -1 0 0
1538 1 75.60445992997143 20.625903042738344 1.6454383724779185 -1 0 0
1536 4 71.62508218805127 22.92419329693741 -0.061811725712362 -1 0 0
1542 4 75.60222025848624 22.92419329693741 -0.06181172571235771 -1 0 0
1547 4 77.59078929370426 19.47989069358242 -0.06181172571235106 -1 0 0
1544 1 79.58159800040644 20.625903042738344 1.6454383724779174 -1 0 0
1553 4 81.56792736413925 19.479890693582426 -0.06181172571234653 -1 0 0
1548 4 79.57935832892124 22.924193296937403 -0.061811725712367656 -1 0 0
1550 1 83.55873607084143 20.625903042738344 1.6454383724779227 -1 0 0
1559 4 85.54506543457423 19.47989069358242 -0.0618117257123498 -1 0 0
1556 1 87.53587414127642 20.625903042738344 1.645438372477917 -1 0 0
1554 4 83.55649639935628 22.924193296937403 -0.06181172571236823 -1 0 0
1560 4 87.53363446979125 22.924193296937407 -0.06181172571236812 -1 0 0
1565 4 89.52220350500926 19.47989069358242 -0.0618117257123521 -1 0 0
1562 1 91.51301221171143 20.62590304273834 1.6454383724779158 -1 0 0
1571 4 93.49934157544425 19.479890693582423 -0.06181172571235101 -1 0 0
1566 4 91.51077254022624 22.924193296937407 -0.0618117257123604 -1 0 0
1568 1 95.49015028214644 20.625903042738344 1.6454383724779194 -1 0 0
1577 4 97.47647964587924 19.479890693582423 -0.06181172571234898 -1 0 0
1572 4 95.48791061066127 22.924193296937403 -0.06181172571236877 -1 0 0
1729 1 2.0274056269243204 24.07020564609332 1.6454383724779094 0 0 0
1733 4 2.0251659554392267 26.36849590029241 -0.06181172571234696 0 0 0
1724 1 0.038836591706419635 27.514508249448337 1.6454383724779165 0 0 0
1730 1 4.015974662141423 27.514508249448337 1.6454383724779216 0 0 0
1735 1 6.004543697359319 24.070205646093324 1.6454383724779147 0 0 0
1741 1 9.981681767794322 24.07020564609332 1.6454383724779096 0 0 0
1739 4 6.002304025874223 26.36849590029241 -0.06181172571234822 0 0 0
1745 4 9.979442096309233 26.368495900292405 -0.061811725712347665 0 0 0
1736 1 7.99311273257643 27.514508249448337 1.645438372477919 0 0 0
1747 1 13.958819838229326 24.070205646093324 1.645438372477913 0 0 0
1751 4 13.956580166744232 26.36849590029241 -0.061811725712347644 0 0 0
1742 1 11.970250803011432 27.514508249448337 1.6454383724779194 0 0 0
1748 1 15.947388873446426 27.51450824944834 1.6454383724779225 0 0 0
1753 1 17.935957908664317 24.070205646093328 1.645438372477912 0 0 0
1759 1 21.91309597909932 24.070205646093328 1.6454383724779102 0 0 0
1757 4 17.933718237179225 26.368495900292405 -0.06181172571234722 0 0 0
1763 4 21.910856307614242 26.368495900292405 -0.06181172571235122 0 0 0
1754 1 19.924526943881432 27.514508249448337 1.645438372477917 0 0 0
1765 1 25.89023404953432 24.070205646093328 1.6454383724779165 0 0 0
1769 4 25.88799437804923 26.36849590029241 -0.06181172571234709 0 0 0
1760 1 23.901665014316436 27.51450824944834 1.64543837247792 0 0 0
1766 1 27.87880308475143 27.514508249448337 1.6454383724779205 0 0 0
1771 1 29.86737211996932 24.070205646093324 1.6454383724779063 0 0 0
1777 1 33.84451019040432 24.070205646093328 1.6454383724779111 0 0 0
1775 4 29.86513244848423 26.368495900292405 -0.06181172571234607 0 0 0
1781 4 33.84227051891923 26.368495900292405 -0.06181172571234982 0 0 0
1772 1 31.855941155186425 27.51450824944834 1.6454383724779231 0 0 0
1783 1 37.821648260839325 24.070205646093328 1.6454383724779094 0 0 0
1787 4 37.81940858935424 26.368495900292405 -0.06181172571235178 0 0 0
1778 1 35.83307922562144 27.51450824944834 1.6454383724779185 0 0 0
1784 1 39.810217296056436 27.51450824944834 1.6454383724779207 0 0 0
1789 1 41.798786331274314 24.070205646093324 1.6454383724779198 0 0 0
1795 1 45.77592440170933 24.070205646093324 1.6454383724779094 0 0 0
1793 4 41.796546659789236 26.36849590029241 -0.06181172571234354 0 0 0
1799 4 45.77368473022423 26.368495900292412 -0.061811725712344834 0 0 0
1790 1 43.78735536649144 27.51450824944834 1.645438372477921 0 0 0
1651 1 49.75306247214433 24.070205646093328 1.645438372477915 -1 0 0
1655 4 49.75082280065922 26.368495900292405 -0.061811725712349504 -1 0 0
1796 1 47.764493436926436 27.51450824944834 1.6454383724779178 0 0 0
1652 1 51.74163150736143 27.514508249448337 1.6454383724779227 -1 0 0
1657 1 53.730200542579325 24.070205646093324 1.6454383724779096 -1 0 0
1663 1 57.70733861301433 24.070205646093324 1.645438372477914 -1 0 0
1661 4 53.72796087109424 26.368495900292405 -0.06181172571234845 -1 0 0
1667 4 57.70509894152923 26.36849590029241 -0.06181172571234786 -1 0 0
1658 1 55.718769577796444 27.514508249448337 1.6454383724779225 -1 0 0
1669 1 61.684476683449326 24.070205646093324 1.64543837247791 -1 0 0
1673 4 61.68223701196424 26.36849590029241 -0.0618117257123431 -1 0 0
1664 1 59.69590764823143 27.514508249448337 1.6454383724779187 -1 0 0
1670 1 63.67304571866644 27.51450824944834 1.6454383724779218 -1 0 0
1675 1 65.66161475388435 24.070205646093328 1.645438372477913 -1 0 0
1681 1 69.63875282431934 24.070205646093324 1.6454383724779162 -1 0 0
1679 4 65.65937508239925 26.368495900292405 -0.06181172571234954 -1 0 0
1685 4 69.63651315283424 26.368495900292412 -0.06181172571234861 -1 0 0
1676 1 67.65018378910143 27.51450824944834 1.6454383724779187 -1 0 0
1687 1 73.61589089475432 24.070205646093324 1.6454383724779162 -1 0 0
1691 4 73.61365122326922 26.368495900292405 -0.06181172571234568 -1 0 0
1682 1 71.62732185953642 27.51450824944834 1.6454383724779222 -1 0 0
1688 1 75.60445992997143 27.514508249448337 1.64543837247792 -1 0 0
1693 1 77.59302896518933 24.070205646093324 1.6454383724779094 -1 0 0
1699 1 81.57016703562432 24.070205646093324 1.6454383724779136 -1 0 0
1697 4 77.59078929370426 26.3684959002924 -0.061811725712351946 -1 0 0
1703 4 81.56792736413925 26.368495900292412 -0.061811725712342364 -1 0 0
1694 1 79.58159800040644 27.51450824944834 1.6454383724779233 -1 0 0
1705 1 85.54730510605933 24.070205646093328 1.6454383724779096 -1 0 0
1709 4 85.54506543457423 26.368495900292405 -0.061811725712344674 -1 0 0
1700 1 83.55873607084143 27.51450824944834 1.6454383724779198 -1 0 0
1706 1 87.53587414127642 27.514508249448337 1.6454383724779216 -1 0 0
1711 1 89.5244431764943 24.070205646093324 1.6454383724779151 -1 0 0
1717 1 93.50158124692933 24.070205646093328 1.6454383724779111 -1 0 0
1715 4 89.52220350500926 26.3684959002924 -0.061811725712348664 -1 0 0
1721 4 93.49934157544425 26.368495900292405 -0.061811725712348706 -1 0 0
1712 1 91.51301221171143 27.514508249448337 1.6454383724779216 -1 0 0
1723 1 97.47871931736434 24.070205646093328 1.6454383724779118 -1 0 0
1727 4 97.47647964587924 26.36849590029241 -0.0618117257123468 -1 0 0
1718 1 95.49015028214644 27.514508249448337 1.6454383724779158 -1 0 0
1728 4 0.03659692022124789 29.812798503647407 -0.06181172571236531 0 0 0
1879 1 2.0274056269243204 30.95881085280334 1.6454383724779167 0 0 0
1734 4 4.013734990656252 29.81279850364741 -0.0618117257123608 0 0 0
1883 4 2.0251659554392267 33.257101107002434 -0.061811725712347894 0 0 0
1874 1 0.03883659170641787 34.403113456158344 1.6454383724779187 0 0 0
1880 1 4.015974662141428 34.40311345615834 1.6454383724779242 0 0 0
1885 1 6.00454369735932 30.958810852803335 1.6454383724779202 0 0 0
1740 4 7.990873061091247 29.812798503647407 -0.06181172571235725 0 0 0
1891 1 9.981681767794322 30.95881085280334 1.6454383724779131 0 0 0
1889 4 6.002304025874223 33.257101107002406 -0.061811725712348095 0 0 0
1895 4 9.979442096309235 33.257101107002434 -0.06181172571234612 0 0 0
1886 1 7.993112732576428 34.40311345615835 1.6454383724779171 0 0 0
1746 4 11.968011131526257 29.812798503647407 -0.06181172571235932 0 0 0
1897 1 13.958819838229324 30.95881085280334 1.6454383724779158 0 0 0
1752 4 15.945149201961263 29.812798503647407 -0.06181172571236122 0 0 0
1901 4 13.956580166744232 33.257101107002434 -0.06181172571234652 0 0 0
1892 1 11.970250803011432 34.403113456158344 1.6454383724779251 0 0 0
1898 1 15.947388873446428 34.403113456158344 1.6454383724779236 0 0 0
1903 1 17.93595790866432 30.958810852803335 1.6454383724779174 0 0 0
1758 4 19.922287272396247 29.81279850364741 -0.06181172571235763 0 0 0
1909 1 21.91309597909932 30.958810852803335 1.6454383724779154 0 0 0
1907 4 17.933718237179225 33.257101107002406 -0.061811725712348164 0 0 0