LAMMPS data file via write_data, version 29 Aug 2024, timestep = 0, units = metal

2250 atoms
3 atom types

0 99.428451760875 xlo xhi
0 103.32907810065 ylo yhi
0 18.553335997763 zlo zhi

Masses

1 178.49
2 127.6
3 127.6

Atoms # atomic

1124 1 4.973799150320701e-13 0 1.76824521149 0 0 0
1130 1 3.977138070435494 0 1.76824521149 0 0 0
1136 1 7.954276140870498 0 1.76824521149 0 0 0
1142 1 11.931414211305494 0 1.76824521149 0 0 0
1148 1 15.90855228174049 0 1.76824521149 0 0 0
1154 1 19.885690352175494 0 1.76824521149 0 0 0
1160 1 23.862828422610498 0 1.76824521149 0 0 0
1166 1 27.8399664930455 0 1.76824521149 0 0 0
1172 1 31.81710456348049 0 1.76824521149 0 0 0
1178 1 35.794242633915495 0 1.76824521149 0 0 0
1184 1 39.7713807043505 0 1.76824521149 0 0 0
1190 1 43.7485187747855 0 1.76824521149 0 0 0
1196 1 47.72565684522049 0 1.76824521149 0 0 0
1052 1 51.7027949156555 0 1.76824521149 -1 0 0
1058 1 55.679932986090506 0 1.76824521149 -1 0 0
1064 1 59.6570710565255 0 1.76824521149 -1 0 0
1070 1 63.6342091269605 0 1.76824521149 -1 0 0
1076 1 67.6113471973955 0 1.76824521149 -1 0 0
1082 1 71.5884852678305 0 1.76824521149 -1 0 0
1088 1 75.56562333826551 0 1.76824521149 -1 0 0
1094 1 79.5427614087005 0 1.76824521149 -1 0 0
1100 1 83.5198994791355 0 1.76824521149 -1 0 0
1106 1 87.4970375495705 0 1.76824521149 -1 0 0
1112 1 91.4741756200055 0 1.76824521149 -1 0 0
1118 1 95.4513136904405 0 1.76824521149 -1 0 0
1128 3 4.973799150320701e-13 2.2962017355700013 0 0 0 0
1279 1 1.9885690352174947 3.4443026033550055 1.76824521149 0 0 0
1134 3 3.977138070435494 2.2962017355700013 0 0 0 0
1285 1 5.965707105652498 3.4443026033550055 1.76824521149 0 0 0
1140 3 7.954276140870498 2.2962017355700013 0 0 0 0
1291 1 9.942845176087495 3.4443026033550055 1.76824521149 0 0 0
1146 3 11.931414211305494 2.2962017355700013 0 0 0 0
1297 1 13.919983246522499 3.4443026033550055 1.76824521149 0 0 0
1152 3 15.90855228174049 2.2962017355700013 0 0 0 0
1303 1 17.897121316957502 3.4443026033550055 1.76824521149 0 0 0
1158 3 19.885690352175494 2.2962017355700013 0 0 0 0
1309 1 21.87425938739249 3.4443026033550055 1.76824521149 0 0 0
1164 3 23.862828422610498 2.2962017355700013 0 0 0 0
1315 1 25.851397457827495 3.4443026033550055 1.76824521149 0 0 0
1170 3 27.8399664930455 2.2962017355700013 0 0 0 0
1321 1 29.8285355282625 3.4443026033550055 1.76824521149 0 0 0
1176 3 31.81710456348049 2.2962017355700013 0 0 0 0
1327 1 33.8056735986975 3.4443026033550055 1.76824521149 0 0 0
1182 3 35.794242633915495 2.2962017355700013 0 0 0 0
1333 1 37.78281166913249 3.4443026033550055 1.76824521149 0 0 0
1188 3 39.7713807043505 2.2962017355700013 0 0 0 0
1339 1 41.759949739567496 3.4443026033550055 1.76824521149 0 0 0
1194 3 43.7485187747855 2.2962017355700013 0 0 0 0
1345 1 45.7370878100025 3.4443026033550055 1.76824521149 0 0 0
1200 3 47.72565684522049 2.2962017355700013 0 0 0 0
1201 1 49.7142258804375 3.4443026033550055 1.76824521149 -1 0 0
1056 3 51.7027949156555 2.2962017355700013 0 -1 0 0
1207 1 53.6913639508725 3.4443026033550055 1.76824521149 -1 0 0
1062 3 55.679932986090506 2.2962017355700013 0 -1 0 0
1213 1 57.6685020213075 3.4443026033550055 1.76824521149 -1 0 0
1068 3 59.6570710565255 2.2962017355700013 0 -1 0 0
1219 1 61.64564009174251 3.4443026033550055 1.76824521149 -1 0 0
1074 3 63.6342091269605 2.2962017355700013 0 -1 0 0
1080 3 67.6113471973955 2.2962017355700013 0 -1 0 0
1225 1 65.6227781621775 3.4443026033550055 1.76824521149 -1 0 0
1231 1 69.5999162326125 3.4443026033550055 1.76824521149 -1 0 0
1086 3 71.5884852678305 2.2962017355700013 0 -1 0 0
1237 1 73.5770543030475 3.4443026033550055 1.76824521149 -1 0 0
1092 3 75.56562333826551 2.2962017355700013 0 -1 0 0
1243 1 77.55419237348251 3.4443026033550055 1.76824521149 -1 0 0
1098 3 79.5427614087005 2.2962017355700013 0 -1 0 0
1249 1 81.53133044391751 3.4443026033550055 1.76824521149 -1 0 0
1104 3 83.5198994791355 2.2962017355700013 0 -1 0 0
1255 1 85.5084685143525 3.4443026033550055 1.76824521149 -1 0 0
1110 3 87.4970375495705 2.2962017355700013 0 -1 0 0
1261 1 89.4856065847875 3.4443026033550055 1.76824521149 -1 0 0
1116 3 91.4741756200055 2.2962017355700013 0 -1 0 0
1267 1 93.46274465522251 3.4443026033550055 1.76824521149 -1 0 0
1122 3 95.4513136904405 2.2962017355700013 0 -1 0 0
1273 1 97.4398827256575 3.4443026033550055 1.76824521149 -1 0 0
1283 3 1.9885690352174947 5.740504338925 0 0 0 0
1289 3 5.965707105652498 5.740504338925 0 0 0 0
1295 3 9.942845176087495 5.740504338925 0 0 0 0
1301 3 13.919983246522499 5.740504338925 0 0 0 0
1307 3 17.897121316957502 5.740504338925 0 0 0 0
1313 3 21.87425938739249 5.740504338925 0 0 0 0
1319 3 25.851397457827495 5.740504338925 0 0 0 0
1325 3 29.8285355282625 5.740504338925 0 0 0 0
1331 3 33.8056735986975 5.740504338925 0 0 0 0
1337 3 37.78281166913249 5.740504338925 0 0 0 0
1343 3 41.759949739567496 5.740504338925 0 0 0 0
1349 3 45.7370878100025 5.740504338925 0 0 0 0
1205 3 49.7142258804375 5.740504338925 0 -1 0 0
1211 3 53.6913639508725 5.740504338925 0 -1 0 0
1217 3 57.6685020213075 5.740504338925 0 -1 0 0
1223 3 61.64564009174251 5.740504338925 0 -1 0 0
1229 3 65.6227781621775 5.740504338925 0 -1 0 0
1235 3 69.5999162326125 5.740504338925 0 -1 0 0
1241 3 73.5770543030475 5.740504338925 0 -1 0 0
1247 3 77.55419237348251 5.740504338925 0 -1 0 0
1253 3 81.53133044391751 5.740504338925 0 -1 0 0
1259 3 85.5084685143525 5.740504338925 0 -1 0 0
1265 3 89.4856065847875 5.740504338925 0 -1 0 0
1271 3 93.46274465522251 5.740504338925 0 -1 0 0
1277 3 97.4398827256575 5.740504338925 0 -1 0 0
1274 1 4.973799150320701e-13 6.888605206710004 1.76824521149 0 0 0
1280 1 3.977138070435494 6.888605206710004 1.76824521149 0 0 0
1286 1 7.954276140870498 6.888605206710004 1.76824521149 0 0 0
1292 1 11.931414211305494 6.888605206710004 1.76824521149 0 0 0
1298 1 15.90855228174049 6.888605206710004 1.76824521149 0 0 0
1304 1 19.885690352175494 6.888605206710004 1.76824521149 0 0 0
1310 1 23.862828422610498 6.888605206710004 1.76824521149 0 0 0
1316 1 27.8399664930455 6.888605206710004 1.76824521149 0 0 0
1322 1 31.81710456348049 6.888605206710004 1.76824521149 0 0 0
1328 1 35.794242633915495 6.888605206710004 1.76824521149 0 0 0
1334 1 39.7713807043505 6.888605206710004 1.76824521149 0 0 0
1340 1 43.7485187747855 6.888605206710004 1.76824521149 0 0 0
1346 1 47.72565684522049 6.888605206710004 1.76824521149 0 0 0
1202 1 51.7027949156555 6.888605206710004 1.76824521149 -1 0 0
1208 1 55.679932986090506 6.888605206710004 1.76824521149 -1 0 0
1214 1 59.6570710565255 6.888605206710004 1.76824521149 -1 0 0
1220 1 63.6342091269605 6.888605206710004 1.76824521149 -1 0 0
1226 1 67.6113471973955 6.888605206710004 1.76824521149 -1 0 0
1232 1 71.5884852678305 6.888605206710004 1.76824521149 -1 0 0
1238 1 75.56562333826551 6.888605206710004 1.76824521149 -1 0 0
1244 1 79.5427614087005 6.888605206710004 1.76824521149 -1 0 0
1250 1 83.5198994791355 6.888605206710004 1.76824521149 -1 0 0
1256 1 87.4970375495705 6.888605206710004 1.76824521149 -1 0 0
1262 1 91.4741756200055 6.888605206710004 1.76824521149 -1 0 0
1268 1 95.4513136904405 6.888605206710004 1.76824521149 -1 0 0
1278 3 4.973799150320701e-13 9.184806942280005 0 0 0 0
1429 1 1.9885690352174947 10.332907810065002 1.76824521149 0 0 0
1284 3 3.977138070435494 9.184806942280005 0 0 0 0
1435 1 5.965707105652498 10.332907810065002 1.76824521149 0 0 0
1290 3 7.954276140870498 9.184806942280005 0 0 0 0
1441 1 9.942845176087495 10.332907810065002 1.76824521149 0 0 0
1296 3 11.931414211305494 9.184806942280005 0 0 0 0
1447 1 13.919983246522499 10.332907810065002 1.76824521149 0 0 0
1302 3 15.90855228174049 9.184806942280005 0 0 0 0
1453 1 17.897121316957502 10.332907810065002 1.76824521149 0 0 0
1308 3 19.885690352175494 9.184806942280005 0 0 0 0
1459 1 21.87425938739249 10.332907810065002 1.76824521149 0 0 0
1314 3 23.862828422610498 9.184806942280005 0 0 0 0
1465 1 25.851397457827495 10.332907810065002 1.76824521149 0 0 0
1320 3 27.8399664930455 9.184806942280005 0 0 0 0
1471 1 29.8285355282625 10.332907810065002 1.76824521149 0 0 0
1326 3 31.81710456348049 9.184806942280005 0 0 0 0
1477 1 33.8056735986975 10.332907810065002 1.76824521149 0 0 0
1332 3 35.794242633915495 9.184806942280005 0 0 0 0
1483 1 37.78281166913249 10.332907810065002 1.76824521149 0 0 0
1338 3 39.7713807043505 9.184806942280005 0 0 0 0
1489 1 41.759949739567496 10.332907810065002 1.76824521149 0 0 0
1344 3 43.7485187747855 9.184806942280005 0 0 0 0
1495 1 45.7370878100025 10.332907810065002 1.76824521149 0 0 0
1350 3 47.72565684522049 9.184806942280005 0 0 0 0
1351 1 49.7142258804375 10.332907810065002 1.76824521149 -1 0 0
1206 3 51.7027949156555 9.184806942280005 0 -1 0 0
1357 1 53.6913639508725 10.332907810065002 1.76824521149 -1 0 0
1212 3 55.679932986090506 9.184806942280005 0 -1 0 0
1363 1 57.6685020213075 10.332907810065002 1.76824521149 -1 0 0
1218 3 59.6570710565255 9.184806942280005 0 -1 0 0
1369 1 61.64564009174251 10.332907810065002 1.76824521149 -1 0 0
1224 3 63.6342091269605 9.184806942280005 0 -1 0 0
1230 3 67.6113471973955 9.184806942280005 0 -1 0 0
1375 1 65.6227781621775 10.332907810065002 1.76824521149 -1 0 0
1381 1 69.5999162326125 10.332907810065002 1.76824521149 -1 0 0
1236 3 71.5884852678305 9.184806942280005 0 -1 0 0
1387 1 73.5770543030475 10.332907810065002 1.76824521149 -1 0 0
1242 3 75.56562333826551 9.184806942280005 0 -1 0 0
1393 1 77.55419237348251 10.332907810065002 1.76824521149 -1 0 0
1248 3 79.5427614087005 9.184806942280005 0 -1 0 0
1399 1 81.53133044391751 10.332907810065002 1.76824521149 -1 0 0
1254 3 83.5198994791355 9.184806942280005 0 -1 0 0
1405 1 85.5084685143525 10.332907810065002 1.76824521149 -1 0 0
1260 3 87.4970375495705 9.184806942280005 0 -1 0 0
1411 1 89.4856065847875 10.332907810065002 1.76824521149 -1 0 0
1266 3 91.4741756200055 9.184806942280005 0 -1 0 0
1417 1 93.46274465522251 10.332907810065002 1.76824521149 -1 0 0
1272 3 95.4513136904405 9.184806942280005 0 -1 0 0
1423 1 97.4398827256575 10.332907810065002 1.76824521149 -1 0 0
1433 3 1.9885690352174947 12.629109545634996 0 0 0 0
1439 3 5.965707105652498 12.629109545634996 0 0 0 0
1445 3 9.942845176087495 12.629109545634996 0 0 0 0
1451 3 13.919983246522499 12.629109545634996 0 0 0 0
1457 3 17.897121316957502 12.629109545634996 0 0 0 0
1463 3 21.87425938739249 12.629109545634996 0 0 0 0
1469 3 25.851397457827495 12.629109545634996 0 0 0 0
1475 3 29.8285355282625 12.629109545634996 0 0 0 0
1481 3 33.8056735986975 12.629109545634996 0 0 0 0
1487 3 37.78281166913249 12.629109545634996 0 0 0 0
1493 3 41.759949739567496 12.629109545634996 0 0 0 0
1499 3 45.7370878100025 12.629109545634996 0 0 0 0
1355 3 49.7142258804375 12.629109545634996 0 -1 0 0
1361 3 53.6913639508725 12.629109545634996 0 -1 0 0
1367 3 57.6685020213075 12.629109545634996 0 -1 0 0
1373 3 61.64564009174251 12.629109545634996 0 -1 0 0
1379 3 65.6227781621775 12.629109545634996 0 -1 0 0
1385 3 69.5999162326125 12.629109545634996 0 -1 0 0
1391 3 73.5770543030475 12.629109545634996 0 -1 0 0
1397 3 77.55419237348251 12.629109545634996 0 -1 0 0
1403 3 81.53133044391751 12.629109545634996 0 -1 0 0
1409 3 85.5084685143525 12.629109545634996 0 -1 0 0
1415 3 89.4856065847875 12.629109545634996 0 -1 0 0
1421 3 93.46274465522251 12.629109545634996 0 -1 0 0
1427 3 97.4398827256575 12.629109545634996 0 -1 0 0
1424 1 4.973799150320701e-13 13.77721041342 1.76824521149 0 0 0
1430 1 3.977138070435494 13.77721041342 1.76824521149 0 0 0
1436 1 7.954276140870498 13.77721041342 1.76824521149 0 0 0
1442 1 11.931414211305494 13.77721041342 1.76824521149 0 0 0
1448 1 15.90855228174049 13.77721041342 1.76824521149 0 0 0
1454 1 19.885690352175494 13.77721041342 1.76824521149 0 0 0
1460 1 23.862828422610498 13.77721041342 1.76824521149 0 0 0
1466 1 27.8399664930455 13.77721041342 1.76824521149 0 0 0
1472 1 31.81710456348049 13.77721041342 1.76824521149 0 0 0
1478 1 35.794242633915495 13.77721041342 1.76824521149 0 0 0
1484 1 39.7713807043505 13.77721041342 1.76824521149 0 0 0
1490 1 43.7485187747855 13.77721041342 1.76824521149 0 0 0
1496 1 47.72565684522049 13.77721041342 1.76824521149 0 0 0
1352 1 51.7027949156555 13.77721041342 1.76824521149 -1 0 0
1358 1 55.679932986090506 13.77721041342 1.76824521149 -1 0 0
1364 1 59.6570710565255 13.77721041342 1.76824521149 -1 0 0
1370 1 63.6342091269605 13.77721041342 1.76824521149 -1 0 0
1376 1 67.6113471973955 13.77721041342 1.76824521149 -1 0 0
1382 1 71.5884852678305 13.77721041342 1.76824521149 -1 0 0
1388 1 75.56562333826551 13.77721041342 1.76824521149 -1 0 0
1394 1 79.5427614087005 13.77721041342 1.76824521149 -1 0 0
1400 1 83.5198994791355 13.77721041342 1.76824521149 -1 0 0
1406 1 87.4970375495705 13.77721041342 1.76824521149 -1 0 0
1412 1 91.4741756200055 13.77721041342 1.76824521149 -1 0 0
1418 1 95.4513136904405 13.77721041342 1.76824521149 -1 0 0
1428 3 4.973799150320701e-13 16.07341214899001 0 0 0 0
1434 3 3.977138070435494 16.07341214899001 0 0 0 0
1440 3 7.954276140870498 16.07341214899001 0 0 0 0
1446 3 11.931414211305494 16.07341214899001 0 0 0 0
1452 3 15.90855228174049 16.07341214899001 0 0 0 0
1458 3 19.885690352175494 16.07341214899001 0 0 0 0
1464 3 23.862828422610498 16.07341214899001 0 0 0 0
1470 3 27.8399664930455 16.07341214899001 0 0 0 0
1476 3 31.81710456348049 16.07341214899001 0 0 0 0
1482 3 35.794242633915495 16.07341214899001 0 0 0 0
1488 3 39.7713807043505 16.07341214899001 0 0 0 0
1494 3 43.7485187747855 16.07341214899001 0 0 0 0
1500 3 47.72565684522049 16.07341214899001 0 0 0 0
1356 3 51.7027949156555 16.07341214899001 0 -1 0 0
1362 3 55.679932986090506 16.07341214899001 0 -1 0 0
1368 3 59.6570710565255 16.07341214899001 0 -1 0 0
1374 3 63.6342091269605 16.07341214899001 0 -1 0 0
1380 3 67.6113471973955 16.07341214899001 0 -1 0 0
1386 3 71.5884852678305 16.07341214899001 0 -1 0 0
1392 3 75.56562333826551 16.07341214899001 0 -1 0 0
1398 3 79.5427614087005 16.07341214899001 0 -1 0 0
1404 3 83.5198994791355 16.07341214899001 0 -1 0 0
1410 3 87.4970375495705 16.07341214899001 0 -1 0 0
1416 3 91.4741756200055 16.07341214899001 0 -1 0 0
1422 3 95.4513136904405 16.07341214899001 0 -1 0 0
1579 1 1.9885690352174947 17.221513016775 1.76824521149 0 0 0
1585 1 5.965707105652498 17.221513016775 1.76824521149 0 0 0
1591 1 9.942845176087495 17.221513016775 1.76824521149 0 0 0
1597 1 13.919983246522499 17.221513016775 1.76824521149 0 0 0
1603 1 17.897121316957502 17.221513016775 1.76824521149 0 0 0
1609 1 21.87425938739249 17.221513016775 1.76824521149 0 0 0
1615 1 25.851397457827495 17.221513016775 1.76824521149 0 0 0
1621 1 29.8285355282625 17.221513016775 1.76824521149 0 0 0
1627 1 33.8056735986975 17.221513016775 1.76824521149 0 0 0
1633 1 37.78281166913249 17.221513016775 1.76824521149 0 0 0
1639 1 41.759949739567496 17.221513016775 1.76824521149 0 0 0
1645 1 45.7370878100025 17.221513016775 1.76824521149 0 0 0
1501 1 49.7142258804375 17.221513016775 1.76824521149 -1 0 0
1507 1 53.6913639508725 17.221513016775 1.76824521149 -1 0 0
1513 1 57.6685020213075 17.221513016775 1.76824521149 -1 0 0
1519 1 61.64564009174251 17.221513016775 1.76824521149 -1 0 0
1525 1 65.6227781621775 17.221513016775 1.76824521149 -1 0 0
1531 1 69.5999162326125 17.221513016775 1.76824521149 -1 0 0
1537 1 73.5770543030475 17.221513016775 1.76824521149 -1 0 0
1543 1 77.55419237348251 17.221513016775 1.76824521149 -1 0 0
1549 1 81.53133044391751 17.221513016775 1.76824521149 -1 0 0
1555 1 85.5084685143525 17.221513016775 1.76824521149 -1 0 0
1561 1 89.4856065847875 17.221513016775 1.76824521149 -1 0 0
1567 1 93.46274465522251 17.221513016775 1.76824521149 -1 0 0
1573 1 97.4398827256575 17.221513016775 1.76824521149 -1 0 0
1583 3 1.9885690352174947 19.517714752345007 0 0 0 0
1574 1 4.973799150320701e-13 20.665815620129997 1.76824521149 0 0 0
1580 1 3.977138070435494 20.665815620129997 1.76824521149 0 0 0
1589 3 5.965707105652498 19.517714752345007 0 0 0 0
1586 1 7.954276140870498 20.665815620129997 1.76824521149 0 0 0
1595 3 9.942845176087495 19.517714752345007 0 0 0 0
1592 1 11.931414211305494 20.665815620129997 1.76824521149 0 0 0
1601 3 13.919983246522499 19.517714752345007 0 0 0 0
1598 1 15.90855228174049 20.665815620129997 1.76824521149 0 0 0
1607 3 17.897121316957502 19.517714752345007 0 0 0 0
1604 1 19.885690352175494 20.665815620129997 1.76824521149 0 0 0
1613 3 21.87425938739249 19.517714752345007 0 0 0 0
1610 1 23.862828422610498 20.665815620129997 1.76824521149 0 0 0
1619 3 25.851397457827495 19.517714752345007 0 0 0 0
1616 1 27.8399664930455 20.665815620129997 1.76824521149 0 0 0
1625 3 29.8285355282625 19.517714752345007 0 0 0 0
1631 3 33.8056735986975 19.517714752345007 0 0 0 0
1622 1 31.81710456348049 20.665815620129997 1.76824521149 0 0 0
1628 1 35.794242633915495 20.665815620129997 1.76824521149 0 0 0
1637 3 37.78281166913249 19.517714752345007 0 0 0 0
1634 1 39.7713807043505 20.665815620129997 1.76824521149 0 0 0
1643 3 41.759949739567496 19.517714752345007 0 0 0 0
1640 1 43.7485187747855 20.665815620129997 1.76824521149 0 0 0
1649 3 45.7370878100025 19.517714752345007 0 0 0 0
1646 1 47.72565684522049 20.665815620129997 1.76824521149 0 0 0
1505 3 49.7142258804375 19.517714752345007 0 -1 0 0
1502 1 51.7027949156555 20.665815620129997 1.76824521149 -1 0 0
1511 3 53.6913639508725 19.517714752345007 0 -1 0 0
1508 1 55.679932986090506 20.665815620129997 1.76824521149 -1 0 0
1517 3 57.6685020213075 19.517714752345007 0 -1 0 0
1514 1 59.6570710565255 20.665815620129997 1.76824521149 -1 0 0
1523 3 61.64564009174251 19.517714752345007 0 -1 0 0
1520 1 63.6342091269605 20.665815620129997 1.76824521149 -1 0 0
1529 3 65.6227781621775 19.517714752345007 0 -1 0 0
1526 1 67.6113471973955 20.665815620129997 1.76824521149 -1 0 0
1535 3 69.5999162326125 19.517714752345007 0 -1 0 0
1532 1 71.5884852678305 20.665815620129997 1.76824521149 -1 0 0
1541 3 73.5770543030475 19.517714752345007 0 -1 0 0
1538 1 75.56562333826551 20.665815620129997 1.76824521149 -1 0 0
1547 3 77.55419237348251 19.517714752345007 0 -1 0 0
1544 1 79.5427614087005 20.665815620129997 1.76824521149 -1 0 0
1553 3 81.53133044391751 19.517714752345007 0 -1 0 0
1550 1 83.5198994791355 20.665815620129997 1.76824521149 -1 0 0
1559 3 85.5084685143525 19.517714752345007 0 -1 0 0
1556 1 87.4970375495705 20.665815620129997 1.76824521149 -1 0 0
1565 3 89.4856065847875 19.517714752345007 0 -1 0 0
1562 1 91.4741756200055 20.665815620129997 1.76824521149 -1 0 0
1571 3 93.46274465522251 19.517714752345007 0 -1 0 0
1568 1 95.4513136904405 20.665815620129997 1.76824521149 -1 0 0
1577 3 97.4398827256575 19.517714752345007 0 -1 0 0
1578 3 4.973799150320701e-13 22.962017355700006 0 0 0 0
1584 3 3.977138070435494 22.962017355700006 0 0 0 0
1590 3 7.954276140870498 22.962017355700006 0 0 0 0
1596 3 11.931414211305494 22.962017355700006 0 0 0 0
1602 3 15.90855228174049 22.962017355700006 0 0 0 0
1608 3 19.885690352175494 22.962017355700006 0 0 0 0
1614 3 23.862828422610498 22.962017355700006 0 0 0 0
1620 3 27.8399664930455 22.962017355700006 0 0 0 0
1626 3 31.81710456348049 22.962017355700006 0 0 0 0
1632 3 35.794242633915495 22.962017355700006 0 0 0 0
1638 3 39.7713807043505 22.962017355700006 0 0 0 0
1644 3 43.7485187747855 22.962017355700006 0 0 0 0
1650 3 47.72565684522049 22.962017355700006 0 0 0 0
1506 3 51.7027949156555 22.962017355700006 0 -1 0 0
1512 3 55.679932986090506 22.962017355700006 0 -1 0 0
1518 3 59.6570710565255 22.962017355700006 0 -1 0 0
1524 3 63.6342091269605 22.962017355700006 0 -1 0 0
1530 3 67.6113471973955 22.962017355700006 0 -1 0 0
1536 3 71.5884852678305 22.962017355700006 0 -1 0 0
1542 3 75.56562333826551 22.962017355700006 0 -1 0 0
1548 3 79.5427614087005 22.962017355700006 0 -1 0 0
1554 3 83.5198994791355 22.962017355700006 0 -1 0 0
1560 3 87.4970375495705 22.962017355700006 0 -1 0 0
1566 3 91.4741756200055 22.962017355700006 0 -1 0 0
1572 3 95.4513136904405 22.962017355700006 0 -1 0 0
1729 1 1.9885690352174947 24.11011822348501 1.76824521149 0 0 0
1735 1 5.965707105652498 24.11011822348501 1.76824521149 0 0 0
1741 1 9.942845176087495 24.11011822348501 1.76824521149 0 0 0
1747 1 13.919983246522499 24.11011822348501 1.76824521149 0 0 0
1753 1 17.897121316957502 24.11011822348501 1.76824521149 0 0 0
1759 1 21.87425938739249 24.11011822348501 1.76824521149 0 0 0
1765 1 25.851397457827495 24.11011822348501 1.76824521149 0 0 0
1771 1 29.8285355282625 24.11011822348501 1.76824521149 0 0 0
1777 1 33.8056735986975 24.11011822348501 1.76824521149 0 0 0
1783 1 37.78281166913249 24.11011822348501 1.76824521149 0 0 0
1789 1 41.759949739567496 24.11011822348501 1.76824521149 0 0 0
1795 1 45.7370878100025 24.11011822348501 1.76824521149 0 0 0
1651 1 49.7142258804375 24.11011822348501 1.76824521149 -1 0 0
1657 1 53.6913639508725 24.11011822348501 1.76824521149 -1 0 0
1663 1 57.6685020213075 24.11011822348501 1.76824521149 -1 0 0
1669 1 61.64564009174251 24.11011822348501 1.76824521149 -1 0 0
1675 1 65.6227781621775 24.11011822348501 1.76824521149 -1 0 0
1681 1 69.5999162326125 24.11011822348501 1.76824521149 -1 0 0
1687 1 73.5770543030475 24.11011822348501 1.76824521149 -1 0 0
1693 1 77.55419237348251 24.11011822348501 1.76824521149 -1 0 0
1699 1 81.53133044391751 24.11011822348501 1.76824521149 -1 0 0
1705 1 85.5084685143525 24.11011822348501 1.76824521149 -1 0 0
1711 1 89.4856065847875 24.11011822348501 1.76824521149 -1 0 0
1717 1 93.46274465522251 24.11011822348501 1.76824521149 -1 0 0
1723 1 97.4398827256575 24.11011822348501 1.76824521149 -1 0 0
1733 3 1.9885690352174947 26.406319959055004 0 0 0 0
1739 3 5.965707105652498 26.406319959055004 0 0 0 0
1745 3 9.942845176087495 26.406319959055004 0 0 0 0
1751 3 13.919983246522499 26.406319959055004 0 0 0 0
1757 3 17.897121316957502 26.406319959055004 0 0 0 0
1763 3 21.87425938739249 26.406319959055004 0 0 0 0
1769 3 25.851397457827495 26.406319959055004 0 0 0 0
1775 3 29.8285355282625 26.406319959055004 0 0 0 0
1781 3 33.8056735986975 26.406319959055004 0 0 0 0
1787 3 37.78281166913249 26.406319959055004 0 0 0 0
1793 3 41.759949739567496 26.406319959055004 0 0 0 0
1799 3 45.7370878100025 26.406319959055004 0 0 0 0
1655 3 49.7142258804375 26.406319959055004 0 -1 0 0
1661 3 53.6913639508725 26.406319959055004 0 -1 0 0
1667 3 57.6685020213075 26.406319959055004 0 -1 0 0
1673 3 61.64564009174251 26.406319959055004 0 -1 0 0
1679 3 65.6227781621775 26.406319959055004 0 -1 0 0
1685 3 69.5999162326125 26.406319959055004 0 -1 0 0
1691 3 73.5770543030475 26.406319959055004 0 -1 0 0
1697 3 77.55419237348251 26.406319959055004 0 -1 0 0
1703 3 81.53133044391751 26.406319959055004 0 -1 0 0
1709 3 85.5084685143525 26.406319959055004 0 -1 0 0
1715 3 89.4856065847875 26.406319959055004 0 -1 0 0
1721 3 93.46274465522251 26.406319959055004 0 -1 0 0
1727 3 97.4398827256575 26.406319959055004 0 -1 0 0
1724 1 4.973799150320701e-13 27.55442082684001 1.76824521149 0 0 0
1730 1 3.977138070435494 27.55442082684001 1.76824521149 0 0 0
1736 1 7.954276140870498 27.55442082684001 1.76824521149 0 0 0
1742 1 11.931414211305494 27.55442082684001 1.76824521149 0 0 0
1748 1 15.90855228174049 27.55442082684001 1.76824521149 0 0 0
1754 1 19.885690352175494 27.55442082684001 1.76824521149 0 0 0
1760 1 23.862828422610498 27.55442082684001 1.76824521149 0 0 0
1766 1 27.8399664930455 27.55442082684001 1.76824521149 0 0 0
1772 1 31.81710456348049 27.55442082684001 1.76824521149 0 0 0
1778 1 35.794242633915495 27.55442082684001 1.76824521149 0 0 0
1784 1 39.7713807043505 27.55442082684001 1.76824521149 0 0 0
1790 1 43.7485187747855 27.55442082684001 1.76824521149 0 0 0
1796 1 47.72565684522049 27.55442082684001 1.76824521149 0 0 0
1652 1 51.7027949156555 27.55442082684001 1.76824521149 -1 0 0
1658 1 55.679932986090506 27.55442082684001 1.76824521149 -1 0 0
1664 1 59.6570710565255 27.55442082684001 1.76824521149 -1 0 0
1670 1 63.6342091269605 27.55442082684001 1.76824521149 -1 0 0
1676 1 67.6113471973955 27.55442082684001 1.76824521149 -1 0 0
1682 1 71.5884852678305 27.55442082684001 1.76824521149 -1 0 0
1688 1 75.56562333826551 27.55442082684001 1.76824521149 -1 0 0
1694 1 79.5427614087005 27.55442082684001 1.76824521149 -1 0 0
1700 1 83.5198994791355 27.55442082684001 1.76824521149 -1 0 0
1706 1 87.4970375495705 27.55442082684001 1.76824521149 -1 0 0
1712 1 91.4741756200055 27.55442082684001 1.76824521149 -1 0 0
1718 1 95.4513136904405 27.55442082684001 1.76824521149 -1 0 0
1728 3 4.973799150320701e-13 29.850622562410003 0 0 0 0
1879 1 1.9885690352174947 30.998723430195007 1.76824521149 0 0 0
1734 3 3.977138070435494 29.850622562410003 0 0 0 0
1885 1 5.965707105652498 30.998723430195007 1.76824521149 0 0 0
1740 3 7.954276140870498 29.850622562410003 0 0 0 0
1891 1 9.942845176087495 30.998723430195007 1.76824521149 0 0 0
1746 3 11.931414211305494 29.850622562410003 0 0 0 0
1897 1 13.919983246522499 30.998723430195007 1.76824521149 0 0 0
1752 3 15.90855228174049 29.850622562410003 0 0 0 0
1903 1 17.897121316957502 30.998723430195007 1.76824521149 0 0 0
1758 3 19.885690352175494 29.850622562410003 0 0 0 0
1909 1 21.87425938739249 30.998723430195007 1.76824521149 0 0 0
1764 3 23.862828422610498 29.850622562410003 0 0 0 0
1915 1 25.851397457827495 30.998723430195007 1.76824521149 0 0 0
1770 3 27.8399664930455 29.850622562410003 0 0 0 0
1921 1 29.8285355282625 30.998723430195007 1.76824521149 0 0 0
1776 3 31.81710456348049 29.850622562410003 0 0 0 0
1927 1 33.8056735986975 30.998723430195007 1.76824521149 0 0 0
1782 3 35.794242633915495 29.850622562410003 0 0 0 0
1933 1 37.78281166913249 30.998723430195007 1.76824521149 0 0 0
1788 3 39.7713807043505 29.850622562410003 0 0 0 0
1939 1 41.759949739567496 30.998723430195007 1.76824521149 0 0 0
1794 3 43.7485187747855 29.850622562410003 0 0 0 0
1945 1 45.7370878100025 30.998723430195007 1.76824521149 0 0 0
1800 3 47.72565684522049 29.850622562410003 0 0 0 0
1801 1 49.7142258804375 30.998723430195007 1.76824521149 -1 0 0
1656 3 51.7027949156555 29.850622562410003 0 -1 0 0
1807 1 53.6913639508725 30.998723430195007 1.76824521149 -1 0 0
1662 3 55.679932986090506 29.850622562410003 0 -1 0 0
1813 1 57.6685020213075 30.998723430195007 1.76824521149 -1 0 0
1668 3 59.6570710565255 29.850622562410003 0 -1 0 0
1819 1 61.64564009174251 30.998723430195007 1.76824521149 -1 0 0
1674 3 63.6342091269605 29.850622562410003 0 -1 0 0
1680 3 67.6113471973955 29.850622562410003 0 -1 0 0
1825 1 65.6227781621775 30.998723430195007 1.76824521149 -1 0 0
1831 1 69.5999162326125 30.998723430195007 1.76824521149 -1 0 0
1686 3 71.5884852678305 29.850622562410003 0 -1 0 0
1837 1 73.5770543030475 30.998723430195007 1.76824521149 -1 0 0
1692 3 75.56562333826551 29.850622562410003 0 -1 0 0
1843 1 77.55419237348251 30.998723430195007 1.76824521149 -1 0 0
1698 3 79.5427614087005 29.850622562410003 0 -1 0 0
1849 1 81.53133044391751 30.998723430195007 1.76824521149 -1 0 0
1704 3 83.5198994791355 29.850622562410003 0 -1 0 0
1855 1 85.5084685143525 30.998723430195007 1.76824521149 -1 0 0
1710 3 87.4970375495705 29.850622562410003 0 -1 0 0
1861 1 89.4856065847875 30.998723430195007 1.76824521149 -1 0 0
1716 3 91.4741756200055 29.850622562410003 0 -1 0 0
1867 1 93.46274465522251 30.998723430195007 1.76824521149 -1 0 0
1722 3 95.4513136904405 29.850622562410003 0 -1 0 0
1873 1 97.4398827256575 30.998723430195007 1.76824521149 -1 0 0
1883 3 1.9885690352174947 33.294925165765 0 0 0 0
1889 3 5.965707105652498 33.294925165765 0 0 0 0
1895 3 9.942845176087495 33.294925165765 0 0 0 0
1901 3 13.919983246522499 33.294925165765 0 0 0 0
1907 3 17.897121316957502 33.294925165765 0 0 0 0
1913 3 21.87425938739249 33.294925165765 0 0 0 0
1919 3 25.851397457827495 33.294925165765 0 0 0 0
1925 3 29.8285355282625 33.294925165765 0 0 0 0
1931 3 33.8056735986975 33.294925165765 0 0 0 0
1937 3 37.78281166913249 33.294925165765 0 0 0 0
1943 3 41.759949739567496 33.294925165765 0 0 0 0
1949 3 45.7370878100025 33.294925165765 0 0 0 0
1805 3 49.7142258804375 33.294925165765 0 -1 0 0
1811 3 53.6913639508725 33.294925165765 0 -1 0 0
1817 3 57.6685020213075 33.294925165765 0 -1 0 0
1823 3 61.64564009174251 33.294925165765 0 -1 0 0
1829 3 65.6227781621775 33.294925165765 0 -1 0 0
1835 3 69.5999162326125 33.294925165765 0 -1 0 0
1841 3 73.5770543030475 33.294925165765 0 -1 0 0
1847 3 77.55419237348251 33.294925165765 0 -1 0 0
1853 3 81.53133044391751 33.294925165765 0 -1 0 0
1859 3 85.5084685143525 33.294925165765 0 -1 0 0
1865 3 89.4856065847875 33.294925165765 0 -1 0 0
1871 3 93.46274465522251 33.294925165765 0 -1 0 0
1877 3 97.4398827256575 33.294925165765 0 -1 0 0
1874 1 4.973799150320701e-13 34.443026033550005 1.76824521149 0 0 0
1880 1 3.977138070435494 34.443026033550005 1.76824521149 0 0 0
1886 1 7.954276140870498 34.443026033550005 1.76824521149 0 0 0
1892 1 11.931414211305494 34.443026033550005 1.76824521149 0 0 0
1898 1 15.90855228174049 34.443026033550005 1.76824521149 0 0 0
1904 1 19.885690352175494 34.443026033550005 1.76824521149 0 0 0
1910 1 23.862828422610498 34.443026033550005 1.76824521149 0 0 0
1916 1 27.8399664930455 34.443026033550005 1.76824521149 0 0 0
1922 1 31.81710456348049 34.443026033550005 1.76824521149 0 0 0
1928 1 35.794242633915495 34.443026033550005 1.76824521149 0 0 0
1934 1 39.7713807043505 34.443026033550005 1.76824521149 0 0 0
1940 1 43.7485187747855 34.443026033550005 1.76824521149 0 0 0
1946 1 47.72565684522049 34.443026033550005 1.76824521149 0 0 0
1802 1 51.7027949156555 34.443026033550005 1.76824521149 -1 0 0
1808 1 55.679932986090506 34.443026033550005 1.76824521149 -1 0 0
1814 1 59.6570710565255 34.443026033550005 1.76824521149 -1 0 0
1820 1 63.6342091269605 34.443026033550005 1.76824521149 -1 0 0
1826 1 67.6113471973955 34.443026033550005 1.76824521149 -1 0 0
1832 1 71.5884852678305 34.443026033550005 1.76824521149 -1 0 0
1838 1 75.56562333826551 34.443026033550005 1.76824521149 -1 0 0
1844 1 79.5427614087005 34.443026033550005 1.76824521149 -1 0 0
1850 1 83.5198994791355 34.443026033550005 1.76824521149 -1 0 0
1856 1 87.4970375495705 34.443026033550005 1.76824521149 -1 0 0