LAMMPS data file via write_data, version 29 Aug 2024, timestep = 3, units = metal

12960 atoms
36 atom types

0 101.537962711164 xlo xhi
0 97.70495017376 ylo yhi
-50 50 zlo zhi

Masses

1 95.95
2 95.95
3 95.95
4 95.95
5 95.95
6 95.95
7 95.95
8 95.95
9 95.95
10 95.95
11 95.95
12 95.95
13 15.999
14 15.999
15 15.999
16 15.999
17 15.999
18 15.999
19 15.999
20 15.999
21 15.999
22 15.999
23 15.999
24 15.999
25 15.999
26 15.999
27 15.999
28 15.999
29 15.999
30 15.999
31 15.999
32 15.999
33 15.999
34 15.999
35 15.999
36 15.999

Atoms # atomic

2271 14 1.4102494821000464 0.8142079181148874 0.03346305123718106 0 0 0
2269 1 5.091663369622044e-13 2.3079486559892846e-13 1.225346383838018 0 0 0
2275 3 2.820498964199514 2.299318009588093e-13 1.2253463838380179 0 0 0
2277 18 4.230748446299049 0.8142079181148875 0.03346305123718131 0 0 0
2281 1 5.640997928398514 2.2886439175341684e-13 1.2253463838380179 0 0 0
2272 2 1.4102494820998088 2.44262375434423 1.2253463838380183 0 0 0
2278 4 4.2307484462988105 2.4426237543442295 1.225346383838018 0 0 0
2274 16 2.9070312286989436e-13 3.2568316724588855 0.03346305123718198 0 0 0
2280 20 2.8204989641992944 3.2568316724588864 0.03346305123718198 0 0 0
2286 16 5.640997928398293 3.2568316724588864 0.033463051237181844 0 0 0
2487 14 1.4102494821000464 5.699455426802886 0.03346305123718165 0 0 0
2485 1 5.091387498601709e-13 4.88524750868823 1.2253463838380183 0 0 0
2491 3 2.8204989641995137 4.885247508688229 1.225346383838018 0 0 0
2493 18 4.230748446299049 5.699455426802887 0.03346305123718182 0 0 0
2497 1 5.640997928398514 4.885247508688229 1.225346383838018 0 0 0
2270 13 1.4102494821000464 0.8142079181148872 2.417104886175844 0 0 0
2276 17 4.230748446299049 0.8142079181148872 2.4171048861758435 0 0 0
2273 15 2.9101320639298337e-13 3.256831672458886 2.4171048861758435 0 0 0
2279 19 2.8204989641992944 3.2568316724588864 2.417104886175844 0 0 0
2285 15 5.640997928398293 3.2568316724588864 2.417104886175844 0 0 0
2486 13 1.4102494821000464 5.699455426802887 2.4171048861758435 0 0 0
2492 17 4.230748446299049 5.699455426802887 2.417104886175844 0 0 0
2283 14 7.051247410498047 0.8142079181148874 0.033463051237181136 0 0 0
2287 3 8.461496892597514 2.298192330434182e-13 1.2253463838380179 0 0 0
2289 18 9.871746374697048 0.8142079181148872 0.03346305123718128 0 0 0
2293 1 11.281995856796515 2.2941797974859327e-13 1.2253463838380179 0 0 0
2284 2 7.051247410497809 2.44262375434423 1.225346383838018 0 0 0
2290 4 9.87174637469681 2.44262375434423 1.225346383838018 0 0 0
2292 20 8.461496892597292 3.2568316724588864 0.03346305123718195 0 0 0
2298 16 11.281995856796293 3.2568316724588864 0.03346305123718188 0 0 0
2499 14 7.051247410498047 5.699455426802887 0.033463051237181796 0 0 0
2503 3 8.461496892597514 4.88524750868823 1.225346383838018 0 0 0
2505 18 9.871746374697048 5.699455426802887 0.03346305123718198 0 0 0
2509 1 11.281995856796515 4.885247508688229 1.225346383838018 0 0 0
2282 13 7.051247410498047 0.8142079181148874 2.417104886175844 0 0 0
2288 17 9.871746374697048 0.8142079181148872 2.417104886175844 0 0 0
2291 19 8.461496892597292 3.2568316724588864 2.417104886175844 0 0 0
2297 15 11.281995856796293 3.2568316724588864 2.4171048861758435 0 0 0
2498 13 7.051247410498047 5.699455426802887 2.417104886175844 0 0 0
2504 17 9.871746374697048 5.699455426802887 2.4171048861758435 0 0 0
2295 14 12.692245338896049 0.8142079181148872 0.033463051237181275 0 0 0
2299 3 14.102494820995515 2.29730361108439e-13 1.2253463838380179 0 0 0
2301 18 15.512744303095047 0.8142079181148875 0.033463051237181386 0 0 0
2305 1 16.92299378519451 2.2849675321705593e-13 1.225346383838018 0 0 0
2296 2 12.69224533889581 2.44262375434423 1.225346383838018 0 0 0
2302 4 15.51274430309481 2.4426237543442295 1.225346383838018 0 0 0
2304 20 14.102494820995295 3.2568316724588864 0.03346305123718195 0 0 0
2310 16 16.92299378519429 3.256831672458887 0.03346305123718195 0 0 0
2511 14 12.692245338896049 5.699455426802887 0.03346305123718179 0 0 0
2515 3 14.102494820995515 4.885247508688229 1.2253463838380179 0 0 0
2517 18 15.512744303095047 5.699455426802887 0.03346305123718192 0 0 0
2521 1 16.92299378519451 4.885247508688229 1.225346383838018 0 0 0
2294 13 12.692245338896049 0.8142079181148872 2.417104886175844 0 0 0
2300 17 15.512744303095047 0.8142079181148871 2.417104886175844 0 0 0
2303 19 14.102494820995295 3.2568316724588864 2.417104886175844 0 0 0
2309 15 16.92299378519429 3.256831672458887 2.417104886175844 0 0 0
2510 13 12.692245338896049 5.699455426802887 2.417104886175844 0 0 0
2516 17 15.512744303095047 5.699455426802887 2.417104886175844 0 0 0
2307 14 18.333243267294044 0.8142079181148877 0.03346305123718108 0 0 0
2313 18 21.153742231493045 0.8142079181148874 0.03346305123718128 0 0 0
2311 3 19.74349274939351 2.301478834992513e-13 1.2253463838380179 0 0 0
2317 1 22.563991713592515 2.2993215972832744e-13 1.2253463838380179 0 0 0
2308 2 18.333243267293806 2.44262375434423 1.2253463838380183 0 0 0
2314 4 21.15374223149281 2.4426237543442304 1.225346383838018 0 0 0
2316 20 19.74349274939329 3.2568316724588864 0.03346305123718178 0 0 0
2322 16 22.563991713592294 3.2568316724588864 0.03346305123718206 0 0 0
2523 14 18.333243267294044 5.699455426802887 0.03346305123718167 0 0 0
2529 18 21.153742231493045 5.699455426802887 0.033463051237181844 0 0 0
2527 3 19.74349274939351 4.88524750868823 1.2253463838380183 0 0 0
2533 1 22.563991713592515 4.88524750868823 1.2253463838380183 0 0 0
2306 13 18.333243267294044 0.8142079181148874 2.417104886175844 0 0 0
2312 17 21.153742231493045 0.8142079181148874 2.4171048861758435 0 0 0
2315 19 19.74349274939329 3.2568316724588864 2.417104886175844 0 0 0
2321 15 22.563991713592294 3.2568316724588864 2.417104886175844 0 0 0
2522 13 18.333243267294044 5.699455426802887 2.417104886175844 0 0 0
2528 17 21.153742231493045 5.699455426802887 2.4171048861758435 0 0 0
2319 14 23.97424119569205 0.8142079181148874 0.033463051237181296 0 0 0
2323 3 25.384490677791515 2.2959887479580873e-13 1.2253463838380179 0 0 0
2325 18 26.79474015989105 0.8142079181148875 0.033463051237181185 0 0 0
2329 1 28.20498964199051 2.2828149055717974e-13 1.225346383838018 0 0 0
2331 14 29.615239124090046 0.8142079181148876 0.033463051237181074 0 0 0
2320 2 23.974241195691814 2.4426237543442304 1.225346383838018 0 0 0
2326 4 26.79474015989081 2.4426237543442295 1.2253463838380183 0 0 0
2332 2 29.615239124089808 2.44262375434423 1.225346383838018 0 0 0
2328 20 25.384490677791298 3.2568316724588864 0.03346305123718204 0 0 0
2334 16 28.20498964199029 3.256831672458887 0.03346305123718139 0 0 0
2535 14 23.97424119569205 5.699455426802887 0.03346305123718208 0 0 0
2539 3 25.384490677791515 4.88524750868823 1.2253463838380179 0 0 0
2541 18 26.79474015989105 5.699455426802887 0.03346305123718175 0 0 0
2545 1 28.20498964199051 4.885247508688229 1.225346383838018 0 0 0
2547 14 29.615239124090046 5.699455426802887 0.033463051237181844 0 0 0
2318 13 23.97424119569205 0.8142079181148871 2.4171048861758435 0 0 0
2324 17 26.79474015989105 0.8142079181148872 2.417104886175844 0 0 0
2330 13 29.615239124090046 0.8142079181148874 2.417104886175844 0 0 0
2327 19 25.384490677791298 3.2568316724588864 2.4171048861758435 0 0 0
2333 15 28.20498964199029 3.256831672458887 2.4171048861758444 0 0 0
2534 13 23.97424119569205 5.699455426802887 2.4171048861758435 0 0 0
2540 17 26.79474015989105 5.699455426802887 2.417104886175844 0 0 0
2546 13 29.615239124090046 5.699455426802887 2.4171048861758435 0 0 0
2335 3 31.025488606189512 2.300485812920493e-13 1.2253463838380176 0 0 0
2337 18 32.43573808828904 0.8142079181148876 0.03346305123718102 0 0 0
2341 1 33.84598757038851 2.298591563200251e-13 1.2253463838380176 0 0 0
2343 14 35.256237052488046 0.8142079181148871 0.033463051237181615 0 0 0
2338 4 32.43573808828881 2.44262375434423 1.225346383838018 0 0 0
2344 2 35.25623705248781 2.44262375434423 1.225346383838018 0 0 0
2340 20 31.025488606189292 3.2568316724588864 0.03346305123718211 0 0 0
2346 16 33.845987570388296 3.2568316724588864 0.033463051237181664 0 0 0
2551 3 31.02548860618951 4.88524750868823 1.2253463838380183 0 0 0
2553 18 32.43573808828904 5.699455426802887 0.033463051237181594 0 0 0
2557 1 33.845987570388516 4.885247508688229 1.225346383838018 0 0 0
2559 14 35.256237052488046 5.699455426802886 0.03346305123718225 0 0 0
2336 17 32.43573808828904 0.8142079181148875 2.417104886175844 0 0 0
2342 13 35.256237052488046 0.8142079181148869 2.4171048861758435 0 0 0
2339 19 31.025488606189292 3.2568316724588864 2.4171048861758435 0 0 0
2345 15 33.845987570388296 3.2568316724588864 2.417104886175844 0 0 0
2552 17 32.43573808828904 5.699455426802887 2.417104886175844 0 0 0
2558 13 35.256237052488046 5.699455426802886 2.4171048861758435 0 0 0
2347 3 36.66648653458751 2.2823106768307816e-13 1.225346383838018 0 0 0
2349 18 38.07673601668704 0.8142079181148874 0.03346305123718152 0 0 0
2355 14 40.89723498088605 0.8142079181148878 0.03346305123718046 0 0 0
2353 1 39.48698549878651 2.303936618513536e-13 1.2253463838380176 0 0 0
2350 4 38.07673601668681 2.4426237543442295 1.2253463838380179 0 0 0
2356 2 40.897234980885806 2.44262375434423 1.225346383838018 0 0 0
2352 20 36.66648653458729 3.2568316724588864 0.03346305123718186 0 0 0
2358 16 39.48698549878629 3.256831672458886 0.0334630512371823 0 0 0
2563 3 36.66648653458751 4.885247508688229 1.225346383838018 0 0 0
2565 18 38.07673601668704 5.699455426802887 0.033463051237181976 0 0 0
2571 14 40.89723498088604 5.699455426802887 0.03346305123718122 0 0 0
2569 1 39.48698549878651 4.885247508688229 1.225346383838018 0 0 0
2348 17 38.07673601668704 0.814207918114887 2.417104886175844 0 0 0
2354 13 40.89723498088605 0.8142079181148878 2.4171048861758444 0 0 0
2351 19 36.66648653458729 3.2568316724588864 2.4171048861758444 0 0 0
2357 15 39.48698549878629 3.256831672458886 2.4171048861758435 0 0 0
2564 17 38.07673601668704 5.699455426802887 2.417104886175844 0 0 0
2570 13 40.89723498088604 5.699455426802887 2.417104886175844 0 0 0
2359 3 42.307484462985514 2.296727509145959e-13 1.2253463838380176 0 0 0
2361 18 43.717733945085044 0.8142079181148874 0.033463051237181636 0 0 0
2365 1 45.12798342718451 2.298571297947267e-13 1.2253463838380176 0 0 0
2367 14 46.53823290928405 0.8142079181148875 0.03346305123718104 0 0 0
2362 4 43.71773394508481 2.4426237543442304 1.2253463838380179 0 0 0
2368 2 46.53823290928381 2.4426237543442295 1.225346383838018 0 0 0
2364 20 42.30748446298529 3.2568316724588864 0.03346305123718202 0 0 0
2370 16 45.1279834271843 3.2568316724588864 0.033463051237181636 0 0 0
2575 3 42.307484462985514 4.88524750868823 1.2253463838380183 0 0 0
2577 18 43.717733945085044 5.699455426802887 0.03346305123718208 0 0 0
2581 1 45.12798342718451 4.885247508688229 1.225346383838018 0 0 0
2583 14 46.53823290928405 5.699455426802887 0.033463051237181754 0 0 0
2360 17 43.717733945085044 0.8142079181148872 2.4171048861758435 0 0 0
2366 13 46.53823290928405 0.8142079181148872 2.417104886175844 0 0 0
2363 19 42.30748446298529 3.2568316724588864 2.4171048861758435 0 0 0
2369 15 45.1279834271843 3.2568316724588864 2.417104886175844 0 0 0
2576 17 43.717733945085044 5.699455426802887 2.4171048861758435 0 0 0
2582 13 46.53823290928405 5.699455426802886 2.417104886175844 0 0 0
2371 3 47.948482391383514 2.2855809560717476e-13 1.225346383838018 0 0 0
2373 18 49.358731873483045 0.8142079181148875 0.03346305123718118 0 0 0
2161 1 50.76898135558251 2.2955161424794783e-13 1.2253463838380179 -1 0 0
2163 14 52.17923083768204 0.8142079181148874 0.03346305123718137 -1 0 0
2167 3 53.58948031978151 2.3004128398391566e-13 1.2253463838380179 -1 0 0
2374 4 49.35873187348281 2.4426237543442295 1.225346383838018 0 0 0
2164 2 52.17923083768181 2.44262375434423 1.2253463838380179 -1 0 0
2376 20 47.948482391383294 3.2568316724588864 0.033463051237181594 0 0 0
2166 16 50.76898135558229 3.256831672458886 0.03346305123718221 -1 0 0
2172 20 53.589480319781295 3.256831672458886 0.03346305123718223 -1 0 0
2587 3 47.948482391383514 4.885247508688229 1.2253463838380179 0 0 0
2589 18 49.358731873483045 5.699455426802887 0.03346305123718179 0 0 0
2377 1 50.76898135558251 4.885247508688229 1.225346383838018 -1 0 0
2379 14 52.17923083768204 5.699455426802887 0.03346305123718202 -1 0 0
2383 3 53.58948031978151 4.885247508688229 1.2253463838380179 -1 0 0
2372 17 49.358731873483045 0.8142079181148875 2.417104886175844 0 0 0
2162 13 52.17923083768204 0.8142079181148871 2.4171048861758435 -1 0 0
2375 19 47.948482391383294 3.2568316724588864 2.4171048861758444 0 0 0
2165 15 50.76898135558229 3.2568316724588864 2.417104886175843 -1 0 0
2171 19 53.589480319781295 3.256831672458886 2.4171048861758435 -1 0 0
2588 17 49.358731873483045 5.699455426802887 2.417104886175844 0 0 0
2378 13 52.17923083768204 5.699455426802887 2.4171048861758435 -1 0 0
2169 18 54.999729801881045 0.8142079181148874 0.033463051237181615 -1 0 0
2173 1 56.40997928398051 2.293680920107957e-13 1.225346383838018 -1 0 0
2175 14 57.82022876608005 0.8142079181148876 0.033463051237181046 -1 0 0
2179 3 59.230478248179516 2.2892075746395074e-13 1.2253463838380179 -1 0 0
2170 4 54.99972980188081 2.4426237543442295 1.225346383838018 -1 0 0
2176 2 57.82022876607981 2.4426237543442295 1.225346383838018 -1 0 0
2178 16 56.40997928398029 3.2568316724588864 0.03346305123718155 -1 0 0
2184 20 59.23047824817929 3.2568316724588864 0.03346305123718173 -1 0 0
2385 18 54.999729801881045 5.699455426802886 0.0334630512371822 -1 0 0
2389 1 56.40997928398051 4.885247508688229 1.225346383838018 -1 0 0
2391 14 57.82022876608005 5.699455426802887 0.03346305123718162 -1 0 0
2395 3 59.230478248179516 4.885247508688229 1.225346383838018 -1 0 0
2168 17 54.999729801881045 0.8142079181148871 2.4171048861758435 -1 0 0
2174 13 57.82022876608005 0.8142079181148875 2.417104886175844 -1 0 0
2177 15 56.40997928398029 3.2568316724588864 2.417104886175844 -1 0 0
2183 19 59.23047824817929 3.256831672458887 2.417104886175844 -1 0 0
2384 17 54.999729801881045 5.699455426802886 2.4171048861758435 -1 0 0
2390 13 57.82022876608005 5.699455426802887 2.417104886175844 -1 0 0
2181 18 60.640727730279046 0.8142079181148876 0.03346305123718083 -1 0 0
2185 1 62.05097721237851 2.300550353167984e-13 1.2253463838380179 -1 0 0
2187 14 63.46122669447805 0.8142079181148869 0.03346305123718231 -1 0 0
2191 3 64.87147617657752 2.2890912685726815e-13 1.2253463838380176 -1 0 0
2182 4 60.640727730278805 2.44262375434423 1.225346383838018 -1 0 0
2188 2 63.46122669447781 2.4426237543442304 1.2253463838380179 -1 0 0
2190 16 62.05097721237829 3.2568316724588864 0.033463051237182045 -1 0 0
2196 20 64.8714761765773 3.256831672458886 0.033463051237182455 -1 0 0
2397 18 60.640727730279046 5.699455426802887 0.03346305123718127 -1 0 0
2401 1 62.05097721237851 4.88524750868823 1.225346383838018 -1 0 0
2403 14 63.46122669447805 5.699455426802886 0.033463051237182864 -1 0 0
2407 3 64.87147617657752 4.885247508688229 1.2253463838380183 -1 0 0
2180 17 60.640727730279046 0.8142079181148874 2.4171048861758444 -1 0 0
2186 13 63.46122669447805 0.8142079181148867 2.4171048861758426 -1 0 0
2189 15 62.05097721237829 3.2568316724588864 2.417104886175844 -1 0 0
2195 19 64.8714761765773 3.256831672458886 2.417104886175843 -1 0 0
2396 17 60.640727730279046 5.699455426802887 2.4171048861758444 -1 0 0
2402 13 63.46122669447805 5.699455426802886 2.4171048861758426 -1 0 0
2193 18 66.28172565867705 0.8142079181148875 0.0334630512371815 -1 0 0
2197 1 67.69197514077652 2.2951303882565976e-13 1.2253463838380176 -1 0 0
2199 14 69.10222462287605 0.8142079181148878 0.03346305123718045 -1 0 0
2203 3 70.51247410497551 2.2862330882930544e-13 1.225346383838018 -1 0 0
2194 4 66.2817256586768 2.442623754344229 1.225346383838018 -1 0 0
2200 2 69.10222462287581 2.44262375434423 1.225346383838018 -1 0 0
2202 16 67.6919751407763 3.256831672458887 0.033463051237180914 -1 0 0
2208 20 70.5124741049753 3.256831672458887 0.03346305123718214 -1 0 0
2409 18 66.28172565867705 5.699455426802886 0.033463051237182115 -1 0 0
2413 1 67.69197514077652 4.885247508688229 1.225346383838018 -1 0 0
2415 14 69.10222462287605 5.699455426802887 0.033463051237181185 -1 0 0
2419 3 70.51247410497551 4.885247508688229 1.2253463838380183 -1 0 0
2192 17 66.28172565867705 0.8142079181148872 2.417104886175843 -1 0 0
2198 13 69.10222462287605 0.8142079181148878 2.4171048861758444 -1 0 0
2201 15 67.6919751407763 3.2568316724588864 2.417104886175845 -1 0 0
2207 19 70.5124741049753 3.256831672458887 2.4171048861758435 -1 0 0
2408 17 66.28172565867705 5.699455426802886 2.4171048861758435 -1 0 0
2414 13 69.10222462287605 5.699455426802887 2.4171048861758444 -1 0 0
2205 18 71.92272358707504 0.814207918114887 0.033463051237181594 -1 0 0
2209 1 73.33297306917451 2.3066585346024316e-13 1.2253463838380179 -1 0 0
2211 14 74.74322255127404 0.8142079181148881 0.03346305123718048 -1 0 0
2215 3 76.1534720333735 2.273364139944041e-13 1.225346383838018 -1 0 0
2217 18 77.56372151547303 0.814207918114887 0.03346305123718164 -1 0 0
2206 4 71.92272358707481 2.4426237543442304 1.2253463838380183 -1 0 0
2212 2 74.7432225512738 2.4426237543442286 1.2253463838380183 -1 0 0
2218 4 77.5637215154728 2.442623754344231 1.2253463838380183 -1 0 0
2214 16 73.3329730691743 3.256831672458886 0.03346305123718242 -1 0 0
2220 20 76.15347203337329 3.256831672458887 0.0334630512371812 -1 0 0
2421 18 71.92272358707504 5.699455426802887 0.03346305123718233 -1 0 0
2425 1 73.33297306917451 4.88524750868823 1.2253463838380183 -1 0 0
2427 14 74.74322255127404 5.699455426802887 0.03346305123718116 -1 0 0
2431 3 76.1534720333735 4.885247508688228 1.225346383838018 -1 0 0
2433 18 77.56372151547303 5.699455426802887 0.03346305123718242 -1 0 0
2204 17 71.92272358707504 0.8142079181148868 2.4171048861758435 -1 0 0
2210 13 74.74322255127404 0.8142079181148878 2.4171048861758444 -1 0 0
2216 17 77.56372151547303 0.8142079181148869 2.4171048861758435 -1 0 0
2213 15 73.3329730691743 3.256831672458886 2.417104886175843 -1 0 0
2219 19 76.15347203337329 3.256831672458887 2.4171048861758444 -1 0 0
2420 17 71.92272358707504 5.699455426802886 2.417104886175843 -1 0 0
2426 13 74.74322255127404 5.699455426802887 2.4171048861758444 -1 0 0
2432 17 77.56372151547303 5.699455426802887 2.4171048861758435 -1 0 0
2221 1 78.97397099757251 2.2998292589093867e-13 1.2253463838380179 -1 0 0
2223 14 80.38422047967204 0.8142079181148875 0.03346305123718145 -1 0 0
2227 3 81.79446996177151 2.299328200480408e-13 1.2253463838380176 -1 0 0
2229 18 83.20471944387104 0.8142079181148874 0.03346305123718153 -1 0 0
2224 2 80.38422047967181 2.44262375434423 1.2253463838380179 -1 0 0
2230 4 83.20471944387081 2.44262375434423 1.2253463838380179 -1 0 0
2226 16 78.9739709975723 3.2568316724588864 0.033463051237182025 -1 0 0
2232 20 81.7944699617713 3.2568316724588864 0.033463051237182066 -1 0 0
2437 1 78.97397099757251 4.88524750868823 1.2253463838380183 -1 0 0
2439 14 80.38422047967204 5.699455426802887 0.03346305123718189 -1 0 0
2443 3 81.79446996177151 4.88524750868823 1.2253463838380185 -1 0 0
2445 18 83.20471944387104 5.699455426802887 0.03346305123718176 -1 0 0
2222 13 80.38422047967204 0.8142079181148872 2.417104886175844 -1 0 0
2228 17 83.20471944387104 0.8142079181148872 2.417104886175844 -1 0 0
2225 15 78.9739709975723 3.2568316724588864 2.417104886175844 -1 0 0
2231 19 81.7944699617713 3.2568316724588864 2.417104886175844 -1 0 0
2438 13 80.38422047967204 5.699455426802887 2.4171048861758435 -1 0 0
2444 17 83.20471944387104 5.699455426802887 2.4171048861758435 -1 0 0
2233 1 84.61496892597052 2.2993755596951946e-13 1.2253463838380176 -1 0 0
2235 14 86.02521840807005 0.8142079181148875 0.03346305123718143 -1 0 0
2239 3 87.43546789016952 2.305736002176836e-13 1.2253463838380179 -1 0 0
2241 18 88.84571737226905 0.814207918114888 0.033463051237180526 -1 0 0
2236 2 86.02521840806982 2.44262375434423 1.2253463838380179 -1 0 0
2242 4 88.84571737226881 2.4426237543442286 1.2253463838380183 -1 0 0
2238 16 84.6149689259703 3.2568316724588864 0.03346305123718205 -1 0 0
2244 20 87.4354678901693 3.256831672458886 0.03346305123718244 -1 0 0
2449 1 84.61496892597052 4.88524750868823 1.2253463838380185 -1 0 0
2451 14 86.02521840807005 5.699455426802887 0.03346305123718192 -1 0 0
2455 3 87.43546789016952 4.88524750868823 1.2253463838380183 -1 0 0
2457 18 88.84571737226905 5.699455426802887 0.03346305123718114 -1 0 0
2234 13 86.02521840807005 0.8142079181148872 2.417104886175844 -1 0 0
2240 17 88.84571737226905 0.8142079181148878 2.4171048861758444 -1 0 0
2237 15 84.6149689259703 3.2568316724588864 2.417104886175844 -1 0 0
2243 19 87.4354678901693 3.256831672458886 2.4171048861758435 -1 0 0
2450 13 86.02521840807005 5.699455426802887 2.4171048861758435 -1 0 0
2456 17 88.84571737226905 5.699455426802887 2.4171048861758444 -1 0 0
2245 1 90.25596685436851 2.2736320123685154e-13 1.225346383838018 -1 0 0
2247 14 91.66621633646804 0.814207918114887 0.03346305123718167 -1 0 0
2251 3 93.07646581856751 2.3068013243108155e-13 1.2253463838380179 -1 0 0
2253 18 94.48671530066704 0.8142079181148881 0.03346305123718048 -1 0 0
2248 2 91.66621633646781 2.442623754344231 1.2253463838380183 -1 0 0
2254 4 94.4867153006668 2.4426237543442286 1.2253463838380183 -1 0 0
2250 16 90.2559668543683 3.256831672458887 0.03346305123718119 -1 0 0
2256 20 93.0764658185673 3.256831672458886 0.033463051237182434 -1 0 0
2461 1 90.25596685436851 4.885247508688228 1.225346383838018 -1 0 0
2463 14 91.66621633646804 5.699455426802886 0.033463051237182455 -1 0 0
2467 3 93.07646581856751 4.88524750868823 1.2253463838380183 -1 0 0
2469 18 94.48671530066704 5.699455426802887 0.03346305123718116 -1 0 0
2246 13 91.66621633646804 0.8142079181148869 2.4171048861758435 -1 0 0
2252 17 94.48671530066704 0.8142079181148878 2.4171048861758444 -1 0 0
2249 15 90.2559668543683 3.256831672458887 2.4171048861758444 -1 0 0
2255 19 93.0764658185673 3.256831672458886 2.417104886175843 -1 0 0
2462 13 91.66621633646804 5.699455426802886 2.4171048861758435 -1 0 0
2468 17 94.48671530066704 5.699455426802887 2.4171048861758444 -1 0 0
2257 1 95.8969647827665 2.2734159016801836e-13 1.225346383838018 -1 0 0
2259 14 97.30721426486603 0.8142079181148871 0.03346305123718173 -1 0 0
2263 3 98.7174637469655 2.29879078830296e-13 1.225346383838018 -1 0 0
2265 18 100.12771322906504 0.8142079181148874 0.033463051237180776 -1 0 0
2260 2 97.3072142648658 2.442623754344231 1.2253463838380183 -1 0 0
2266 4 100.12771322906481 2.44262375434423 1.2253463838380187 -1 0 0
2262 16 95.89696478276629 3.256831672458887 0.03346305123718123 -1 0 0
2268 20 98.7174637469653 3.2568316724588864 0.033463051237181796 -1 0 0
2473 1 95.8969647827665 4.885247508688228 1.225346383838018 -1 0 0
2475 14 97.30721426486603 5.699455426802887 0.03346305123718231 -1 0 0
2479 3 98.7174637469655 4.88524750868823 1.2253463838380185 -1 0 0
2481 18 100.12771322906504 5.699455426802887 0.03346305123718161 -1 0 0
2258 13 97.30721426486603 0.8142079181148869 2.4171048861758435 -1 0 0
2264 17 100.12771322906504 0.8142079181148876 2.417104886175844 -1 0 0
2261 15 95.89696478276629 3.256831672458887 2.417104886175845 -1 0 0
2267 19 98.7174637469653 3.256831672458886 2.4171048861758435 -1 0 0
2474 13 97.30721426486603 5.699455426802886 2.417104886175843 -1 0 0
2480 17 100.12771322906504 5.699455426802886 2.417104886175844 -1 0 0
2488 2 1.410249482099809 7.327871263032231 1.2253463838380183 0 0 0
2494 4 4.2307484462988105 7.32787126303223 1.225346383838018 0 0 0
2490 16 2.9060369616744383e-13 8.142079181146887 0.03346305123718172 0 0 0
2496 20 2.820498964199294 8.142079181146888 0.0334630512371819 0 0 0
2502 16 5.640997928398293 8.142079181146888 0.0334630512371818 0 0 0
2703 14 1.4102494821000466 10.584702935490888 0.03346305123718192 0 0 0
2701 1 5.091612450470249e-13 9.770495017376232 1.2253463838380185 0 0 0
2707 3 2.820498964199514 9.77049501737623 1.2253463838380183 0 0 0
2709 18 4.230748446299049 10.584702935490888 0.033463051237181955 0 0 0
2713 1 5.640997928398514 9.77049501737623 1.225346383838018 0 0 0
2489 15 2.9096120484544196e-13 8.142079181146888 2.4171048861758435 0 0 0
2495 19 2.820498964199294 8.142079181146888 2.4171048861758435 0 0 0
2501 15 5.640997928398294 8.142079181146888 2.417104886175844 0 0 0
2702 13 1.4102494821000464 10.584702935490888 2.417104886175844 0 0 0
2708 17 4.230748446299049 10.584702935490888 2.417104886175844 0 0 0
2500 2 7.051247410497809 7.327871263032231 1.2253463838380183 0 0 0
2506 4 9.87174637469681 7.327871263032231 1.225346383838018 0 0 0
2508 20 8.461496892597292 8.142079181146888 0.03346305123718197 0 0 0
2514 16 11.281995856796293 8.142079181146888 0.03346305123718207 0 0 0
2715 14 7.051247410498047 10.584702935490888 0.03346305123718182 0 0 0
2719 3 8.461496892597514 9.77049501737623 1.225346383838018 0 0 0
2721 18 9.871746374697048 10.584702935490888 0.03346305123718185 0 0 0
2725 1 11.281995856796515 9.77049501737623 1.2253463838380179 0 0 0
2507 19 8.461496892597292 8.142079181146888 2.4171048861758435 0 0 0
2513 15 11.281995856796293 8.142079181146888 2.4171048861758435 0 0 0
2714 13 7.051247410498047 10.584702935490888 2.417104886175844 0 0 0
2720 17 9.871746374697048 10.584702935490888 2.417104886175844 0 0 0
2512 2 12.69224533889581 7.327871263032231 1.225346383838018 0 0 0
2518 4 15.51274430309481 7.32787126303223 1.2253463838380179 0 0 0
2520 20 14.102494820995295 8.142079181146888 0.03346305123718203 0 0 0
2526 16 16.92299378519429 8.142079181146887 0.0334630512371819 0 0 0
2727 14 12.692245338896047 10.584702935490888 0.03346305123718189 0 0 0
2731 3 14.102494820995515 9.77049501737623 1.225346383838018 0 0 0
2733 18 15.512744303095047 10.584702935490888 0.033463051237182 0 0 0
2737 1 16.92299378519451 9.77049501737623 1.225346383838018 0 0 0
2519 19 14.102494820995295 8.142079181146888 2.417104886175844 0 0 0
2525 15 16.92299378519429 8.142079181146888 2.417104886175844 0 0 0
2726 13 12.692245338896047 10.584702935490888 2.417104886175844 0 0 0
2732 17 15.512744303095047 10.584702935490888 2.417104886175844 0 0 0
2524 2 18.333243267293806 7.32787126303223 1.225346383838018 0 0 0
2530 4 21.15374223149281 7.327871263032231 1.2253463838380183 0 0 0
2532 20 19.74349274939329 8.142079181146888 0.03346305123718177 0 0 0
2538 16 22.563991713592294 8.142079181146888 0.03346305123718203 0 0 0
2739 14 18.333243267294044 10.584702935490888 0.03346305123718173 0 0 0
2745 18 21.153742231493045 10.584702935490888 0.03346305123718212 0 0 0
2743 3 19.74349274939351 9.770495017376232 1.2253463838380183 0 0 0
2749 1 22.563991713592515 9.77049501737623 1.225346383838018 0 0 0
2531 19 19.74349274939329 8.142079181146888 2.417104886175844 0 0 0
2537 15 22.563991713592294 8.142079181146888 2.4171048861758435 0 0 0
2738 13 18.333243267294044 10.584702935490888 2.417104886175844 0 0 0
2744 17 21.153742231493045 10.584702935490888 2.4171048861758435 0 0 0
2536 2 23.974241195691814 7.327871263032231 1.225346383838018 0 0 0
2542 4 26.79474015989081 7.327871263032229 1.2253463838380179 0 0 0
2548 2 29.615239124089808 7.32787126303223 1.225346383838018 0 0 0
2544 20 25.384490677791298 8.142079181146888 0.03346305123718194 0 0 0
2550 16 28.20498964199029 8.142079181146888 0.03346305123718144 0 0 0
2751 14 23.97424119569205 10.584702935490888 0.03346305123718216 0 0 0
2755 3 25.384490677791515 9.77049501737623 1.225346383838018 0 0 0
2757 18 26.79474015989105 10.584702935490888 0.033463051237181796 0 0 0
2761 1 28.20498964199051 9.77049501737623 1.225346383838018 0 0 0
2763 14 29.615239124090046 10.584702935490888 0.03346305123718183 0 0 0
2543 19 25.384490677791298 8.142079181146888 2.4171048861758435 0 0 0
2549 15 28.20498964199029 8.142079181146888 2.417104886175844 0 0 0
2750 13 23.97424119569205 10.584702935490888 2.4171048861758435 0 0 0
2756 17 26.79474015989105 10.584702935490888 2.417104886175844 0 0 0
2762 13 29.615239124090046 10.584702935490888 2.417104886175844 0 0 0
2554 4 32.43573808828881 7.32787126303223 1.225346383838018 0 0 0
2560 2 35.25623705248781 7.32787126303223 1.2253463838380183 0 0 0
2556 20 31.025488606189292 8.142079181146888 0.03346305123718216 0 0 0
2562 16 33.845987570388296 8.142079181146887 0.033463051237181685 0 0 0
2767 3 31.025488606189512 9.77049501737623 1.225346383838018 0 0 0
2769 18 32.43573808828904 10.584702935490888 0.033463051237181615 0 0 0
2773 1 33.845987570388516 9.77049501737623 1.225346383838018 0 0 0
2775 14 35.256237052488046 10.584702935490887 0.0334630512371822 0 0 0
2555 19 31.025488606189292 8.142079181146888 2.4171048861758435 0 0 0
2561 15 33.845987570388296 8.142079181146887 2.417104886175844 0 0 0
2768 17 32.43573808828904 10.584702935490888 2.417104886175844 0 0 0
2774 13 35.256237052488046 10.584702935490887 2.4171048861758435 0 0 0
2566 4 38.07673601668681 7.32787126303223 1.225346383838018 0 0 0
2572 2 40.897234980885806 7.327871263032231 1.2253463838380183 0 0 0
2568 20 36.66648653458729 8.142079181146888 0.033463051237181664 0 0 0
2574 16 39.48698549878629 8.142079181146888 0.0334630512371824 0 0 0
2779 3 36.66648653458751 9.77049501737623 1.225346383838018 0 0 0
2781 18 38.07673601668704 10.584702935490888 0.03346305123718183 0 0 0
2787 14 40.89723498088605 10.584702935490888 0.03346305123718128 0 0 0
2785 1 39.48698549878651 9.770495017376232 1.225346383838018 0 0 0
2567 19 36.66648653458729 8.142079181146888 2.4171048861758444 0 0 0
2573 15 39.48698549878629 8.142079181146888 2.417104886175843 0 0 0
2780 17 38.07673601668704 10.584702935490887 2.417104886175844 0 0 0
2786 13 40.89723498088605 10.584702935490888 2.4171048861758444 0 0 0
2578 4 43.71773394508481 7.327871263032231 1.225346383838018 0 0 0
2584 2 46.53823290928381 7.327871263032229 1.225346383838018 0 0 0
2580 20 42.30748446298529 8.142079181146888 0.03346305123718181 0 0 0
2586 16 45.1279834271843 8.142079181146887 0.03346305123718174 0 0 0
2791 3 42.307484462985514 9.77049501737623 1.225346383838018 0 0 0
2793 18 43.717733945085044 10.584702935490888 0.03346305123718229 0 0 0