LAMMPS data file via write_data, version 29 Aug 2024, timestep = 3, units = metal

8640 atoms
24 atom types

0 101.537962711164 xlo xhi
0 97.70495017376 ylo yhi
-50 50 zlo zhi

Masses

1 95.95
2 95.95
3 95.95
4 95.95
5 95.95
6 95.95
7 95.95
8 95.95
9 15.999
10 15.999
11 15.999
12 15.999
13 15.999
14 15.999
15 15.999
16 15.999
17 15.999
18 15.999
19 15.999
20 15.999
21 15.999
22 15.999
23 15.999
24 15.999

Atoms # atomic

2271 10 1.4102494821000464 0.8142079181148874 0.033466395059373766 0 0 0
2269 1 5.087969188261856e-13 2.3076151843764616e-13 1.2253451472414125 0 0 0
2275 3 2.8204989641995133 2.2983721639423775e-13 1.2253451472414123 0 0 0
2277 14 4.230748446299049 0.8142079181148875 0.03346639505937404 0 0 0
2281 1 5.640997928398514 2.2915861851854424e-13 1.2253451472414123 0 0 0
2272 2 1.4102494820998088 2.4426237543442304 1.2253451472414127 0 0 0
2278 4 4.2307484462988105 2.44262375434423 1.2253451472414125 0 0 0
2274 12 2.910618787199856e-13 3.256831672458886 0.03346639505937471 0 0 0
2280 16 2.8204989641992944 3.2568316724588864 0.03346639505937481 0 0 0
2286 12 5.640997928398294 3.2568316724588864 0.03346639505937447 0 0 0
2487 10 1.4102494821000464 5.699455426802887 0.03346639505937449 0 0 0
2485 1 5.087163016779427e-13 4.885247508688231 1.2253451472414127 0 0 0
2491 3 2.8204989641995133 4.88524750868823 1.2253451472414127 0 0 0
2493 14 4.230748446299049 5.699455426802887 0.033466395059374654 0 0 0
2497 1 5.640997928398514 4.885247508688229 1.2253451472414125 0 0 0
2270 9 1.4102494821000464 0.8142079181148872 2.4170950686552053 0 0 0
2276 13 4.230748446299049 0.8142079181148872 2.4170950686552053 0 0 0
2273 11 2.9139330657580983e-13 3.256831672458886 2.417095068655205 0 0 0
2279 15 2.8204989641992944 3.2568316724588864 2.417095068655205 0 0 0
2285 11 5.640997928398294 3.2568316724588864 2.4170950686552053 0 0 0
2486 9 1.4102494821000464 5.699455426802887 2.4170950686552053 0 0 0
2492 13 4.230748446299049 5.699455426802886 2.4170950686552053 0 0 0
2283 10 7.051247410498047 0.8142079181148875 0.03346639505937395 0 0 0
2287 3 8.461496892597514 2.298528823350209e-13 1.2253451472414123 0 0 0
2289 14 9.871746374697048 0.8142079181148874 0.03346639505937422 0 0 0
2293 1 11.281995856796515 2.2928368195001923e-13 1.2253451472414123 0 0 0
2284 2 7.051247410497809 2.44262375434423 1.2253451472414123 0 0 0
2290 4 9.87174637469681 2.44262375434423 1.2253451472414125 0 0 0
2292 16 8.461496892597292 3.2568316724588864 0.03346639505937468 0 0 0
2298 12 11.281995856796295 3.2568316724588864 0.0334663950593749 0 0 0
2499 10 7.051247410498047 5.699455426802887 0.033466395059374675 0 0 0
2503 3 8.461496892597514 4.88524750868823 1.2253451472414123 0 0 0
2505 14 9.871746374697048 5.699455426802887 0.033466395059374626 0 0 0
2509 1 11.281995856796515 4.88524750868823 1.2253451472414125 0 0 0
2282 9 7.051247410498047 0.8142079181148872 2.4170950686552053 0 0 0
2288 13 9.871746374697048 0.8142079181148872 2.4170950686552053 0 0 0
2291 15 8.461496892597292 3.2568316724588864 2.417095068655205 0 0 0
2297 11 11.281995856796295 3.2568316724588864 2.4170950686552053 0 0 0
2498 9 7.051247410498047 5.699455426802887 2.4170950686552053 0 0 0
2504 13 9.871746374697048 5.699455426802887 2.417095068655205 0 0 0
2295 10 12.692245338896047 0.8142079181148874 0.03346639505937405 0 0 0
2299 3 14.102494820995513 2.2965450069237583e-13 1.2253451472414123 0 0 0
2301 14 15.512744303095047 0.8142079181148872 0.033466395059374335 0 0 0
2305 1 16.92299378519451 2.28410024290008e-13 1.2253451472414123 0 0 0
2296 2 12.69224533889581 2.44262375434423 1.2253451472414125 0 0 0
2302 4 15.51274430309481 2.4426237543442295 1.2253451472414125 0 0 0
2304 16 14.102494820995295 3.2568316724588864 0.03346639505937465 0 0 0
2310 12 16.92299378519429 3.256831672458887 0.03346639505937439 0 0 0
2511 10 12.692245338896047 5.699455426802887 0.03346639505937468 0 0 0
2515 3 14.102494820995513 4.885247508688229 1.2253451472414123 0 0 0
2517 14 15.512744303095047 5.699455426802887 0.03346639505937454 0 0 0
2521 1 16.922993785194514 4.885247508688229 1.2253451472414127 0 0 0
2294 9 12.692245338896047 0.8142079181148871 2.4170950686552053 0 0 0
2300 13 15.512744303095047 0.8142079181148871 2.4170950686552053 0 0 0
2303 15 14.102494820995295 3.2568316724588864 2.417095068655205 0 0 0
2309 11 16.92299378519429 3.256831672458887 2.4170950686552053 0 0 0
2510 9 12.692245338896047 5.699455426802887 2.4170950686552053 0 0 0
2516 13 15.512744303095047 5.699455426802887 2.4170950686552053 0 0 0
2307 10 18.333243267294044 0.8142079181148876 0.03346639505937403 0 0 0
2313 14 21.153742231493045 0.8142079181148875 0.03346639505937412 0 0 0
2311 3 19.74349274939351 2.3046136608379215e-13 1.225345147241412 0 0 0
2317 1 22.563991713592515 2.300325035051419e-13 1.225345147241412 0 0 0
2308 2 18.333243267293806 2.44262375434423 1.2253451472414123 0 0 0
2314 4 21.15374223149281 2.44262375434423 1.2253451472414123 0 0 0
2316 16 19.74349274939329 3.256831672458886 0.03346639505937497 0 0 0
2322 12 22.563991713592294 3.2568316724588864 0.033466395059374814 0 0 0
2523 10 18.333243267294044 5.699455426802887 0.03346639505937446 0 0 0
2529 14 21.153742231493045 5.699455426802887 0.03346639505937476 0 0 0
2527 3 19.74349274939351 4.885247508688229 1.2253451472414123 0 0 0
2533 1 22.563991713592515 4.88524750868823 1.2253451472414127 0 0 0
2306 9 18.333243267294044 0.8142079181148874 2.4170950686552057 0 0 0
2312 13 21.153742231493045 0.8142079181148872 2.417095068655205 0 0 0
2315 15 19.74349274939329 3.256831672458886 2.417095068655205 0 0 0
2321 11 22.563991713592294 3.2568316724588864 2.4170950686552053 0 0 0
2522 9 18.333243267294044 5.699455426802887 2.4170950686552053 0 0 0
2528 13 21.153742231493045 5.699455426802887 2.417095068655205 0 0 0
2319 10 23.97424119569205 0.8142079181148874 0.033466395059374265 0 0 0
2323 3 25.384490677791515 2.296783936842029e-13 1.225345147241412 0 0 0
2325 14 26.79474015989105 0.8142079181148875 0.033466395059374134 0 0 0
2329 1 28.20498964199051 2.2840650858238097e-13 1.2253451472414123 0 0 0
2331 10 29.615239124090046 0.8142079181148876 0.03346639505937408 0 0 0
2320 2 23.974241195691814 2.4426237543442304 1.2253451472414123 0 0 0
2326 4 26.79474015989081 2.4426237543442295 1.2253451472414123 0 0 0
2332 2 29.615239124089808 2.44262375434423 1.2253451472414125 0 0 0
2328 16 25.384490677791298 3.2568316724588864 0.03346639505937493 0 0 0
2334 12 28.20498964199029 3.256831672458887 0.03346639505937435 0 0 0
2535 10 23.97424119569205 5.699455426802887 0.03346639505937483 0 0 0
2539 3 25.38449067779152 4.88524750868823 1.2253451472414125 0 0 0
2541 14 26.794740159891052 5.699455426802887 0.03346639505937446 0 0 0
2545 1 28.204989641990515 4.885247508688229 1.2253451472414127 0 0 0
2547 10 29.615239124090046 5.699455426802887 0.03346639505937464 0 0 0
2318 9 23.97424119569205 0.8142079181148871 2.417095068655205 0 0 0
2324 13 26.79474015989105 0.8142079181148871 2.4170950686552053 0 0 0
2330 9 29.615239124090046 0.8142079181148874 2.4170950686552053 0 0 0
2327 15 25.384490677791298 3.2568316724588864 2.4170950686552053 0 0 0
2333 11 28.20498964199029 3.256831672458887 2.4170950686552053 0 0 0
2534 9 23.97424119569205 5.699455426802887 2.4170950686552053 0 0 0
2540 13 26.794740159891052 5.699455426802887 2.4170950686552053 0 0 0
2546 9 29.615239124090046 5.699455426802887 2.4170950686552053 0 0 0
2335 3 31.02548860618951 2.302038360940451e-13 1.2253451472414123 0 0 0
2337 14 32.43573808828904 0.8142079181148875 0.033466395059373676 0 0 0
2341 1 33.84598757038851 2.2989966563753e-13 1.225345147241412 0 0 0
2343 10 35.256237052488046 0.8142079181148871 0.03346639505937447 0 0 0
2338 4 32.43573808828881 2.4426237543442304 1.2253451472414125 0 0 0
2344 2 35.25623705248781 2.44262375434423 1.2253451472414125 0 0 0
2340 16 31.025488606189292 3.2568316724588864 0.03346639505937498 0 0 0
2346 12 33.845987570388296 3.2568316724588864 0.033466395059374536 0 0 0
2551 3 31.025488606189512 4.885247508688229 1.2253451472414125 0 0 0
2553 14 32.43573808828904 5.699455426802887 0.03346639505937454 0 0 0
2557 1 33.84598757038851 4.88524750868823 1.2253451472414125 0 0 0
2559 10 35.256237052488046 5.699455426802886 0.03346639505937522 0 0 0
2336 13 32.43573808828904 0.8142079181148874 2.4170950686552053 0 0 0
2342 9 35.256237052488046 0.814207918114887 2.417095068655205 0 0 0
2339 15 31.025488606189292 3.2568316724588864 2.417095068655205 0 0 0
2345 11 33.845987570388296 3.2568316724588864 2.4170950686552053 0 0 0
2552 13 32.43573808828904 5.699455426802887 2.4170950686552053 0 0 0
2558 9 35.256237052488046 5.699455426802886 2.417095068655205 0 0 0
2347 3 36.66648653458751 2.283825089081874e-13 1.2253451472414125 0 0 0
2349 14 38.07673601668704 0.8142079181148875 0.03346639505937422 0 0 0
2355 10 40.89723498088604 0.8142079181148878 0.033466395059373516 0 0 0
2353 1 39.48698549878651 2.2981102476189517e-13 1.2253451472414123 0 0 0
2350 4 38.07673601668681 2.4426237543442295 1.2253451472414125 0 0 0
2356 2 40.897234980885806 2.44262375434423 1.2253451472414125 0 0 0
2352 16 36.66648653458729 3.2568316724588864 0.03346639505937427 0 0 0
2358 12 39.48698549878629 3.2568316724588864 0.03346639505937501 0 0 0
2563 3 36.66648653458751 4.885247508688229 1.2253451472414127 0 0 0
2565 14 38.07673601668704 5.699455426802887 0.0334663950593747 0 0 0
2571 10 40.89723498088604 5.699455426802887 0.03346639505937428 0 0 0
2569 1 39.48698549878651 4.88524750868823 1.2253451472414125 0 0 0
2348 13 38.07673601668704 0.8142079181148874 2.4170950686552053 0 0 0
2354 9 40.89723498088604 0.8142079181148875 2.4170950686552057 0 0 0
2351 15 36.66648653458729 3.2568316724588864 2.4170950686552057 0 0 0
2357 11 39.48698549878629 3.2568316724588864 2.417095068655205 0 0 0
2564 13 38.07673601668704 5.699455426802887 2.4170950686552053 0 0 0
2570 9 40.89723498088604 5.699455426802887 2.4170950686552053 0 0 0
2359 3 42.30748446298551 2.3051512965801667e-13 1.225345147241412 0 0 0
2361 14 43.717733945085044 0.8142079181148874 0.03346639505937423 0 0 0
2365 1 45.12798342718451 2.300422028761924e-13 1.225345147241412 0 0 0
2367 10 46.53823290928405 0.8142079181148874 0.0334663950593739 0 0 0
2362 4 43.71773394508481 2.4426237543442304 1.2253451472414123 0 0 0
2368 2 46.53823290928381 2.4426237543442295 1.2253451472414125 0 0 0
2364 16 42.30748446298529 3.256831672458886 0.033466395059375036 0 0 0
2370 12 45.1279834271843 3.2568316724588864 0.0334663950593745 0 0 0
2575 3 42.30748446298551 4.88524750868823 1.2253451472414123 0 0 0
2577 14 43.717733945085044 5.699455426802886 0.0334663950593748 0 0 0
2581 1 45.12798342718451 4.88524750868823 1.2253451472414123 0 0 0
2583 10 46.53823290928405 5.699455426802887 0.03346639505937472 0 0 0
2360 13 43.717733945085044 0.8142079181148872 2.4170950686552053 0 0 0
2366 9 46.53823290928405 0.8142079181148872 2.4170950686552053 0 0 0
2363 15 42.30748446298529 3.256831672458886 2.4170950686552053 0 0 0
2369 11 45.1279834271843 3.2568316724588864 2.4170950686552053 0 0 0
2576 13 43.717733945085044 5.699455426802886 2.417095068655205 0 0 0
2582 9 46.53823290928405 5.699455426802887 2.4170950686552053 0 0 0
2371 3 47.948482391383514 2.28555522373552e-13 1.2253451472414123 0 0 0
2373 14 49.358731873483045 0.8142079181148876 0.03346639505937411 0 0 0
2161 1 50.76898135558251 2.298181398358458e-13 1.2253451472414119 -1 0 0
2163 10 52.17923083768204 0.8142079181148874 0.03346639505937422 -1 0 0
2167 3 53.58948031978151 2.299270304735547e-13 1.225345147241412 -1 0 0
2374 4 49.35873187348281 2.4426237543442295 1.2253451472414125 0 0 0
2164 2 52.17923083768181 2.44262375434423 1.2253451472414125 -1 0 0
2376 16 47.948482391383294 3.2568316724588864 0.03346639505937434 0 0 0
2166 12 50.76898135558229 3.2568316724588864 0.03346639505937517 -1 0 0
2172 16 53.589480319781295 3.256831672458886 0.03346639505937487 -1 0 0
2587 3 47.948482391383514 4.885247508688229 1.2253451472414123 0 0 0
2589 14 49.358731873483045 5.699455426802887 0.03346639505937453 0 0 0
2377 1 50.76898135558251 4.885247508688229 1.2253451472414125 -1 0 0
2379 10 52.17923083768204 5.699455426802887 0.03346639505937485 -1 0 0
2383 3 53.58948031978151 4.88524750868823 1.2253451472414125 -1 0 0
2372 13 49.358731873483045 0.8142079181148875 2.4170950686552053 0 0 0
2162 9 52.17923083768204 0.8142079181148872 2.417095068655205 -1 0 0
2375 15 47.948482391383294 3.256831672458887 2.4170950686552053 0 0 0
2165 11 50.76898135558229 3.256831672458886 2.417095068655205 -1 0 0
2171 15 53.589480319781295 3.256831672458886 2.417095068655205 -1 0 0
2588 13 49.358731873483045 5.699455426802887 2.4170950686552053 0 0 0
2378 9 52.17923083768204 5.699455426802887 2.417095068655205 -1 0 0
2169 14 54.999729801881045 0.8142079181148872 0.03346639505937438 -1 0 0
2173 1 56.40997928398051 2.294757436486655e-13 1.2253451472414123 -1 0 0
2175 10 57.82022876608005 0.8142079181148875 0.03346639505937373 -1 0 0
2179 3 59.230478248179516 2.291887829555572e-13 1.2253451472414125 -1 0 0
2170 4 54.99972980188081 2.44262375434423 1.2253451472414125 -1 0 0
2176 2 57.82022876607981 2.4426237543442295 1.2253451472414125 -1 0 0
2178 12 56.40997928398029 3.2568316724588864 0.03346639505937432 -1 0 0
2184 16 59.23047824817929 3.2568316724588864 0.03346639505937441 -1 0 0
2385 14 54.999729801881045 5.699455426802886 0.03346639505937484 -1 0 0
2389 1 56.40997928398051 4.88524750868823 1.2253451472414125 -1 0 0
2391 10 57.82022876608005 5.699455426802887 0.03346639505937453 -1 0 0
2395 3 59.230478248179516 4.885247508688229 1.2253451472414125 -1 0 0
2168 13 54.999729801881045 0.8142079181148871 2.417095068655205 -1 0 0
2174 9 57.82022876608005 0.8142079181148874 2.4170950686552053 -1 0 0
2177 11 56.40997928398029 3.2568316724588864 2.4170950686552053 -1 0 0
2183 15 59.23047824817929 3.2568316724588864 2.4170950686552053 -1 0 0
2384 13 54.999729801881045 5.699455426802887 2.417095068655205 -1 0 0
2390 9 57.82022876608005 5.699455426802887 2.4170950686552053 -1 0 0
2181 14 60.640727730279046 0.8142079181148877 0.03346639505937354 -1 0 0
2185 1 62.05097721237851 2.30001337463121e-13 1.2253451472414123 -1 0 0
2187 10 63.46122669447805 0.8142079181148869 0.033466395059375174 -1 0 0
2191 3 64.87147617657752 2.294110649920235e-13 1.225345147241412 -1 0 0
2182 4 60.640727730278805 2.44262375434423 1.2253451472414125 -1 0 0
2188 2 63.46122669447781 2.4426237543442304 1.2253451472414123 -1 0 0
2190 12 62.05097721237829 3.2568316724588864 0.033466395059374744 -1 0 0
2196 16 64.8714761765773 3.256831672458886 0.03346639505937542 -1 0 0
2397 14 60.640727730279046 5.699455426802887 0.033466395059374196 -1 0 0
2401 1 62.05097721237851 4.88524750868823 1.2253451472414123 -1 0 0
2403 10 63.46122669447805 5.699455426802886 0.033466395059375646 -1 0 0
2407 3 64.87147617657752 4.885247508688229 1.2253451472414125 -1 0 0
2180 13 60.640727730279046 0.8142079181148874 2.4170950686552057 -1 0 0
2186 9 63.46122669447805 0.8142079181148867 2.4170950686552044 -1 0 0
2189 11 62.05097721237829 3.256831672458886 2.417095068655205 -1 0 0
2195 15 64.8714761765773 3.256831672458886 2.417095068655205 -1 0 0
2396 13 60.640727730279046 5.699455426802887 2.4170950686552053 -1 0 0
2402 9 63.46122669447805 5.699455426802886 2.417095068655204 -1 0 0
2193 14 66.28172565867705 0.8142079181148877 0.03346639505937421 -1 0 0
2197 1 67.69197514077652 2.2952556808826667e-13 1.2253451472414125 -1 0 0
2199 10 69.10222462287605 0.8142079181148875 0.03346639505937355 -1 0 0
2203 3 70.51247410497551 2.283089965362555e-13 1.2253451472414123 -1 0 0
2194 4 66.2817256586768 2.4426237543442295 1.2253451472414125 -1 0 0
2200 2 69.10222462287581 2.44262375434423 1.2253451472414125 -1 0 0
2202 12 67.6919751407763 3.256831672458887 0.033466395059373835 -1 0 0
2208 16 70.5124741049753 3.256831672458887 0.033466395059374876 -1 0 0
2409 14 66.28172565867705 5.699455426802886 0.03346639505937481 -1 0 0
2413 1 67.69197514077652 4.885247508688229 1.2253451472414125 -1 0 0
2415 10 69.10222462287605 5.699455426802887 0.03346639505937405 -1 0 0
2419 3 70.51247410497551 4.885247508688229 1.2253451472414125 -1 0 0
2192 13 66.28172565867705 0.8142079181148874 2.417095068655205 -1 0 0
2198 9 69.10222462287605 0.8142079181148874 2.4170950686552057 -1 0 0
2201 11 67.6919751407763 3.2568316724588864 2.4170950686552057 -1 0 0
2207 15 70.5124741049753 3.256831672458887 2.417095068655205 -1 0 0
2408 13 66.28172565867705 5.699455426802886 2.417095068655205 -1 0 0
2414 9 69.10222462287605 5.699455426802886 2.4170950686552057 -1 0 0
2205 14 71.92272358707504 0.814207918114887 0.03346639505937468 -1 0 0
2209 1 73.33297306917451 2.308767845071075e-13 1.225345147241412 -1 0 0
2211 10 74.74322255127404 0.814207918114888 0.03346639505937345 -1 0 0
2215 3 76.1534720333735 2.275774302280599e-13 1.2253451472414123 -1 0 0
2217 14 77.56372151547303 0.8142079181148871 0.0334663950593747 -1 0 0
2206 4 71.92272358707481 2.44262375434423 1.2253451472414125 -1 0 0
2212 2 74.7432225512738 2.4426237543442286 1.2253451472414125 -1 0 0
2218 4 77.5637215154728 2.442623754344231 1.2253451472414123 -1 0 0
2214 12 73.3329730691743 3.256831672458886 0.03346639505937528 -1 0 0
2220 16 76.15347203337329 3.256831672458887 0.03346639505937394 -1 0 0
2421 14 71.92272358707504 5.699455426802886 0.03346639505937512 -1 0 0
2425 1 73.33297306917451 4.88524750868823 1.2253451472414125 -1 0 0
2427 10 74.74322255127404 5.699455426802887 0.033466395059374036 -1 0 0
2431 3 76.1534720333735 4.885247508688228 1.2253451472414123 -1 0 0
2433 14 77.56372151547303 5.699455426802886 0.033466395059375056 -1 0 0
2204 13 71.92272358707504 0.8142079181148869 2.417095068655205 -1 0 0
2210 9 74.74322255127404 0.8142079181148878 2.4170950686552057 -1 0 0
2216 13 77.56372151547303 0.8142079181148868 2.417095068655205 -1 0 0
2213 11 73.3329730691743 3.256831672458886 2.417095068655205 -1 0 0
2219 15 76.15347203337329 3.256831672458887 2.417095068655206 -1 0 0
2420 13 71.92272358707504 5.699455426802886 2.4170950686552044 -1 0 0
2426 9 74.74322255127404 5.699455426802887 2.4170950686552057 -1 0 0
2432 13 77.56372151547303 5.699455426802886 2.4170950686552044 -1 0 0
2221 1 78.97397099757251 2.302333829712607e-13 1.225345147241412 -1 0 0
2223 10 80.38422047967204 0.8142079181148875 0.033466395059374 -1 0 0
2227 3 81.79446996177151 2.2998372166383774e-13 1.225345147241412 -1 0 0
2229 14 83.20471944387104 0.8142079181148875 0.03346639505937398 -1 0 0
2224 2 80.38422047967181 2.4426237543442304 1.2253451472414125 -1 0 0
2230 4 83.20471944387081 2.4426237543442304 1.2253451472414125 -1 0 0
2226 12 78.9739709975723 3.2568316724588864 0.03346639505937486 -1 0 0
2232 16 81.7944699617713 3.2568316724588864 0.033466395059374834 -1 0 0
2437 1 78.97397099757251 4.88524750868823 1.2253451472414125 -1 0 0
2439 10 80.38422047967204 5.699455426802887 0.03346639505937468 -1 0 0
2443 3 81.79446996177151 4.88524750868823 1.2253451472414125 -1 0 0
2445 14 83.20471944387104 5.699455426802887 0.033466395059374675 -1 0 0
2222 9 80.38422047967204 0.8142079181148872 2.417095068655205 -1 0 0
2228 13 83.20471944387104 0.8142079181148871 2.417095068655205 -1 0 0
2225 11 78.9739709975723 3.2568316724588864 2.417095068655205 -1 0 0
2231 15 81.7944699617713 3.2568316724588864 2.417095068655205 -1 0 0
2438 9 80.38422047967204 5.699455426802887 2.417095068655205 -1 0 0
2444 13 83.20471944387104 5.699455426802887 2.417095068655205 -1 0 0
2233 1 84.61496892597052 2.299946719372827e-13 1.225345147241412 -1 0 0
2235 10 86.02521840807005 0.8142079181148875 0.03346639505937401 -1 0 0
2239 3 87.43546789016952 2.3062080818266554e-13 1.225345147241412 -1 0 0
2241 14 88.84571737226905 0.8142079181148879 0.03346639505937347 -1 0 0
2236 2 86.02521840806982 2.4426237543442304 1.2253451472414123 -1 0 0
2242 4 88.84571737226881 2.4426237543442286 1.2253451472414125 -1 0 0
2238 12 84.6149689259703 3.2568316724588864 0.03346639505937486 -1 0 0
2244 16 87.4354678901693 3.256831672458886 0.03346639505937538 -1 0 0
2449 1 84.61496892597052 4.88524750868823 1.2253451472414125 -1 0 0
2451 10 86.02521840807005 5.699455426802887 0.03346639505937463 -1 0 0
2455 3 87.43546789016952 4.88524750868823 1.2253451472414123 -1 0 0
2457 14 88.84571737226905 5.699455426802887 0.03346639505937403 -1 0 0
2234 9 86.02521840807005 0.8142079181148872 2.4170950686552053 -1 0 0
2240 13 88.84571737226905 0.8142079181148878 2.4170950686552057 -1 0 0
2237 11 84.6149689259703 3.2568316724588864 2.4170950686552053 -1 0 0
2243 15 87.4354678901693 3.256831672458886 2.417095068655205 -1 0 0
2450 9 86.02521840807005 5.699455426802886 2.417095068655205 -1 0 0
2456 13 88.84571737226905 5.699455426802887 2.4170950686552057 -1 0 0
2245 1 90.25596685436851 2.276180372578616e-13 1.2253451472414125 -1 0 0
2247 10 91.66621633646804 0.814207918114887 0.033466395059374696 -1 0 0
2251 3 93.07646581856751 2.3090028341828224e-13 1.225345147241412 -1 0 0
2253 14 94.48671530066704 0.814207918114888 0.03346639505937345 -1 0 0
2248 2 91.66621633646781 2.442623754344231 1.2253451472414125 -1 0 0
2254 4 94.4867153006668 2.4426237543442286 1.2253451472414125 -1 0 0
2250 12 90.2559668543683 3.256831672458887 0.03346639505937389 -1 0 0
2256 16 93.0764658185673 3.256831672458886 0.03346639505937522 -1 0 0
2461 1 90.25596685436851 4.885247508688228 1.2253451472414123 -1 0 0
2463 10 91.66621633646804 5.699455426802886 0.03346639505937515 -1 0 0
2467 3 93.07646581856751 4.88524750868823 1.2253451472414125 -1 0 0
2469 14 94.48671530066704 5.699455426802887 0.033466395059374036 -1 0 0
2246 9 91.66621633646804 0.8142079181148869 2.417095068655205 -1 0 0
2252 13 94.48671530066704 0.8142079181148878 2.4170950686552057 -1 0 0
2249 11 90.2559668543683 3.256831672458887 2.4170950686552057 -1 0 0
2255 15 93.0764658185673 3.256831672458886 2.417095068655205 -1 0 0
2462 9 91.66621633646804 5.699455426802886 2.4170950686552044 -1 0 0
2468 13 94.48671530066704 5.699455426802887 2.4170950686552057 -1 0 0
2257 1 95.8969647827665 2.275676024596018e-13 1.2253451472414123 -1 0 0
2259 10 97.30721426486603 0.8142079181148871 0.033466395059374765 -1 0 0
2263 3 98.7174637469655 2.301013413296033e-13 1.2253451472414123 -1 0 0
2265 14 100.12771322906504 0.8142079181148875 0.03346639505937352 -1 0 0
2260 2 97.3072142648658 2.442623754344231 1.2253451472414123 -1 0 0
2266 4 100.12771322906481 2.44262375434423 1.225345147241413 -1 0 0
2262 12 95.89696478276629 3.256831672458887 0.03346639505937393 -1 0 0
2268 16 98.7174637469653 3.2568316724588864 0.033466395059374654 -1 0 0
2473 1 95.8969647827665 4.885247508688228 1.2253451472414123 -1 0 0
2475 10 97.30721426486603 5.699455426802886 0.03346639505937503 -1 0 0
2479 3 98.7174637469655 4.88524750868823 1.2253451472414127 -1 0 0
2481 14 100.12771322906504 5.699455426802886 0.033466395059374196 -1 0 0
2258 9 97.30721426486603 0.8142079181148868 2.417095068655205 -1 0 0
2264 13 100.12771322906504 0.8142079181148875 2.4170950686552053 -1 0 0
2261 11 95.89696478276629 3.256831672458887 2.417095068655206 -1 0 0
2267 15 98.7174637469653 3.256831672458886 2.417095068655205 -1 0 0
2474 9 97.30721426486603 5.699455426802886 2.4170950686552044 -1 0 0
2480 13 100.12771322906504 5.699455426802886 2.4170950686552053 -1 0 0
2488 2 1.4102494820998093 7.327871263032231 1.2253451472414125 0 0 0
2494 4 4.2307484462988105 7.327871263032231 1.2253451472414123 0 0 0
2490 12 2.9105463099533516e-13 8.142079181146887 0.033466395059374605 0 0 0
2496 16 2.8204989641992944 8.142079181146888 0.033466395059375084 0 0 0
2502 12 5.640997928398294 8.142079181146888 0.03346639505937467 0 0 0
2703 10 1.4102494821000462 10.584702935490888 0.03346639505937471 0 0 0
2701 1 5.088146887503769e-13 9.770495017376232 1.2253451472414127 0 0 0
2707 3 2.8204989641995137 9.77049501737623 1.2253451472414123 0 0 0
2709 14 4.230748446299049 10.584702935490888 0.0334663950593749 0 0 0
2713 1 5.640997928398514 9.77049501737623 1.2253451472414125 0 0 0
2489 11 2.91229766378248e-13 8.142079181146887 2.417095068655205 0 0 0
2495 15 2.8204989641992944 8.142079181146887 2.4170950686552053 0 0 0
2501 11 5.640997928398294 8.142079181146888 2.4170950686552053 0 0 0
2702 9 1.4102494821000462 10.584702935490888 2.417095068655205 0 0 0
2708 13 4.230748446299049 10.584702935490888 2.4170950686552053 0 0 0
2500 2 7.051247410497809 7.32787126303223 1.2253451472414125 0 0 0
2506 4 9.87174637469681 7.327871263032231 1.2253451472414123 0 0 0
2508 16 8.461496892597292 8.142079181146888 0.03346639505937481 0 0 0
2514 12 11.281995856796295 8.142079181146888 0.03346639505937487 0 0 0
2715 10 7.051247410498047 10.584702935490888 0.03346639505937462 0 0 0
2719 3 8.461496892597514 9.77049501737623 1.2253451472414123 0 0 0
2721 14 9.871746374697048 10.584702935490888 0.03346639505937496 0 0 0
2725 1 11.281995856796515 9.77049501737623 1.2253451472414123 0 0 0
2507 15 8.461496892597292 8.142079181146888 2.417095068655205 0 0 0
2513 11 11.281995856796293 8.142079181146888 2.417095068655205 0 0 0
2714 9 7.051247410498047 10.584702935490888 2.4170950686552053 0 0 0
2720 13 9.871746374697048 10.584702935490888 2.4170950686552053 0 0 0
2512 2 12.69224533889581 7.327871263032231 1.2253451472414125 0 0 0
2518 4 15.51274430309481 7.32787126303223 1.2253451472414127 0 0 0
2520 16 14.102494820995295 8.142079181146888 0.03346639505937475 0 0 0
2526 12 16.922993785194294 8.142079181146887 0.03346639505937451 0 0 0
2727 10 12.692245338896047 10.584702935490888 0.03346639505937457 0 0 0
2731 3 14.102494820995513 9.77049501737623 1.2253451472414125 0 0 0
2733 14 15.512744303095047 10.584702935490888 0.03346639505937476 0 0 0
2737 1 16.92299378519451 9.77049501737623 1.2253451472414125 0 0 0
2519 15 14.102494820995295 8.142079181146888 2.4170950686552053 0 0 0
2525 11 16.922993785194294 8.142079181146887 2.4170950686552053 0 0 0
2726 9 12.692245338896047 10.584702935490888 2.4170950686552053 0 0 0
2732 13 15.512744303095047 10.584702935490888 2.4170950686552053 0 0 0
2524 2 18.333243267293806 7.32787126303223 1.2253451472414127 0 0 0
2530 4 21.15374223149281 7.327871263032231 1.2253451472414125 0 0 0
2532 16 19.74349274939329 8.142079181146888 0.03346639505937456 0 0 0
2538 12 22.563991713592294 8.142079181146888 0.0334663950593749 0 0 0
2739 10 18.333243267294044 10.584702935490888 0.033466395059374675 0 0 0
2745 14 21.153742231493045 10.584702935490888 0.03346639505937499 0 0 0
2743 3 19.74349274939351 9.770495017376232 1.2253451472414123 0 0 0
2749 1 22.563991713592515 9.77049501737623 1.2253451472414123 0 0 0
2531 15 19.74349274939329 8.142079181146888 2.4170950686552053 0 0 0
2537 11 22.563991713592294 8.142079181146888 2.417095068655205 0 0 0
2738 9 18.333243267294044 10.584702935490888 2.4170950686552053 0 0 0
2744 13 21.153742231493045 10.584702935490888 2.4170950686552053 0 0 0
2536 2 23.974241195691814 7.327871263032231 1.2253451472414125 0 0 0
2542 4 26.79474015989081 7.32787126303223 1.2253451472414125 0 0 0
2548 2 29.615239124089808 7.327871263032231 1.2253451472414125 0 0 0
2544 16 25.384490677791298 8.142079181146888 0.033466395059374925 0 0 0
2550 12 28.204989641990295 8.142079181146888 0.03346639505937456 0 0 0
2751 10 23.97424119569205 10.584702935490888 0.03346639505937503 0 0 0
2755 3 25.384490677791515 9.77049501737623 1.225345147241412 0 0 0
2757 14 26.794740159891052 10.584702935490888 0.03346639505937455 0 0 0
2761 1 28.20498964199051 9.77049501737623 1.2253451472414127 0 0 0
2763 10 29.615239124090046 10.584702935490888 0.03346639505937484 0 0 0
2543 15 25.384490677791298 8.142079181146887 2.4170950686552053 0 0 0
2549 11 28.204989641990295 8.142079181146888 2.417095068655205 0 0 0
2750 9 23.97424119569205 10.584702935490888 2.417095068655205 0 0 0
2756 13 26.79474015989105 10.584702935490888 2.4170950686552053 0 0 0
2762 9 29.615239124090046 10.584702935490888 2.4170950686552053 0 0 0
2554 4 32.43573808828881 7.327871263032231 1.2253451472414125 0 0 0
2560 2 35.25623705248781 7.32787126303223 1.2253451472414123 0 0 0
2556 16 31.025488606189292 8.142079181146888 0.033466395059374786 0 0 0
2562 12 33.845987570388296 8.142079181146887 0.03346639505937479 0 0 0
2767 3 31.02548860618951 9.77049501737623 1.2253451472414123 0 0 0
2769 14 32.43573808828904 10.584702935490888 0.03346639505937468 0 0 0
2773 1 33.84598757038851 9.77049501737623 1.2253451472414123 0 0 0
2775 10 35.256237052488046 10.584702935490887 0.033466395059374994 0 0 0
2555 15 31.025488606189292 8.142079181146888 2.4170950686552053 0 0 0
2561 11 33.845987570388296 8.142079181146887 2.4170950686552053 0 0 0
2768 13 32.43573808828904 10.584702935490888 2.4170950686552053 0 0 0
2774 9 35.256237052488046 10.584702935490887 2.417095068655205 0 0 0
2566 4 38.07673601668681 7.32787126303223 1.2253451472414123 0 0 0
2572 2 40.897234980885806 7.32787126303223 1.225345147241412 0 0 0
2568 16 36.66648653458729 8.142079181146887 0.03346639505937441 0 0 0
2574 12 39.48698549878629 8.142079181146888 0.033466395059375265 0 0 0
2779 3 36.66648653458751 9.77049501737623 1.2253451472414127 0 0 0
2781 14 38.07673601668704 10.584702935490888 0.033466395059374765 0 0 0
2787 10 40.89723498088604 10.584702935490888 0.03346639505937453 0 0 0
2785 1 39.48698549878651 9.77049501737623 1.2253451472414127 0 0 0
2567 15 36.66648653458729 8.142079181146888 2.4170950686552057 0 0 0
2573 11 39.48698549878629 8.142079181146887 2.4170950686552044 0 0 0
2780 13 38.07673601668704 10.584702935490888 2.4170950686552053 0 0 0
2786 9 40.89723498088604 10.584702935490888 2.4170950686552057 0 0 0
2578 4 43.71773394508481 7.327871263032231 1.2253451472414123 0 0 0
2584 2 46.53823290928381 7.32787126303223 1.2253451472414123 0 0 0
2580 16 42.30748446298529 8.142079181146888 0.033466395059374925 0 0 0
2586 12 45.1279834271843 8.142079181146887 0.03346639505937473 0 0 0
2791 3 42.30748446298551 9.77049501737623 1.2253451472414125 0 0 0
2793 14 43.717733945085044 10.584702935490888 0.03346639505937504 0 0 0
2797 1 45.12798342718451 9.77049501737623 1.2253451472414123 0 0 0
2799 10 46.53823290928405 10.584702935490888 0.03346639505937447 0 0 0