LAMMPS data file via write_data, version 29 Aug 2024, timestep = 2, units = metal

7290 atoms
9 atom types

0 101.860197606342 xlo xhi
0 98.01502084623 ylo yhi
-50 50 zlo zhi

Masses

1 178.49
2 178.49
3 178.49
4 78.971
5 78.971
6 78.971
7 78.971
8 78.971
9 78.971

Atoms # atomic

1385 1 1.8857202299872518 3.2665682788772954 1.5726922259548042 0 0 0
1222 5 3.7725876689140434 2.1781099949454754 0.03273270794300967 0 0 0
1383 5 1.8862877132410445 5.445277356486475 0.03273270794301002 0 0 0
1391 1 5.658320141333251 3.2665682788772954 1.5726922259548042 0 0 0
1389 5 5.658887624587043 5.445277356486475 0.03273270794301002 0 0 0
1228 5 7.545187580260043 2.1781099949454754 0.032732707943009746 0 0 0
1397 1 9.43092005267925 3.2665682788772954 1.5726922259548044 0 0 0
1234 5 11.317787491606044 2.1781099949454763 0.03273270794301073 0 0 0
1395 5 9.431487535933043 5.445277356486475 0.0327327079430102 0 0 0
1403 1 13.203519964025254 3.2665682788772954 1.5726922259548042 0 0 0
1240 5 15.090387402952045 2.178109994945475 0.03273270794300882 0 0 0
1401 5 13.204087447279047 5.445277356486475 0.032732707943010676 0 0 0
1409 1 16.97611987537125 3.2665682788772954 1.572692225954804 0 0 0
1407 5 16.976687358625043 5.445277356486474 0.03273270794300926 0 0 0
1246 5 18.862987314298042 2.1781099949454763 0.03273270794301064 0 0 0
1415 1 20.748719786717253 3.2665682788772954 1.5726922259548042 0 0 0
1413 5 20.749287269971045 5.445277356486476 0.03273270794301088 0 0 0
1252 5 22.635587225644045 2.178109994945475 0.032732707943008844 0 0 0
1421 1 24.521319698063248 3.2665682788772954 1.5726922259548042 0 0 0
1258 5 26.40818713699004 2.1781099949454763 0.032732707943010655 0 0 0
1419 5 24.521887181317044 5.445277356486474 0.032732707943009184 0 0 0
1427 1 28.29391960940925 3.2665682788772954 1.5726922259548042 0 0 0
1425 5 28.294487092663044 5.445277356486475 0.03273270794301086 0 0 0
1264 5 30.180787048336043 2.178109994945475 0.03273270794300896 0 0 0
1433 1 32.06651952075525 3.2665682788772954 1.5726922259548044 0 0 0
1431 5 32.06708700400904 5.445277356486475 0.03273270794301059 0 0 0
1270 5 33.95338695968204 2.1781099949454763 0.03273270794301058 0 0 0
1439 1 35.83911943210125 3.2665682788772954 1.5726922259548042 0 0 0
1276 5 37.72598687102804 2.178109994945475 0.032732707943008935 0 0 0
1445 1 39.61171934344725 3.2665682788772954 1.5726922259548042 0 0 0
1437 5 35.839686915355045 5.445277356486474 0.03273270794300917 0 0 0
1443 5 39.61228682670104 5.445277356486475 0.0327327079430109 0 0 0
1282 5 41.49858678237404 2.1781099949454763 0.03273270794301056 0 0 0
1451 1 43.38431925479325 3.2665682788772954 1.5726922259548042 0 0 0
1288 5 45.27118669372004 2.1781099949454763 0.032732707943010614 0 0 0
1449 5 43.384886738047044 5.445277356486474 0.032732707943009545 0 0 0
1457 1 47.156919166139254 3.2665682788772954 1.5726922259548042 0 0 0
1294 5 49.043786605066046 2.178109994945475 0.03273270794300937 0 0 0
1455 5 47.15748664939304 5.445277356486476 0.03273270794301085 0 0 0
1301 1 50.92951907748525 3.266568278877295 1.5726922259548035 -1 0 0
1299 5 50.93008656073904 5.445277356486475 0.03273270794301015 -1 0 0
1138 5 52.816386516412045 2.1781099949454754 0.03273270794300974 -1 0 0
1307 1 54.70211898883125 3.2665682788772954 1.5726922259548042 -1 0 0
1305 5 54.70268647208504 5.445277356486475 0.03273270794300998 -1 0 0
1144 5 56.588986427758044 2.1781099949454754 0.03273270794300972 -1 0 0
1313 1 58.47471890017725 3.2665682788772954 1.5726922259548042 -1 0 0
1150 5 60.36158633910404 2.1781099949454754 0.03273270794300962 -1 0 0
1311 5 58.47528638343104 5.445277356486475 0.032732707943009975 -1 0 0
1319 1 62.24731881152325 3.266568278877296 1.5726922259548048 -1 0 0
1317 5 62.24788629477704 5.445277356486475 0.0327327079430108 -1 0 0
1156 5 64.13418625045004 2.1781099949454763 0.032732707943011224 -1 0 0
1325 1 66.01991872286925 3.2665682788772954 1.5726922259548042 -1 0 0
1323 5 66.02048620612304 5.445277356486474 0.03273270794300985 -1 0 0
1162 5 67.90678616179603 2.178109994945475 0.03273270794300851 -1 0 0
1331 1 69.79251863421524 3.2665682788772954 1.5726922259548042 -1 0 0
1168 5 71.67938607314204 2.178109994945476 0.032732707943009885 -1 0 0
1329 5 69.79308611746903 5.445277356486474 0.03273270794300857 -1 0 0
1337 1 73.56511854556125 3.2665682788772954 1.5726922259548042 -1 0 0
1335 5 73.56568602881504 5.445277356486476 0.03273270794301116 -1 0 0
1174 5 75.45198598448805 2.1781099949454763 0.03273270794301097 -1 0 0
1343 1 77.33771845690725 3.2665682788772954 1.572692225954804 -1 0 0
1341 5 77.33828594016104 5.445277356486476 0.03273270794301155 -1 0 0
1180 5 79.22458589583404 2.178109994945475 0.03273270794300955 -1 0 0
1349 1 81.11031836825325 3.2665682788772954 1.5726922259548042 -1 0 0
1186 5 82.99718580718003 2.1781099949454745 0.03273270794300816 -1 0 0
1355 1 84.88291827959925 3.2665682788772954 1.5726922259548042 -1 0 0
1347 5 81.11088585150704 5.445277356486474 0.03273270794300885 -1 0 0
1353 5 84.88348576285304 5.445277356486475 0.03273270794301011 -1 0 0
1192 5 86.76978571852604 2.1781099949454763 0.032732707943010864 -1 0 0
1361 1 88.65551819094526 3.2665682788772954 1.5726922259548042 -1 0 0
1359 5 88.65608567419905 5.445277356486476 0.03273270794301126 -1 0 0
1198 5 90.54238562987204 2.1781099949454763 0.03273270794301122 -1 0 0
1367 1 92.42811810229125 3.2665682788772954 1.5726922259548042 -1 0 0
1204 5 94.31498554121804 2.178109994945475 0.03273270794300851 -1 0 0
1365 5 92.42868558554504 5.445277356486474 0.032732707943009906 -1 0 0
1373 1 96.20071801363724 3.2665682788772954 1.5726922259548042 -1 0 0
1371 5 96.20128549689103 5.445277356486474 0.03273270794300857 -1 0 0
1216 5 101.86018536391003 2.1781099949454763 0.03273270794301067 -1 0 0
1210 5 98.08758545256404 2.178109994945476 0.03273270794300989 -1 0 0
1379 1 99.97331792498325 3.266568278877295 1.5726922259548035 -1 0 0
1377 5 99.97388540823704 5.445277356486476 0.03273270794301125 -1 0 0
1386 1 3.772020185660253 6.5337356404182945 1.5726922259548042 0 0 0
1547 1 1.8857202299872518 9.800903001959293 1.5726922259548042 0 0 0
1384 5 3.7725876689140434 8.712444718027474 0.0327327079430101 0 0 0
1553 1 5.658320141333251 9.800903001959293 1.5726922259548042 0 0 0
1392 1 7.544620097006252 6.5337356404182945 1.5726922259548044 0 0 0
1398 1 11.317220008352255 6.5337356404182945 1.5726922259548044 0 0 0
1390 5 7.545187580260043 8.712444718027474 0.032732707943010204 0 0 0
1559 1 9.43092005267925 9.800903001959293 1.5726922259548042 0 0 0
1396 5 11.317787491606044 8.712444718027474 0.032732707943011065 0 0 0
1404 1 15.089819919698254 6.5337356404182945 1.5726922259548042 0 0 0
1565 1 13.203519964025254 9.800903001959293 1.5726922259548042 0 0 0
1402 5 15.090387402952045 8.712444718027474 0.03273270794300922 0 0 0
1571 1 16.97611987537125 9.800903001959293 1.572692225954804 0 0 0
1410 1 18.862419831044253 6.5337356404182945 1.5726922259548042 0 0 0
1408 5 18.862987314298042 8.712444718027474 0.032732707943010905 0 0 0
1577 1 20.748719786717253 9.800903001959293 1.5726922259548042 0 0 0
1416 1 22.635019742390252 6.5337356404182945 1.5726922259548042 0 0 0
1414 5 22.635587225644045 8.712444718027472 0.032732707943009164 0 0 0
1422 1 26.40761965373625 6.5337356404182945 1.5726922259548042 0 0 0
1583 1 24.521319698063248 9.800903001959293 1.5726922259548042 0 0 0
1420 5 26.40818713699004 8.712444718027474 0.03273270794301086 0 0 0
1589 1 28.29391960940925 9.800903001959293 1.5726922259548042 0 0 0
1428 1 30.18021956508225 6.5337356404182945 1.5726922259548046 0 0 0
1426 5 30.180787048336043 8.712444718027474 0.03273270794300928 0 0 0
1595 1 32.06651952075525 9.800903001959293 1.5726922259548044 0 0 0
1434 1 33.95281947642825 6.5337356404182945 1.5726922259548042 0 0 0
1432 5 33.95338695968204 8.712444718027474 0.03273270794301084 0 0 0
1440 1 37.725419387774245 6.5337356404182945 1.5726922259548044 0 0 0
1601 1 35.83911943210125 9.800903001959293 1.5726922259548042 0 0 0
1438 5 37.72598687102804 8.712444718027472 0.032732707943009205 0 0 0
1607 1 39.61171934344725 9.800903001959293 1.5726922259548042 0 0 0
1446 1 41.49801929912025 6.5337356404182945 1.5726922259548042 0 0 0
1452 1 45.27061921046625 6.5337356404182945 1.5726922259548042 0 0 0
1444 5 41.49858678237404 8.712444718027474 0.03273270794301082 0 0 0
1613 1 43.38431925479325 9.800903001959293 1.5726922259548042 0 0 0
1450 5 45.27118669372004 8.712444718027474 0.032732707943010815 0 0 0
1458 1 49.04321912181225 6.5337356404182945 1.5726922259548042 0 0 0
1619 1 47.156919166139254 9.800903001959293 1.5726922259548042 0 0 0
1456 5 49.043786605066046 8.712444718027474 0.032732707943009635 0 0 0
1463 1 50.92951907748525 9.800903001959293 1.5726922259548035 -1 0 0
1302 1 52.81581903315825 6.5337356404182945 1.5726922259548042 -1 0 0
1300 5 52.816386516412045 8.712444718027474 0.03273270794301006 -1 0 0
1469 1 54.70211898883125 9.800903001959293 1.5726922259548044 -1 0 0
1308 1 56.58841894450425 6.5337356404182945 1.5726922259548042 -1 0 0
1306 5 56.588986427758044 8.712444718027474 0.032732707943010045 -1 0 0
1314 1 60.36101885585025 6.5337356404182945 1.5726922259548044 -1 0 0
1475 1 58.47471890017725 9.800903001959293 1.5726922259548042 -1 0 0
1312 5 60.36158633910404 8.712444718027474 0.03273270794300992 -1 0 0
1481 1 62.24731881152325 9.800903001959293 1.5726922259548048 -1 0 0
1320 1 64.13361876719625 6.5337356404182945 1.5726922259548042 -1 0 0
1318 5 64.13418625045004 8.712444718027474 0.032732707943011544 -1 0 0
1487 1 66.01991872286925 9.800903001959293 1.572692225954804 -1 0 0
1326 1 67.90621867854225 6.5337356404182945 1.5726922259548042 -1 0 0
1324 5 67.90678616179603 8.712444718027472 0.03273270794300881 -1 0 0
1332 1 71.67881858988825 6.5337356404182945 1.5726922259548042 -1 0 0
1493 1 69.79251863421524 9.800903001959293 1.5726922259548042 -1 0 0
1330 5 71.67938607314204 8.712444718027474 0.03273270794301015 -1 0 0
1499 1 73.56511854556125 9.800903001959293 1.5726922259548042 -1 0 0
1338 1 75.45141850123426 6.5337356404182945 1.5726922259548042 -1 0 0
1336 5 75.45198598448805 8.712444718027474 0.032732707943011245 -1 0 0
1505 1 77.33771845690725 9.800903001959293 1.5726922259548042 -1 0 0
1344 1 79.22401841258025 6.5337356404182945 1.5726922259548042 -1 0 0
1342 5 79.22458589583404 8.712444718027474 0.032732707943009955 -1 0 0
1350 1 82.99661832392624 6.5337356404182945 1.5726922259548044 -1 0 0
1511 1 81.11031836825325 9.800903001959293 1.5726922259548042 -1 0 0
1348 5 82.99718580718003 8.712444718027472 0.03273270794300857 -1 0 0
1517 1 84.88291827959925 9.800903001959293 1.5726922259548042 -1 0 0
1356 1 86.76921823527225 6.5337356404182945 1.5726922259548044 -1 0 0
1354 5 86.76978571852604 8.712444718027474 0.0327327079430112 -1 0 0
1523 1 88.65551819094526 9.800903001959293 1.5726922259548042 -1 0 0
1362 1 90.54181814661825 6.5337356404182945 1.5726922259548042 -1 0 0
1360 5 90.54238562987204 8.712444718027474 0.03273270794301154 -1 0 0
1368 1 94.31441805796425 6.5337356404182945 1.5726922259548042 -1 0 0
1529 1 92.42811810229125 9.800903001959293 1.572692225954804 -1 0 0
1366 5 94.31498554121804 8.712444718027472 0.03273270794300884 -1 0 0
1535 1 96.20071801363724 9.800903001959293 1.5726922259548042 -1 0 0
1380 1 101.85961788065624 6.5337356404182945 1.5726922259548044 -1 0 0
1378 5 101.86018536391003 8.712444718027474 0.03273270794301098 -1 0 0
1374 1 98.08701796931025 6.5337356404182945 1.5726922259548042 -1 0 0
1372 5 98.08758545256404 8.712444718027474 0.03273270794301022 -1 0 0
1541 1 99.97331792498325 9.800903001959293 1.5726922259548037 -1 0 0
1545 5 1.8862877132410445 11.979612079568474 0.03273270794301064 0 0 0
1548 1 3.7720201856602533 13.068070363500295 1.5726922259548037 0 0 0
1546 5 3.7725876689140434 15.246779441109476 0.032732707943010114 0 0 0
1709 1 1.8857202299872515 16.335237725041296 1.572692225954805 0 0 0
1551 5 5.658887624587044 11.979612079568474 0.03273270794301064 0 0 0
1715 1 5.658320141333251 16.335237725041296 1.572692225954805 0 0 0
1554 1 7.544620097006252 13.068070363500295 1.5726922259548037 0 0 0
1557 5 9.431487535933043 11.979612079568474 0.032732707943010975 0 0 0
1560 1 11.317220008352255 13.068070363500295 1.5726922259548037 0 0 0
1552 5 7.545187580260043 15.246779441109476 0.03273270794301019 0 0 0
1558 5 11.317787491606044 15.246779441109478 0.03273270794301111 0 0 0
1721 1 9.43092005267925 16.335237725041296 1.5726922259548053 0 0 0
1563 5 13.204087447279047 11.979612079568474 0.03273270794301118 0 0 0
1566 1 15.089819919698254 13.068070363500293 1.5726922259548033 0 0 0
1564 5 15.090387402952045 15.246779441109476 0.03273270794300939 0 0 0
1727 1 13.203519964025254 16.335237725041296 1.5726922259548055 0 0 0
1569 5 16.976687358625046 11.979612079568472 0.032732707943009955 0 0 0
1733 1 16.97611987537125 16.335237725041296 1.5726922259548048 0 0 0
1572 1 18.862419831044253 13.068070363500295 1.5726922259548035 0 0 0
1575 5 20.749287269971045 11.979612079568474 0.032732707943011384 0 0 0
1570 5 18.862987314298042 15.246779441109478 0.03273270794301093 0 0 0
1739 1 20.748719786717253 16.335237725041296 1.5726922259548053 0 0 0
1578 1 22.635019742390252 13.068070363500293 1.5726922259548035 0 0 0
1576 5 22.635587225644045 15.246779441109476 0.0327327079430094 0 0 0
1581 5 24.521887181317044 11.979612079568472 0.03273270794300986 0 0 0
1584 1 26.40761965373625 13.068070363500295 1.5726922259548035 0 0 0
1582 5 26.40818713699004 15.246779441109478 0.03273270794301095 0 0 0
1745 1 24.521319698063248 16.335237725041296 1.5726922259548053 0 0 0
1587 5 28.294487092663044 11.979612079568474 0.03273270794301136 0 0 0
1751 1 28.29391960940925 16.335237725041296 1.5726922259548053 0 0 0
1590 1 30.18021956508225 13.068070363500293 1.5726922259548037 0 0 0
1593 5 32.06708700400904 11.979612079568474 0.032732707943011106 0 0 0
1588 5 30.180787048336043 15.246779441109476 0.03273270794300951 0 0 0
1757 1 32.06651952075525 16.335237725041296 1.5726922259548057 0 0 0
1596 1 33.95281947642825 13.068070363500295 1.5726922259548037 0 0 0
1594 5 33.95338695968204 15.246779441109478 0.03273270794301093 0 0 0
1599 5 35.839686915355045 11.979612079568472 0.032732707943009774 0 0 0
1602 1 37.725419387774245 13.068070363500293 1.5726922259548035 0 0 0
1605 5 39.61228682670104 11.979612079568474 0.032732707943011405 0 0 0
1600 5 37.72598687102804 15.246779441109476 0.03273270794300943 0 0 0
1763 1 35.83911943210125 16.335237725041296 1.5726922259548053 0 0 0
1769 1 39.61171934344725 16.335237725041296 1.5726922259548053 0 0 0
1608 1 41.49801929912025 13.068070363500295 1.5726922259548037 0 0 0
1611 5 43.384886738047044 11.979612079568472 0.03273270794301034 0 0 0
1614 1 45.27061921046625 13.068070363500295 1.5726922259548035 0 0 0
1606 5 41.49858678237404 15.246779441109478 0.03273270794301091 0 0 0
1612 5 45.27118669372004 15.246779441109478 0.032732707943010905 0 0 0
1775 1 43.38431925479325 16.335237725041296 1.5726922259548053 0 0 0
1617 5 47.15748664939304 11.979612079568474 0.03273270794301135 0 0 0
1620 1 49.04321912181225 13.068070363500293 1.5726922259548037 0 0 0
1618 5 49.043786605066046 15.246779441109476 0.03273270794300993 0 0 0
1781 1 47.156919166139254 16.335237725041296 1.5726922259548053 0 0 0
1461 5 50.93008656073904 11.979612079568474 0.03273270794301061 -1 0 0
1625 1 50.92951907748525 16.335237725041296 1.5726922259548044 -1 0 0
1464 1 52.81581903315825 13.068070363500295 1.572692225954804 -1 0 0
1467 5 54.70268647208504 11.979612079568474 0.03273270794301062 -1 0 0
1462 5 52.816386516412045 15.246779441109476 0.03273270794301011 -1 0 0
1631 1 54.70211898883125 16.335237725041296 1.572692225954805 -1 0 0
1470 1 56.58841894450425 13.068070363500295 1.572692225954804 -1 0 0
1468 5 56.588986427758044 15.246779441109476 0.03273270794301009 -1 0 0
1473 5 58.47528638343104 11.979612079568474 0.0327327079430106 -1 0 0
1476 1 60.36101885585025 13.068070363500295 1.5726922259548037 -1 0 0
1474 5 60.36158633910404 15.246779441109476 0.032732707943010045 -1 0 0
1637 1 58.47471890017725 16.335237725041296 1.572692225954805 -1 0 0
1479 5 62.24788629477704 11.979612079568474 0.03273270794301138 -1 0 0
1643 1 62.24731881152325 16.335237725041296 1.5726922259548057 -1 0 0
1482 1 64.13361876719625 13.068070363500295 1.5726922259548037 -1 0 0
1485 5 66.02048620612304 11.979612079568472 0.032732707943010524 -1 0 0
1480 5 64.13418625045004 15.246779441109478 0.0327327079430116 -1 0 0
1649 1 66.01991872286925 16.335237725041296 1.572692225954805 -1 0 0
1488 1 67.90621867854225 13.068070363500293 1.5726922259548035 -1 0 0
1486 5 67.90678616179603 15.246779441109476 0.032732707943008976 -1 0 0
1491 5 69.79308611746903 11.979612079568472 0.03273270794300918 -1 0 0
1494 1 71.67881858988825 13.068070363500295 1.5726922259548037 -1 0 0
1492 5 71.67938607314204 15.246779441109478 0.03273270794301025 -1 0 0
1655 1 69.79251863421524 16.335237725041296 1.5726922259548053 -1 0 0
1497 5 73.56568602881504 11.979612079568474 0.032732707943011786 -1 0 0
1661 1 73.56511854556125 16.335237725041296 1.5726922259548055 -1 0 0
1500 1 75.45141850123426 13.068070363500295 1.5726922259548035 -1 0 0
1503 5 77.33828594016104 11.979612079568474 0.03273270794301207 -1 0 0
1498 5 75.45198598448805 15.246779441109478 0.032732707943011335 -1 0 0
1667 1 77.33771845690725 16.335237725041296 1.5726922259548053 -1 0 0
1506 1 79.22401841258025 13.068070363500293 1.5726922259548035 -1 0 0
1504 5 79.22458589583404 15.246779441109476 0.032732707943010114 -1 0 0
1509 5 81.11088585150704 11.979612079568472 0.03273270794300935 -1 0 0
1512 1 82.99661832392624 13.068070363500293 1.5726922259548035 -1 0 0
1515 5 84.88348576285304 11.979612079568474 0.03273270794301067 -1 0 0
1510 5 82.99718580718003 15.246779441109476 0.03273270794300878 -1 0 0
1673 1 81.11031836825325 16.335237725041296 1.572692225954805 -1 0 0
1679 1 84.88291827959925 16.335237725041296 1.5726922259548055 -1 0 0
1518 1 86.76921823527225 13.068070363500295 1.5726922259548037 -1 0 0
1521 5 88.65608567419905 11.979612079568474 0.032732707943011946 -1 0 0
1516 5 86.76978571852604 15.246779441109478 0.03273270794301118 -1 0 0
1685 1 88.65551819094526 16.335237725041296 1.5726922259548055 -1 0 0
1524 1 90.54181814661825 13.068070363500295 1.5726922259548037 -1 0 0
1522 5 90.54238562987204 15.246779441109478 0.032732707943011585 -1 0 0
1527 5 92.42868558554504 11.979612079568472 0.03273270794301057 -1 0 0
1530 1 94.31441805796425 13.068070363500293 1.5726922259548035 -1 0 0
1528 5 94.31498554121804 15.246779441109476 0.03273270794300898 -1 0 0
1691 1 92.42811810229125 16.335237725041296 1.5726922259548053 -1 0 0
1533 5 96.20128549689103 11.979612079568472 0.03273270794300919 -1 0 0
1697 1 96.20071801363724 16.335237725041296 1.5726922259548053 -1 0 0
1542 1 101.85961788065624 13.068070363500295 1.5726922259548037 -1 0 0
1540 5 101.86018536391003 15.246779441109476 0.032732707943011134 -1 0 0
1536 1 98.08701796931025 13.068070363500295 1.5726922259548035 -1 0 0
1539 5 99.97388540823704 11.979612079568474 0.0327327079430119 -1 0 0
1534 5 98.08758545256404 15.246779441109478 0.03273270794301027 -1 0 0
1703 1 99.97331792498325 16.335237725041296 1.5726922259548048 -1 0 0
1707 5 1.8862877132410443 18.513946802650477 0.03273270794301053 0 0 0
1710 1 3.772020185660253 19.602405086582294 1.5726922259548044 0 0 0
1871 1 1.8857202299872518 22.869572448123293 1.5726922259548044 0 0 0
1708 5 3.7725876689140434 21.781114164191475 0.03273270794301002 0 0 0
1713 5 5.658887624587043 18.513946802650477 0.03273270794301052 0 0 0
1877 1 5.658320141333251 22.869572448123293 1.5726922259548042 0 0 0
1719 5 9.431487535933043 18.513946802650477 0.03273270794301078 0 0 0
1716 1 7.544620097006252 19.602405086582294 1.5726922259548044 0 0 0
1722 1 11.317220008352255 19.602405086582294 1.5726922259548042 0 0 0
1714 5 7.545187580260043 21.781114164191475 0.032732707943010045 0 0 0
1883 1 9.43092005267925 22.869572448123293 1.5726922259548044 0 0 0
1720 5 11.317787491606044 21.781114164191475 0.032732707943011016 0 0 0
1725 5 13.204087447279047 18.513946802650477 0.0327327079430112 0 0 0
1728 1 15.089819919698254 19.602405086582294 1.572692225954804 0 0 0
1889 1 13.203519964025254 22.869572448123293 1.5726922259548042 0 0 0
1726 5 15.090387402952045 21.781114164191475 0.03273270794300917 0 0 0
1731 5 16.976687358625043 18.513946802650477 0.03273270794300978 0 0 0
1895 1 16.97611987537125 22.869572448123293 1.572692225954804 0 0 0
1737 5 20.749287269971045 18.513946802650477 0.03273270794301139 0 0 0
1734 1 18.862419831044253 19.602405086582294 1.5726922259548042 0 0 0
1732 5 18.862987314298042 21.781114164191475 0.03273270794301079 0 0 0
1901 1 20.748719786717253 22.869572448123293 1.5726922259548044 0 0 0
1740 1 22.635019742390252 19.602405086582294 1.5726922259548042 0 0 0
1738 5 22.635587225644045 21.781114164191475 0.03273270794300919 0 0 0
1743 5 24.521887181317044 18.513946802650477 0.032732707943009705 0 0 0
1746 1 26.40761965373625 19.602405086582294 1.5726922259548042 0 0 0
1907 1 24.521319698063248 22.869572448123293 1.5726922259548044 0 0 0
1744 5 26.40818713699004 21.781114164191475 0.0327327079430108 0 0 0
1749 5 28.294487092663044 18.513946802650477 0.03273270794301138 0 0 0
1913 1 28.29391960940925 22.869572448123293 1.5726922259548042 0 0 0
1755 5 32.06708700400904 18.513946802650477 0.03273270794301106 0 0 0
1752 1 30.18021956508225 19.602405086582294 1.5726922259548046 0 0 0
1750 5 30.180787048336043 21.781114164191475 0.03273270794300929 0 0 0
1919 1 32.06651952075525 22.869572448123293 1.5726922259548044 0 0 0
1758 1 33.95281947642825 19.602405086582294 1.5726922259548042 0 0 0
1756 5 33.95338695968204 21.781114164191475 0.03273270794301078 0 0 0
1761 5 35.839686915355045 18.513946802650477 0.03273270794300969 0 0 0
1767 5 39.61228682670104 18.513946802650477 0.0327327079430114 0 0 0
1764 1 37.72541938777425 19.602405086582294 1.5726922259548042 0 0 0
1925 1 35.83911943210125 22.869572448123293 1.5726922259548044 0 0 0
1762 5 37.72598687102804 21.781114164191475 0.03273270794300917 0 0 0
1931 1 39.61171934344725 22.869572448123293 1.5726922259548042 0 0 0
1773 5 43.384886738047044 18.513946802650477 0.03273270794301013 0 0 0
1770 1 41.49801929912025 19.602405086582294 1.5726922259548042 0 0 0
1776 1 45.27061921046625 19.602405086582294 1.5726922259548042 0 0 0
1768 5 41.49858678237404 21.781114164191475 0.032732707943010766 0 0 0
1937 1 43.38431925479325 22.869572448123293 1.5726922259548044 0 0 0
1774 5 45.27118669372004 21.781114164191475 0.03273270794301076 0 0 0
1779 5 47.15748664939304 18.513946802650477 0.032732707943011356 0 0 0
1782 1 49.04321912181225 19.602405086582294 1.5726922259548042 0 0 0
1943 1 47.156919166139254 22.869572448123293 1.5726922259548044 0 0 0
1780 5 49.043786605066046 21.781114164191475 0.032732707943009545 0 0 0
1623 5 50.93008656073904 18.513946802650477 0.03273270794301074 -1 0 0
1787 1 50.92951907748525 22.869572448123293 1.5726922259548037 -1 0 0
1629 5 54.70268647208504 18.513946802650477 0.032732707943010614 -1 0 0
1626 1 52.81581903315825 19.602405086582294 1.5726922259548042 -1 0 0
1624 5 52.816386516412045 21.781114164191475 0.03273270794301007 -1 0 0
1793 1 54.70211898883125 22.869572448123293 1.5726922259548044 -1 0 0
1632 1 56.58841894450425 19.602405086582294 1.5726922259548042 -1 0 0
1630 5 56.588986427758044 21.781114164191475 0.03273270794301006 -1 0 0
1635 5 58.47528638343104 18.513946802650477 0.032732707943010614 -1 0 0
1638 1 60.36101885585025 19.602405086582294 1.5726922259548042 -1 0 0
1799 1 58.47471890017725 22.869572448123293 1.5726922259548044 -1 0 0
1636 5 60.36158633910404 21.781114164191475 0.032732707943009934 -1 0 0
1641 5 62.24788629477704 18.513946802650477 0.032732707943011294 -1 0 0
1805 1 62.24731881152325 22.869572448123296 1.5726922259548048 -1 0 0
1647 5 66.02048620612304 18.513946802650477 0.03273270794301036 -1 0 0
1644 1 64.13361876719625 19.602405086582294 1.5726922259548046 -1 0 0
1642 5 64.13418625045004 21.781114164191475 0.032732707943011495 -1 0 0
1811 1 66.01991872286925 22.869572448123293 1.5726922259548042 -1 0 0
1650 1 67.90621867854225 19.602405086582294 1.5726922259548042 -1 0 0
1648 5 67.90678616179603 21.781114164191475 0.03273270794300886 -1 0 0
1653 5 69.79308611746903 18.513946802650477 0.03273270794300907 -1 0 0
1656 1 71.67881858988825 19.602405086582294 1.5726922259548042 -1 0 0
1817 1 69.79251863421524 22.869572448123293 1.5726922259548044 -1 0 0
1654 5 71.67938607314204 21.781114164191475 0.0327327079430101 -1 0 0
1659 5 73.56568602881504 18.513946802650477 0.03273270794301168 -1 0 0
1823 1 73.56511854556125 22.869572448123293 1.5726922259548042 -1 0 0
1665 5 77.33828594016104 18.513946802650477 0.03273270794301207 -1 0 0
1662 1 75.45141850123426 19.602405086582294 1.5726922259548042 -1 0 0
1660 5 75.45198598448805 21.781114164191475 0.03273270794301125 -1 0 0
1829 1 77.33771845690725 22.869572448123293 1.5726922259548042 -1 0 0
1668 1 79.22401841258025 19.602405086582294 1.5726922259548042 -1 0 0
1666 5 79.22458589583404 21.781114164191475 0.03273270794300989 -1 0 0
1671 5 81.11088585150704 18.513946802650473 0.03273270794300936 -1 0 0
1677 5 84.88348576285304 18.513946802650473 0.03273270794301067 -1 0 0
1674 1 82.99661832392624 19.602405086582294 1.5726922259548042 -1 0 0
1835 1 81.11031836825325 22.869572448123293 1.5726922259548042 -1 0 0
1672 5 82.99718580718003 21.781114164191475 0.03273270794300857 -1 0 0
1841 1 84.88291827959925 22.869572448123293 1.5726922259548042 -1 0 0
1683 5 88.65608567419905 18.513946802650477 0.03273270794301179 -1 0 0
1680 1 86.76921823527225 19.602405086582294 1.5726922259548042 -1 0 0
1678 5 86.76978571852604 21.781114164191475 0.03273270794301114 -1 0 0
1847 1 88.65551819094526 22.869572448123293 1.5726922259548042 -1 0 0
1686 1 90.54181814661825 19.602405086582294 1.5726922259548042 -1 0 0
1684 5 90.54238562987204 21.781114164191475 0.03273270794301149 -1 0 0
1689 5 92.42868558554504 18.513946802650477 0.03273270794301041 -1 0 0
1692 1 94.31441805796425 19.602405086582294 1.5726922259548042 -1 0 0
1853 1 92.42811810229125 22.869572448123293 1.5726922259548042 -1 0 0
1690 5 94.31498554121804 21.781114164191475 0.03273270794300888 -1 0 0
1695 5 96.20128549689103 18.513946802650477 0.03273270794300907 -1 0 0
1859 1 96.20071801363724 22.869572448123293 1.5726922259548044 -1 0 0
1704 1 101.85961788065624 19.602405086582294 1.5726922259548042 -1 0 0
1702 5 101.86018536391003 21.781114164191475 0.03273270794301095 -1 0 0
1701 5 99.97388540823704 18.513946802650477 0.0327327079430118 -1 0 0
1698 1 98.08701796931025 19.602405086582294 1.5726922259548042 -1 0 0
1696 5 98.08758545256404 21.781114164191475 0.0327327079430101 -1 0 0
1865 1 99.97331792498325 22.869572448123293 1.5726922259548037 -1 0 0
1869 5 1.8862877132410443 25.048281525732474 0.03273270794300997 0 0 0
1872 1 3.772020185660253 26.13673980966429 1.5726922259548044 0 0 0
1870 5 3.7725876689140434 28.315448887273472 0.03273270794301002 0 0 0
1875 5 5.658887624587043 25.048281525732474 0.03273270794300995 0 0 0
1881 5 9.431487535933043 25.048281525732474 0.032732707943010204 0 0 0
1878 1 7.544620097006252 26.13673980966429 1.5726922259548044 0 0 0
1884 1 11.317220008352255 26.13673980966429 1.5726922259548042 0 0 0
1876 5 7.545187580260043 28.315448887273472 0.03273270794301005 0 0 0
1882 5 11.317787491606044 28.315448887273472 0.03273270794301102 0 0 0
1887 5 13.204087447279047 25.048281525732474 0.032732707943010614 0 0 0
1890 1 15.089819919698254 26.13673980966429 1.5726922259548042 0 0 0
1888 5 15.090387402952045 28.315448887273472 0.03273270794300917 0 0 0
1893 5 16.976687358625046 25.048281525732474 0.032732707943009275 0 0 0
1899 5 20.749287269971045 25.048281525732474 0.03273270794301081 0 0 0
1896 1 18.862419831044253 26.13673980966429 1.5726922259548042 0 0 0
1894 5 18.862987314298042 28.315448887273472 0.03273270794301079 0 0 0
1902 1 22.635019742390252 26.13673980966429 1.5726922259548044 0 0 0
1900 5 22.635587225644045 28.315448887273472 0.03273270794300919 0 0 0
1905 5 24.521887181317044 25.048281525732474 0.03273270794300919 0 0 0
1908 1 26.40761965373625 26.13673980966429 1.5726922259548042 0 0 0
1906 5 26.40818713699004 28.315448887273472 0.0327327079430108 0 0 0
1911 5 28.294487092663044 25.048281525732474 0.032732707943010794 0 0 0
1917 5 32.06708700400904 25.048281525732474 0.032732707943010475 0 0 0
1914 1 30.18021956508225 26.13673980966429 1.5726922259548046 0 0 0
1912 5 30.180787048336043 28.315448887273472 0.03273270794300929 0 0 0
1920 1 33.95281947642825 26.13673980966429 1.5726922259548044 0 0 0
1918 5 33.95338695968204 28.315448887273472 0.03273270794301078 0 0 0
1923 5 35.839686915355045 25.048281525732474 0.03273270794300918 0 0 0
1929 5 39.61228682670104 25.048281525732474 0.03273270794301082 0 0 0
1926 1 37.72541938777425 26.13673980966429 1.5726922259548042 0 0 0
1924 5 37.72598687102804 28.315448887273472 0.03273270794300917 0 0 0
1935 5 43.384886738047044 25.048281525732474 0.032732707943009545 0 0 0
1932 1 41.49801929912025 26.13673980966429 1.5726922259548042 0 0 0
1938 1 45.27061921046625 26.13673980966429 1.5726922259548042 0 0 0
1930 5 41.49858678237404 28.315448887273472 0.032732707943010766 0 0 0
1936 5 45.27118669372004 28.315448887273472 0.03273270794301076 0 0 0
1941 5 47.15748664939304 25.048281525732474 0.03273270794301077 0 0 0
1944 1 49.04321912181225 26.13673980966429 1.5726922259548042 0 0 0
1942 5 49.043786605066046 28.315448887273472 0.032732707943009545 0 0 0
1785 5 50.93008656073904 25.048281525732474 0.03273270794301017 -1 0 0
1791 5 54.70268647208504 25.048281525732474 0.03273270794301005 -1 0 0
1788 1 52.81581903315825 26.13673980966429 1.5726922259548042 -1 0 0
1786 5 52.816386516412045 28.315448887273472 0.03273270794301007 -1 0 0
1794 1 56.58841894450425 26.13673980966429 1.5726922259548044 -1 0 0
1792 5 56.588986427758044 28.315448887273472 0.032732707943010066 -1 0 0