LAMMPS data file via write_data, version 29 Aug 2024, timestep = 2, units = metal

4860 atoms
6 atom types

0 101.860197606342 xlo xhi
0 98.01502084623 ylo yhi
-50 50 zlo zhi

Masses

1 178.49
2 178.49
3 78.971
4 78.971
5 78.971
6 78.971

Atoms # atomic

1385 1 1.8857231929311105 3.266571153743279 1.5727114814789924 0 0 0
1222 4 3.7725876143824606 2.178109994773099 0.03292634605572265 0 0 0
1383 4 1.8862876587094617 5.445277356314098 0.03292634605572292 0 0 0
1391 1 5.65832310427711 3.2665711537432784 1.5727114814789924 0 0 0
1389 4 5.6588875700554615 5.445277356314098 0.03292634605572303 0 0 0
1228 4 7.54518752572846 2.178109994773099 0.03292634605572251 0 0 0
1397 1 9.430923015623108 3.266571153743279 1.5727114814789924 0 0 0
1234 4 11.317787437074461 2.1781099947730995 0.03292634605572354 0 0 0
1395 4 9.43148748140146 5.445277356314098 0.03292634605572299 0 0 0
1403 1 13.203522926969113 3.266571153743279 1.5727114814789924 0 0 0
1240 4 15.090387348420462 2.178109994773098 0.032926346055721756 0 0 0
1401 4 13.204087392747462 5.445277356314098 0.03292634605572384 0 0 0
1409 1 16.97612283831511 3.266571153743279 1.5727114814789922 0 0 0
1407 4 16.97668730409346 5.445277356314097 0.03292634605572207 0 0 0
1246 4 18.86298725976646 2.1781099947730995 0.03292634605572353 0 0 0
1415 1 20.74872274966111 3.266571153743279 1.5727114814789922 0 0 0
1413 4 20.749287215439463 5.445277356314098 0.032926346055723844 0 0 0
1252 4 22.635587171112462 2.178109994773098 0.03292634605572175 0 0 0
1421 1 24.521322661007108 3.266571153743279 1.5727114814789924 0 0 0
1258 4 26.408187082458458 2.1781099947730995 0.03292634605572353 0 0 0
1419 4 24.521887126785458 5.445277356314097 0.03292634605572206 0 0 0
1427 1 28.293922572353107 3.2665711537432784 1.5727114814789922 0 0 0
1425 4 28.29448703813146 5.445277356314098 0.032926346055723775 0 0 0
1264 4 30.18078699380446 2.1781099947730986 0.03292634605572233 0 0 0
1433 1 32.06652248369911 3.2665711537432784 1.572711481478992 0 0 0
1431 4 32.06708694947746 5.445277356314099 0.032926346055724094 0 0 0
1270 4 33.95338690515047 2.1781099947730995 0.032926346055723546 0 0 0
1439 1 35.839122395045116 3.2665711537432793 1.572711481478993 0 0 0
1276 4 37.72598681649646 2.178109994773098 0.032926346055721714 0 0 0
1445 1 39.611722306391115 3.2665711537432784 1.5727114814789918 0 0 0
1437 4 35.83968686082346 5.445277356314097 0.03292634605572209 0 0 0
1443 4 39.61228677216946 5.445277356314098 0.03292634605572382 0 0 0
1282 4 41.498586727842465 2.1781099947730995 0.03292634605572348 0 0 0
1451 1 43.384322217737115 3.266571153743279 1.5727114814789922 0 0 0
1288 4 45.271186639188464 2.1781099947730995 0.03292634605572349 0 0 0
1449 4 43.38488668351546 5.445277356314097 0.03292634605572236 0 0 0
1457 1 47.156922129083114 3.266571153743279 1.5727114814789929 0 0 0
1294 4 49.04378655053446 2.178109994773098 0.03292634605572164 0 0 0
1455 4 47.15748659486147 5.445277356314098 0.03292634605572385 0 0 0
1301 1 50.92952204042911 3.2665711537432784 1.5727114814789918 -1 0 0
1299 4 50.93008650620746 5.445277356314097 0.03292634605572247 -1 0 0
1138 4 52.81638646188046 2.178109994773099 0.03292634605572266 -1 0 0
1307 1 54.70212195177511 3.2665711537432784 1.5727114814789924 -1 0 0
1305 4 54.70268641755346 5.445277356314098 0.03292634605572303 -1 0 0
1144 4 56.58898637322646 2.178109994773099 0.03292634605572265 -1 0 0
1313 1 58.47472186312111 3.2665711537432784 1.5727114814789924 -1 0 0
1150 4 60.36158628457246 2.178109994773099 0.032926346055723046 -1 0 0
1311 4 58.47528632889946 5.445277356314098 0.03292634605572297 -1 0 0
1319 1 62.24732177446711 3.2665711537432793 1.5727114814789935 -1 0 0
1317 4 62.247886240245464 5.445277356314098 0.032926346055723664 -1 0 0
1156 4 64.13418619591846 2.1781099947730995 0.03292634605572339 -1 0 0
1325 1 66.01992168581312 3.2665711537432784 1.5727114814789913 -1 0 0
1323 4 66.02048615159147 5.445277356314097 0.032926346055722595 -1 0 0
1162 4 67.90678610726447 2.178109994773098 0.032926346055721346 -1 0 0
1331 1 69.79252159715911 3.266571153743279 1.5727114814789924 -1 0 0
1168 4 71.67938601861046 2.178109994773099 0.032926346055722956 -1 0 0
1329 4 69.79308606293746 5.445277356314097 0.03292634605572163 -1 0 0
1337 1 73.5651215085051 3.266571153743279 1.5727114814789924 -1 0 0
1335 4 73.56568597428345 5.445277356314099 0.032926346055724184 -1 0 0
1174 4 75.45198592995646 2.1781099947730995 0.03292634605572366 -1 0 0
1343 1 77.3377214198511 3.266571153743279 1.5727114814789924 -1 0 0
1341 4 77.33828588562946 5.445277356314099 0.03292634605572433 -1 0 0
1180 4 79.22458584130247 2.1781099947730986 0.03292634605572231 -1 0 0
1349 1 81.11032133119711 3.266571153743279 1.5727114814789924 -1 0 0
1186 4 82.99718575264846 2.178109994773098 0.03292634605572131 -1 0 0
1355 1 84.8829212425431 3.2665711537432793 1.5727114814789935 -1 0 0
1347 4 81.11088579697547 5.445277356314097 0.032926346055721735 -1 0 0
1353 4 84.88348570832146 5.445277356314098 0.0329263460557233 -1 0 0
1192 4 86.76978566399445 2.1781099947731 0.03292634605572374 -1 0 0
1361 1 88.65552115388911 3.266571153743279 1.5727114814789924 -1 0 0
1359 4 88.65608561966746 5.445277356314099 0.032926346055724046 -1 0 0
1198 4 90.54238557534046 2.1781099947730995 0.03292634605572396 -1 0 0
1367 1 92.42812106523512 3.2665711537432784 1.5727114814789913 -1 0 0
1204 4 94.31498548668647 2.178109994773098 0.032926346055721346 -1 0 0
1365 4 92.42868553101347 5.445277356314097 0.03292634605572261 -1 0 0
1373 1 96.20072097658111 3.266571153743279 1.5727114814789924 -1 0 0
1371 4 96.20128544235946 5.445277356314097 0.03292634605572163 -1 0 0
1216 4 101.86018530937847 2.1781099947730995 0.03292634605572344 -1 0 0
1210 4 98.08758539803246 2.178109994773099 0.032926346055723026 -1 0 0
1379 1 99.9733208879271 3.2665711537432784 1.5727114814789922 -1 0 0
1377 4 99.97388535370546 5.445277356314099 0.03292634605572436 -1 0 0
1386 1 3.772023148604112 6.533738515284277 1.5727114814789924 0 0 0
1547 1 1.8857231929311105 9.800905876825277 1.5727114814789924 0 0 0
1384 4 3.7725876143824606 8.712444717855096 0.03292634605572312 0 0 0
1553 1 5.65832310427711 9.800905876825277 1.5727114814789924 0 0 0
1392 1 7.544623059950111 6.533738515284277 1.5727114814789926 0 0 0
1398 1 11.317222971296113 6.533738515284277 1.5727114814789924 0 0 0
1390 4 7.54518752572846 8.712444717855096 0.03292634605572299 0 0 0
1559 1 9.430923015623108 9.800905876825277 1.5727114814789922 0 0 0
1396 4 11.317787437074461 8.712444717855098 0.032926346055724115 0 0 0
1404 1 15.089822882642114 6.533738515284278 1.5727114814789922 0 0 0
1565 1 13.203522926969113 9.800905876825277 1.5727114814789924 0 0 0
1402 4 15.090387348420462 8.712444717855096 0.03292634605572228 0 0 0
1571 1 16.97612283831511 9.800905876825277 1.5727114814789922 0 0 0
1410 1 18.86242279398811 6.533738515284278 1.5727114814789924 0 0 0
1408 4 18.86298725976646 8.712444717855098 0.032926346055723865 0 0 0
1577 1 20.74872274966111 9.800905876825277 1.5727114814789924 0 0 0
1416 1 22.635022705334112 6.533738515284278 1.5727114814789924 0 0 0
1414 4 22.635587171112462 8.712444717855096 0.03292634605572226 0 0 0
1422 1 26.407622616680108 6.533738515284278 1.5727114814789924 0 0 0
1583 1 24.521322661007108 9.800905876825277 1.5727114814789924 0 0 0
1420 4 26.408187082458458 8.712444717855098 0.03292634605572388 0 0 0
1589 1 28.293922572353107 9.800905876825277 1.5727114814789924 0 0 0
1428 1 30.18022252802611 6.533738515284277 1.5727114814789922 0 0 0
1426 4 30.18078699380446 8.712444717855096 0.032926346055722776 0 0 0
1595 1 32.06652248369911 9.800905876825277 1.572711481478992 0 0 0
1434 1 33.95282243937211 6.533738515284278 1.5727114814789929 0 0 0
1432 4 33.95338690515047 8.712444717855098 0.03292634605572389 0 0 0
1440 1 37.72542235071811 6.533738515284277 1.5727114814789918 0 0 0
1601 1 35.839122395045116 9.800905876825277 1.5727114814789929 0 0 0
1438 4 37.72598681649646 8.712444717855096 0.03292634605572218 0 0 0
1607 1 39.611722306391115 9.800905876825277 1.5727114814789918 0 0 0
1446 1 41.49802226206411 6.533738515284278 1.5727114814789929 0 0 0
1452 1 45.27062217341012 6.533738515284277 1.5727114814789918 0 0 0
1444 4 41.498586727842465 8.712444717855098 0.03292634605572382 0 0 0
1613 1 43.384322217737115 9.800905876825277 1.5727114814789924 0 0 0
1450 4 45.271186639188464 8.712444717855098 0.032926346055723824 0 0 0
1458 1 49.04322208475612 6.533738515284278 1.5727114814789929 0 0 0
1619 1 47.156922129083114 9.800905876825277 1.5727114814789929 0 0 0
1456 4 49.04378655053446 8.712444717855096 0.03292634605572212 0 0 0
1463 1 50.92952204042911 9.800905876825276 1.5727114814789918 -1 0 0
1302 1 52.81582199610211 6.533738515284277 1.5727114814789924 -1 0 0
1300 4 52.81638646188046 8.712444717855096 0.03292634605572302 -1 0 0
1469 1 54.70212195177511 9.800905876825277 1.5727114814789924 -1 0 0
1308 1 56.58842190744811 6.533738515284277 1.5727114814789924 -1 0 0
1306 4 56.58898637322646 8.712444717855096 0.03292634605572301 -1 0 0
1314 1 60.36102181879411 6.533738515284277 1.5727114814789918 -1 0 0
1475 1 58.47472186312111 9.800905876825277 1.5727114814789924 -1 0 0
1312 4 60.36158628457246 8.712444717855098 0.032926346055723456 -1 0 0
1481 1 62.24732177446711 9.800905876825277 1.5727114814789935 -1 0 0
1320 1 64.1336217301401 6.533738515284278 1.5727114814789924 -1 0 0
1318 4 64.13418619591846 8.712444717855098 0.03292634605572379 -1 0 0
1487 1 66.01992168581312 9.800905876825276 1.572711481478991 -1 0 0
1326 1 67.90622164148611 6.533738515284278 1.5727114814789924 -1 0 0
1324 4 67.90678610726447 8.712444717855096 0.03292634605572178 -1 0 0
1332 1 71.6788215528321 6.533738515284278 1.5727114814789935 -1 0 0
1493 1 69.79252159715911 9.800905876825277 1.5727114814789922 -1 0 0
1330 4 71.67938601861046 8.712444717855098 0.032926346055723345 -1 0 0
1499 1 73.5651215085051 9.800905876825277 1.5727114814789922 -1 0 0
1338 1 75.45142146417811 6.533738515284277 1.5727114814789926 -1 0 0
1336 4 75.45198592995646 8.712444717855098 0.03292634605572415 -1 0 0
1505 1 77.3377214198511 9.800905876825277 1.5727114814789922 -1 0 0
1344 1 79.22402137552412 6.533738515284277 1.572711481478991 -1 0 0
1342 4 79.22458584130247 8.712444717855098 0.032926346055722776 -1 0 0
1350 1 82.99662128687011 6.533738515284278 1.5727114814789924 -1 0 0
1511 1 81.11032133119711 9.800905876825277 1.5727114814789922 -1 0 0
1348 4 82.99718575264846 8.712444717855096 0.03292634605572178 -1 0 0
1517 1 84.8829212425431 9.800905876825277 1.5727114814789933 -1 0 0
1356 1 86.7692211982161 6.533738515284277 1.5727114814789926 -1 0 0
1354 4 86.76978566399445 8.712444717855098 0.03292634605572423 -1 0 0
1523 1 88.65552115388911 9.800905876825277 1.5727114814789922 -1 0 0
1362 1 90.54182110956211 6.533738515284278 1.5727114814789924 -1 0 0
1360 4 90.54238557534046 8.712444717855098 0.03292634605572435 -1 0 0
1368 1 94.31442102090811 6.533738515284278 1.5727114814789924 -1 0 0
1529 1 92.42812106523512 9.800905876825276 1.572711481478991 -1 0 0
1366 4 94.31498548668647 8.712444717855096 0.03292634605572179 -1 0 0
1535 1 96.20072097658111 9.800905876825277 1.5727114814789922 -1 0 0
1380 1 101.85962084360011 6.533738515284277 1.5727114814789915 -1 0 0
1378 4 101.86018530937847 8.712444717855098 0.03292634605572385 -1 0 0
1374 1 98.0870209322541 6.533738515284278 1.5727114814789935 -1 0 0
1372 4 98.08758539803246 8.712444717855098 0.032926346055723345 -1 0 0
1541 1 99.9733208879271 9.800905876825277 1.5727114814789924 -1 0 0
1545 4 1.8862876587094617 11.979612079396096 0.03292634605572341 0 0 0
1548 1 3.772023148604112 13.068073238366278 1.5727114814789918 0 0 0
1546 4 3.7725876143824606 15.2467794409371 0.0329263460557233 0 0 0
1709 1 1.8857231929311105 16.33524059990728 1.5727114814789933 0 0 0
1551 4 5.658887570055461 11.979612079396096 0.03292634605572351 0 0 0
1715 1 5.65832310427711 16.33524059990728 1.572711481478993 0 0 0
1554 1 7.544623059950111 13.068073238366278 1.5727114814789918 0 0 0
1557 4 9.431487481401462 11.979612079396096 0.03292634605572355 0 0 0
1560 1 11.317222971296113 13.068073238366278 1.572711481478992 0 0 0
1552 4 7.54518752572846 15.2467794409371 0.03292634605572311 0 0 0
1558 4 11.317787437074461 15.2467794409371 0.03292634605572425 0 0 0
1721 1 9.430923015623108 16.33524059990728 1.572711481478993 0 0 0
1563 4 13.204087392747462 11.979612079396098 0.03292634605572429 0 0 0
1566 1 15.089822882642114 13.068073238366278 1.5727114814789918 0 0 0
1564 4 15.090387348420462 15.246779440937098 0.03292634605572229 0 0 0
1727 1 13.203522926969113 16.33524059990728 1.5727114814789933 0 0 0
1569 4 16.97668730409346 11.979612079396096 0.03292634605572275 0 0 0
1733 1 16.97612283831511 16.33524059990728 1.5727114814789929 0 0 0
1572 1 18.86242279398811 13.068073238366278 1.572711481478992 0 0 0
1575 4 20.749287215439463 11.979612079396098 0.032926346055724295 0 0 0
1570 4 18.86298725976646 15.2467794409371 0.03292634605572408 0 0 0
1739 1 20.74872274966111 16.335240599907277 1.5727114814789933 0 0 0
1578 1 22.635022705334112 13.068073238366278 1.572711481478992 0 0 0
1576 4 22.635587171112462 15.246779440937098 0.032926346055722276 0 0 0
1581 4 24.521887126785458 11.979612079396096 0.03292634605572274 0 0 0
1584 1 26.407622616680108 13.068073238366278 1.572711481478992 0 0 0
1582 4 26.408187082458458 15.2467794409371 0.03292634605572408 0 0 0
1745 1 24.521322661007108 16.33524059990728 1.572711481478993 0 0 0
1587 4 28.29448703813146 11.979612079396098 0.03292634605572422 0 0 0
1751 1 28.293922572353107 16.335240599907277 1.5727114814789933 0 0 0
1590 1 30.18022252802611 13.068073238366278 1.5727114814789915 0 0 0
1593 4 32.06708694947746 11.979612079396098 0.03292634605572452 0 0 0
1588 4 30.18078699380446 15.246779440937098 0.032926346055722915 0 0 0
1757 1 32.06652248369911 16.335240599907277 1.5727114814789929 0 0 0
1596 1 33.95282243937211 13.068073238366278 1.5727114814789924 0 0 0
1594 4 33.95338690515047 15.2467794409371 0.0329263460557241 0 0 0
1599 4 35.83968686082346 11.979612079396096 0.032926346055722776 0 0 0
1602 1 37.72542235071811 13.068073238366278 1.5727114814789913 0 0 0
1605 4 39.61228677216946 11.979612079396098 0.032926346055724275 0 0 0
1600 4 37.72598681649646 15.246779440937098 0.03292634605572224 0 0 0
1763 1 35.839122395045116 16.33524059990728 1.5727114814789938 0 0 0
1769 1 39.611722306391115 16.335240599907277 1.5727114814789926 0 0 0
1608 1 41.49802226206411 13.068073238366278 1.5727114814789924 0 0 0
1611 4 43.38488668351546 11.979612079396096 0.0329263460557231 0 0 0
1614 1 45.27062217341012 13.068073238366278 1.5727114814789913 0 0 0
1606 4 41.498586727842465 15.2467794409371 0.03292634605572403 0 0 0
1612 4 45.271186639188464 15.2467794409371 0.03292634605572404 0 0 0
1775 1 43.384322217737115 16.33524059990728 1.572711481478993 0 0 0
1617 4 47.15748659486147 11.979612079396098 0.03292634605572431 0 0 0
1620 1 49.04322208475612 13.068073238366278 1.5727114814789924 0 0 0
1618 4 49.04378655053446 15.246779440937098 0.03292634605572233 0 0 0
1781 1 47.156922129083114 16.33524059990728 1.5727114814789938 0 0 0
1461 4 50.93008650620746 11.979612079396096 0.03292634605572297 -1 0 0
1625 1 50.92952204042911 16.33524059990728 1.5727114814789926 -1 0 0
1464 1 52.81582199610211 13.068073238366278 1.5727114814789918 -1 0 0
1467 4 54.70268641755346 11.979612079396096 0.03292634605572345 -1 0 0
1462 4 52.81638646188046 15.2467794409371 0.032926346055723255 -1 0 0
1631 1 54.70212195177511 16.33524059990728 1.5727114814789933 -1 0 0
1470 1 56.58842190744811 13.068073238366278 1.5727114814789918 -1 0 0
1468 4 56.58898637322646 15.2467794409371 0.032926346055723234 -1 0 0
1473 4 58.47528632889946 11.979612079396096 0.032926346055723386 -1 0 0
1476 1 60.36102181879411 13.068073238366278 1.5727114814789913 -1 0 0
1474 4 60.36158628457246 15.2467794409371 0.032926346055723636 -1 0 0
1637 1 58.47472186312111 16.33524059990728 1.5727114814789933 -1 0 0
1479 4 62.247886240245464 11.979612079396098 0.032926346055724094 -1 0 0
1643 1 62.24732177446711 16.33524059990728 1.5727114814789944 -1 0 0
1482 1 64.1336217301401 13.068073238366278 1.572711481478992 -1 0 0
1485 4 66.02048615159147 11.979612079396096 0.032926346055723255 -1 0 0
1480 4 64.13418619591846 15.2467794409371 0.032926346055724 -1 0 0
1649 1 66.01992168581312 16.335240599907277 1.572711481478992 -1 0 0
1488 1 67.90622164148611 13.068073238366278 1.5727114814789918 -1 0 0
1486 4 67.90678610726447 15.2467794409371 0.03292634605572185 -1 0 0
1491 4 69.79308606293746 11.979612079396096 0.032926346055722235 -1 0 0
1494 1 71.6788215528321 13.068073238366278 1.572711481478993 -1 0 0
1492 4 71.67938601861046 15.2467794409371 0.03292634605572355 -1 0 0
1655 1 69.79252159715911 16.33524059990728 1.572711481478993 -1 0 0
1497 4 73.56568597428345 11.979612079396098 0.032926346055724726 -1 0 0
1661 1 73.5651215085051 16.335240599907277 1.5727114814789933 -1 0 0
1500 1 75.45142146417811 13.068073238366278 1.572711481478992 -1 0 0
1503 4 77.33828588562946 11.979612079396098 0.032926346055724774 -1 0 0
1498 4 75.45198592995646 15.2467794409371 0.03292634605572437 -1 0 0
1667 1 77.3377214198511 16.335240599907277 1.5727114814789933 -1 0 0
1506 1 79.22402137552412 13.068073238366276 1.5727114814789906 -1 0 0
1504 4 79.22458584130247 15.246779440937098 0.03292634605572278 -1 0 0
1509 4 81.11088579697547 11.979612079396096 0.0329263460557222 -1 0 0
1512 1 82.99662128687011 13.068073238366278 1.572711481478992 -1 0 0
1515 4 84.88348570832146 11.979612079396098 0.032926346055723754 -1 0 0
1510 4 82.99718575264846 15.246779440937098 0.03292634605572183 -1 0 0
1673 1 81.11032133119711 16.33524059990728 1.572711481478993 -1 0 0
1679 1 84.8829212425431 16.33524059990728 1.5727114814789944 -1 0 0
1518 1 86.7692211982161 13.068073238366278 1.572711481478992 -1 0 0
1521 4 88.65608561966746 11.979612079396098 0.032926346055724684 -1 0 0
1516 4 86.76978566399445 15.2467794409371 0.032926346055724455 -1 0 0
1685 1 88.65552115388911 16.335240599907277 1.5727114814789933 -1 0 0
1524 1 90.54182110956211 13.068073238366278 1.572711481478992 -1 0 0
1522 4 90.54238557534046 15.2467794409371 0.0329263460557245 -1 0 0
1527 4 92.42868553101347 11.979612079396096 0.03292634605572326 -1 0 0
1530 1 94.31442102090811 13.068073238366278 1.5727114814789918 -1 0 0
1528 4 94.31498548668647 15.2467794409371 0.03292634605572186 -1 0 0
1691 1 92.42812106523512 16.335240599907277 1.572711481478992 -1 0 0
1533 4 96.20128544235946 11.979612079396096 0.032926346055722235 -1 0 0
1697 1 96.20072097658111 16.33524059990728 1.572711481478993 -1 0 0
1542 1 101.85962084360011 13.068073238366278 1.5727114814789909 -1 0 0
1540 4 101.86018530937847 15.2467794409371 0.03292634605572399 -1 0 0
1536 1 98.0870209322541 13.068073238366278 1.572711481478993 -1 0 0
1539 4 99.97388535370546 11.979612079396098 0.03292634605572481 -1 0 0
1534 4 98.08758539803246 15.2467794409371 0.03292634605572355 -1 0 0
1703 1 99.9733208879271 16.33524059990728 1.5727114814789933 -1 0 0
1707 4 1.8862876587094617 18.5139468024781 0.032926346055723414 0 0 0
1710 1 3.772023148604112 19.60240796144828 1.5727114814789922 0 0 0
1871 1 1.8857231929311105 22.869575322989277 1.5727114814789924 0 0 0
1708 4 3.7725876143824606 21.781114164019098 0.03292634605572296 0 0 0
1713 4 5.658887570055461 18.5139468024781 0.03292634605572354 0 0 0
1877 1 5.65832310427711 22.869575322989277 1.5727114814789924 0 0 0
1719 4 9.43148748140146 18.5139468024781 0.03292634605572355 0 0 0
1716 1 7.544623059950111 19.60240796144828 1.5727114814789924 0 0 0
1722 1 11.317222971296113 19.60240796144828 1.5727114814789926 0 0 0
1714 4 7.54518752572846 21.781114164019098 0.032926346055722894 0 0 0
1883 1 9.430923015623108 22.869575322989277 1.5727114814789922 0 0 0
1720 4 11.317787437074461 21.781114164019098 0.03292634605572393 0 0 0
1725 4 13.204087392747462 18.5139468024781 0.03292634605572431 0 0 0
1728 1 15.089822882642114 19.60240796144828 1.572711481478992 0 0 0
1889 1 13.203522926969113 22.869575322989277 1.5727114814789926 0 0 0
1726 4 15.090387348420462 21.781114164019098 0.03292634605572214 0 0 0
1731 4 16.97668730409346 18.5139468024781 0.032926346055722616 0 0 0
1895 1 16.97612283831511 22.869575322989277 1.5727114814789922 0 0 0
1737 4 20.749287215439463 18.5139468024781 0.032926346055724316 0 0 0
1734 1 18.86242279398811 19.60240796144828 1.5727114814789926 0 0 0
1732 4 18.86298725976646 21.781114164019098 0.03292634605572378 0 0 0
1901 1 20.74872274966111 22.869575322989277 1.5727114814789926 0 0 0
1740 1 22.635022705334112 19.60240796144828 1.5727114814789922 0 0 0
1738 4 22.635587171112462 21.781114164019098 0.032926346055722124 0 0 0
1743 4 24.521887126785458 18.5139468024781 0.0329263460557226 0 0 0
1746 1 26.407622616680108 19.60240796144828 1.5727114814789926 0 0 0
1907 1 24.521322661007108 22.869575322989277 1.5727114814789922 0 0 0
1744 4 26.408187082458458 21.781114164019098 0.03292634605572378 0 0 0
1749 4 28.29448703813146 18.5139468024781 0.032926346055724254 0 0 0
1913 1 28.293922572353107 22.869575322989277 1.5727114814789926 0 0 0
1755 4 32.06708694947746 18.5139468024781 0.03292634605572451 0 0 0
1752 1 30.18022252802611 19.60240796144828 1.5727114814789918 0 0 0
1750 4 30.18078699380446 21.781114164019098 0.03292634605572268 0 0 0
1919 1 32.06652248369911 22.869575322989277 1.5727114814789924 0 0 0
1758 1 33.95282243937211 19.60240796144828 1.572711481478993 0 0 0
1756 4 33.95338690515047 21.781114164019098 0.032926346055723796 0 0 0
1761 4 35.83968686082346 18.5139468024781 0.03292634605572263 0 0 0
1767 4 39.61228677216946 18.5139468024781 0.03292634605572429 0 0 0
1764 1 37.72542235071811 19.60240796144828 1.5727114814789918 0 0 0
1925 1 35.839122395045116 22.869575322989277 1.5727114814789929 0 0 0
1762 4 37.72598681649646 21.781114164019098 0.0329263460557221 0 0 0
1931 1 39.611722306391115 22.869575322989277 1.572711481478992 0 0 0
1773 4 43.38488668351546 18.5139468024781 0.032926346055722894 0 0 0
1770 1 41.49802226206411 19.60240796144828 1.572711481478993 0 0 0
1776 1 45.27062217341012 19.60240796144828 1.572711481478992 0 0 0
1768 4 41.498586727842465 21.781114164019098 0.03292634605572373 0 0 0
1937 1 43.384322217737115 22.869575322989277 1.5727114814789922 0 0 0
1774 4 45.271186639188464 21.781114164019098 0.03292634605572374 0 0 0
1779 4 47.15748659486147 18.5139468024781 0.03292634605572432 0 0 0
1782 1 49.04322208475612 19.60240796144828 1.5727114814789929 0 0 0
1943 1 47.156922129083114 22.869575322989277 1.5727114814789933 0 0 0
1780 4 49.04378655053446 21.781114164019098 0.032926346055722006 0 0 0
1623 4 50.93008650620746 18.5139468024781 0.03292634605572297 -1 0 0
1787 1 50.92952204042911 22.869575322989277 1.5727114814789918 -1 0 0
1629 4 54.70268641755346 18.5139468024781 0.03292634605572346 -1 0 0
1626 1 52.81582199610211 19.60240796144828 1.5727114814789924 -1 0 0
1624 4 52.81638646188046 21.781114164019098 0.03292634605572296 -1 0 0
1793 1 54.70212195177511 22.869575322989277 1.5727114814789924 -1 0 0
1632 1 56.58842190744811 19.60240796144828 1.5727114814789924 -1 0 0
1630 4 56.58898637322646 21.781114164019098 0.032926346055722956 -1 0 0
1635 4 58.47528632889946 18.5139468024781 0.03292634605572341 -1 0 0
1638 1 60.36102181879411 19.60240796144828 1.5727114814789915 -1 0 0
1799 1 58.47472186312111 22.869575322989277 1.5727114814789924 -1 0 0
1636 4 60.36158628457246 21.781114164019098 0.032926346055723414 -1 0 0
1641 4 62.247886240245464 18.5139468024781 0.03292634605572419 -1 0 0
1805 1 62.24732177446711 22.869575322989277 1.5727114814789938 -1 0 0
1647 4 66.02048615159147 18.5139468024781 0.03292634605572315 -1 0 0
1644 1 64.1336217301401 19.60240796144828 1.5727114814789924 -1 0 0
1642 4 64.13418619591846 21.781114164019098 0.032926346055723706 -1 0 0
1811 1 66.01992168581312 22.869575322989277 1.572711481478991 -1 0 0
1650 1 67.90622164148611 19.60240796144828 1.5727114814789924 -1 0 0
1648 4 67.90678610726447 21.781114164019098 0.032926346055721784 -1 0 0
1653 4 69.79308606293746 18.5139468024781 0.03292634605572218 -1 0 0
1656 1 71.6788215528321 19.60240796144828 1.572711481478994 -1 0 0
1817 1 69.79252159715911 22.869575322989277 1.5727114814789922 -1 0 0
1654 4 71.67938601861046 21.781114164019098 0.032926346055723275 -1 0 0
1659 4 73.56568597428345 18.5139468024781 0.03292634605572469 -1 0 0
1823 1 73.5651215085051 22.869575322989277 1.5727114814789924 -1 0 0
1665 4 77.33828588562946 18.5139468024781 0.03292634605572477 -1 0 0
1662 1 75.45142146417811 19.60240796144828 1.5727114814789926 -1 0 0
1660 4 75.45198592995646 21.781114164019098 0.032926346055724046 -1 0 0
1829 1 77.3377214198511 22.869575322989277 1.5727114814789929 -1 0 0
1668 1 79.22402137552412 19.60240796144828 1.572711481478991 -1 0 0
1666 4 79.22458584130247 21.781114164019098 0.03292634605572264 -1 0 0
1671 4 81.11088579697547 18.5139468024781 0.032926346055722276 -1 0 0
1677 4 84.88348570832146 18.5139468024781 0.0329263460557238 -1 0 0
1674 1 82.99662128687011 19.60240796144828 1.5727114814789922 -1 0 0
1835 1 81.11032133119711 22.869575322989277 1.5727114814789924 -1 0 0
1672 4 82.99718575264846 21.781114164019098 0.032926346055721686 -1 0 0
1841 1 84.8829212425431 22.869575322989277 1.572711481478994 -1 0 0
1683 4 88.65608561966746 18.5139468024781 0.03292634605572461 -1 0 0
1680 1 86.7692211982161 19.60240796144828 1.5727114814789926 -1 0 0
1678 4 86.76978566399445 21.781114164019098 0.03292634605572413 -1 0 0
1847 1 88.65552115388911 22.869575322989277 1.5727114814789924 -1 0 0
1686 1 90.54182110956211 19.60240796144828 1.5727114814789926 -1 0 0
1684 4 90.54238557534046 21.781114164019098 0.03292634605572422 -1 0 0
1689 4 92.42868553101347 18.5139468024781 0.032926346055723164 -1 0 0
1692 1 94.31442102090811 19.60240796144828 1.5727114814789924 -1 0 0
1853 1 92.42812106523512 22.869575322989277 1.572711481478991 -1 0 0
1690 4 94.31498548668647 21.781114164019098 0.0329263460557218 -1 0 0
1695 4 96.20128544235946 18.5139468024781 0.03292634605572218 -1 0 0
1859 1 96.20072097658111 22.869575322989277 1.5727114814789922 -1 0 0
1704 1 101.85962084360011 19.60240796144828 1.5727114814789913 -1 0 0
1702 4 101.86018530937847 21.781114164019098 0.03292634605572381 -1 0 0
1701 4 99.97388535370546 18.5139468024781 0.03292634605572491 -1 0 0
1698 1 98.0870209322541 19.60240796144828 1.5727114814789938 -1 0 0
1696 4 98.08758539803246 21.781114164019098 0.032926346055723275 -1 0 0
1865 1 99.9733208879271 22.869575322989277 1.5727114814789924 -1 0 0
1869 4 1.8862876587094617 25.048281525560096 0.0329263460557229 0 0 0
1872 1 3.772023148604112 26.136742684530276 1.5727114814789924 0 0 0
1870 4 3.7725876143824606 28.315448887101095 0.03292634605572297 0 0 0
1875 4 5.658887570055461 25.048281525560096 0.032926346055723026 0 0 0
1881 4 9.43148748140146 25.048281525560096 0.032926346055723046 0 0 0
1878 1 7.544623059950111 26.136742684530276 1.5727114814789926 0 0 0
1884 1 11.317222971296113 26.136742684530276 1.5727114814789926 0 0 0
1876 4 7.54518752572846 28.315448887101095 0.0329263460557229 0 0 0
1882 4 11.317787437074461 28.315448887101095 0.03292634605572393 0 0 0
1887 4 13.204087392747462 25.048281525560096 0.03292634605572377 0 0 0
1890 1 15.089822882642114 26.136742684530276 1.5727114814789922 0 0 0
1888 4 15.090387348420462 28.315448887101095 0.03292634605572214 0 0 0
1893 4 16.97668730409346 25.048281525560096 0.03292634605572212 0 0 0
1899 4 20.749287215439463 25.048281525560096 0.032926346055723775 0 0 0
1896 1 18.86242279398811 26.136742684530276 1.5727114814789926 0 0 0
1894 4 18.86298725976646 28.315448887101095 0.03292634605572378 0 0 0
1902 1 22.635022705334112 26.136742684530276 1.5727114814789922 0 0 0
1900 4 22.635587171112462 28.315448887101095 0.032926346055722124 0 0 0
1905 4 24.521887126785458 25.048281525560096 0.03292634605572211 0 0 0
1908 1 26.407622616680108 26.136742684530276 1.5727114814789926 0 0 0
1906 4 26.408187082458458 28.315448887101095 0.03292634605572378 0 0 0
1911 4 28.29448703813146 25.048281525560096 0.03292634605572371 0 0 0
1917 4 32.06708694947746 25.048281525560096 0.03292634605572397 0 0 0
1914 1 30.18022252802611 26.136742684530276 1.5727114814789918 0 0 0
1912 4 30.18078699380446 28.315448887101095 0.03292634605572268 0 0 0
1920 1 33.95282243937211 26.136742684530276 1.572711481478993 0 0 0
1918 4 33.95338690515047 28.315448887101095 0.032926346055723796 0 0 0
1923 4 35.83968686082346 25.048281525560096 0.03292634605572213 0 0 0
1929 4 39.61228677216946 25.048281525560096 0.03292634605572375 0 0 0
1926 1 37.72542235071811 26.136742684530276 1.5727114814789915 0 0 0
1924 4 37.72598681649646 28.315448887101095 0.0329263460557221 0 0 0
1935 4 43.38488668351546 25.048281525560096 0.032926346055722394 0 0 0
1932 1 41.49802226206411 26.136742684530276 1.572711481478993 0 0 0
1938 1 45.27062217341012 26.136742684530276 1.572711481478992 0 0 0
1930 4 41.498586727842465 28.315448887101095 0.03292634605572373 0 0 0
1936 4 45.271186639188464 28.315448887101095 0.03292634605572374 0 0 0
1941 4 47.15748659486147 25.048281525560096 0.03292634605572378 0 0 0
1944 1 49.04322208475612 26.136742684530276 1.5727114814789929 0 0 0
1942 4 49.04378655053446 28.315448887101095 0.032926346055722006 0 0 0
1785 4 50.93008650620746 25.048281525560096 0.03292634605572248 -1 0 0
1791 4 54.70268641755346 25.048281525560096 0.03292634605572295 -1 0 0
1788 1 52.81582199610211 26.136742684530276 1.5727114814789924 -1 0 0
1786 4 52.81638646188046 28.315448887101095 0.03292634605572296 -1 0 0
1794 1 56.58842190744811 26.136742684530276 1.5727114814789924 -1 0 0
1792 4 56.58898637322646 28.315448887101095 0.032926346055722956 -1 0 0
1797 4 58.47528632889946 25.048281525560096 0.0329263460557229 -1 0 0
1800 1 60.36102181879411 26.136742684530276 1.5727114814789918 -1 0 0
1798 4 60.36158628457246 28.315448887101095 0.032926346055723414 -1 0 0
1803 4 62.247886240245464 25.048281525560096 0.03292634605572363 -1 0 0