LAMMPS data file via write_data, version 29 Aug 2024, timestep = 0, units = metal

2430 atoms
3 atom types

0 101.860197606342 xlo xhi
0 98.01502084623 ylo yhi
0 18.143592238597 zlo zhi

Masses

1 178.49
2 78.95999999999999
3 78.971

Atoms # atomic

1218 1 0 0 1.5758890207769998 0 0 0
1224 1 3.772599911345999 0 1.5758890207769998 0 0 0
1230 1 7.545199822691998 0 1.5758890207769998 0 0 0
1236 1 11.317799734037997 0 1.5758890207769998 0 0 0
1242 1 15.090399645384004 0 1.5758890207769998 0 0 0
1248 1 18.862999556729996 0 1.5758890207769998 0 0 0
1254 1 22.635599468076002 0 1.5758890207769998 0 0 0
1260 1 26.408199379421994 0 1.5758890207769998 0 0 0
1266 1 30.180799290768 0 1.5758890207769998 0 0 0
1272 1 33.95339920211401 0 1.5758890207769998 0 0 0
1278 1 37.72599911346 0 1.5758890207769998 0 0 0
1284 1 41.498599024806005 0 1.5758890207769998 0 0 0
1290 1 45.271198936152 0 1.5758890207769998 0 0 0
1296 1 49.043798847498 0 1.5758890207769998 0 0 0
1140 1 52.816398758844 0 1.5758890207769998 -1 0 0
1146 1 56.58899867019 0 1.5758890207769998 -1 0 0
1152 1 60.361598581536 0 1.5758890207769998 -1 0 0
1158 1 64.134198492882 0 1.5758890207769998 -1 0 0
1164 1 67.906798404228 0 1.5758890207769998 -1 0 0
1170 1 71.67939831557399 0 1.5758890207769998 -1 0 0
1176 1 75.45199822692 0 1.5758890207769998 -1 0 0
1182 1 79.224598138266 0 1.5758890207769998 -1 0 0
1188 1 82.997198049612 0 1.5758890207769998 -1 0 0
1194 1 86.769797960958 0 1.5758890207769998 -1 0 0
1200 1 90.54239787230401 0 1.5758890207769998 -1 0 0
1206 1 94.31499778365 0 1.5758890207769998 -1 0 0
1212 1 98.08759769499599 0 1.5758890207769998 -1 0 0
1216 3 0 2.1781115743600026 0 0 0 0
1385 1 1.8862999556730031 3.2671673615409986 1.5758890207769998 0 0 0
1222 3 3.772599911345999 2.1781115743600026 0 0 0 0
1391 1 5.658899867019002 3.2671673615409986 1.5758890207769998 0 0 0
1228 3 7.545199822691998 2.1781115743600026 0 0 0 0
1397 1 9.431499778365001 3.2671673615409986 1.5758890207769998 0 0 0
1234 3 11.317799734037997 2.1781115743600026 0 0 0 0
1403 1 13.204099689711008 3.2671673615409986 1.5758890207769998 0 0 0
1240 3 15.090399645384004 2.1781115743600026 0 0 0 0
1409 1 16.976699601057 3.2671673615409986 1.5758890207769998 0 0 0
1246 3 18.862999556729996 2.1781115743600026 0 0 0 0
1415 1 20.749299512403006 3.2671673615409986 1.5758890207769998 0 0 0
1252 3 22.635599468076002 2.1781115743600026 0 0 0 0
1421 1 24.521899423748998 3.2671673615409986 1.5758890207769998 0 0 0
1258 3 26.408199379421994 2.1781115743600026 0 0 0 0
1427 1 28.294499335095004 3.2671673615409986 1.5758890207769998 0 0 0
1264 3 30.180799290768 2.1781115743600026 0 0 0 0
1433 1 32.067099246440996 3.2671673615409986 1.5758890207769998 0 0 0
1270 3 33.95339920211401 2.1781115743600026 0 0 0 0
1439 1 35.839699157787 3.2671673615409986 1.5758890207769998 0 0 0
1276 3 37.72599911346 2.1781115743600026 0 0 0 0
1445 1 39.612299069132995 3.2671673615409986 1.5758890207769998 0 0 0
1282 3 41.498599024806005 2.1781115743600026 0 0 0 0
1451 1 43.384898980479 3.2671673615409986 1.5758890207769998 0 0 0
1288 3 45.271198936152 2.1781115743600026 0 0 0 0
1457 1 47.15749889182501 3.2671673615409986 1.5758890207769998 0 0 0
1294 3 49.043798847498 2.1781115743600026 0 0 0 0
1138 3 52.816398758844 2.1781115743600026 0 -1 0 0
1301 1 50.930098803171 3.2671673615409986 1.5758890207769998 -1 0 0
1307 1 54.702698714517 3.2671673615409986 1.5758890207769998 -1 0 0
1144 3 56.58899867019 2.1781115743600026 0 -1 0 0
1313 1 58.475298625863 3.2671673615409986 1.5758890207769998 -1 0 0
1150 3 60.361598581536 2.1781115743600026 0 -1 0 0
1319 1 62.247898537209 3.2671673615409986 1.5758890207769998 -1 0 0
1156 3 64.134198492882 2.1781115743600026 0 -1 0 0
1325 1 66.020498448555 3.2671673615409986 1.5758890207769998 -1 0 0
1162 3 67.906798404228 2.1781115743600026 0 -1 0 0
1331 1 69.793098359901 3.2671673615409986 1.5758890207769998 -1 0 0
1168 3 71.67939831557399 2.1781115743600026 0 -1 0 0
1337 1 73.565698271247 3.2671673615409986 1.5758890207769998 -1 0 0
1174 3 75.45199822692 2.1781115743600026 0 -1 0 0
1343 1 77.33829818259301 3.2671673615409986 1.5758890207769998 -1 0 0
1180 3 79.224598138266 2.1781115743600026 0 -1 0 0
1349 1 81.110898093939 3.2671673615409986 1.5758890207769998 -1 0 0
1186 3 82.997198049612 2.1781115743600026 0 -1 0 0
1355 1 84.88349800528499 3.2671673615409986 1.5758890207769998 -1 0 0
1192 3 86.769797960958 2.1781115743600026 0 -1 0 0
1361 1 88.656097916631 3.2671673615409986 1.5758890207769998 -1 0 0
1198 3 90.54239787230401 2.1781115743600026 0 -1 0 0
1367 1 92.428697827977 3.2671673615409986 1.5758890207769998 -1 0 0
1204 3 94.31499778365 2.1781115743600026 0 -1 0 0
1373 1 96.201297739323 3.2671673615409986 1.5758890207769998 -1 0 0
1210 3 98.08759769499599 2.1781115743600026 0 -1 0 0
1379 1 99.973897650669 3.2671673615409986 1.5758890207769998 -1 0 0
1383 3 1.8862999556730031 5.445278935901001 0 0 0 0
1389 3 5.658899867019002 5.445278935901001 0 0 0 0
1395 3 9.431499778365001 5.445278935901001 0 0 0 0
1401 3 13.204099689711008 5.445278935901001 0 0 0 0
1407 3 16.976699601057 5.445278935901001 0 0 0 0
1413 3 20.749299512403006 5.445278935901001 0 0 0 0
1419 3 24.521899423748998 5.445278935901001 0 0 0 0
1425 3 28.294499335095004 5.445278935901001 0 0 0 0
1431 3 32.067099246440996 5.445278935901001 0 0 0 0
1437 3 35.839699157787 5.445278935901001 0 0 0 0
1443 3 39.612299069132995 5.445278935901001 0 0 0 0
1449 3 43.384898980479 5.445278935901001 0 0 0 0
1455 3 47.15749889182501 5.445278935901001 0 0 0 0
1299 3 50.930098803171 5.445278935901001 0 -1 0 0
1305 3 54.702698714517 5.445278935901001 0 -1 0 0
1311 3 58.475298625863 5.445278935901001 0 -1 0 0
1317 3 62.247898537209 5.445278935901001 0 -1 0 0
1323 3 66.020498448555 5.445278935901001 0 -1 0 0
1329 3 69.793098359901 5.445278935901001 0 -1 0 0
1335 3 73.565698271247 5.445278935901001 0 -1 0 0
1341 3 77.33829818259301 5.445278935901001 0 -1 0 0
1347 3 81.110898093939 5.445278935901001 0 -1 0 0
1353 3 84.88349800528499 5.445278935901001 0 -1 0 0
1359 3 88.656097916631 5.445278935901001 0 -1 0 0
1365 3 92.428697827977 5.445278935901001 0 -1 0 0
1371 3 96.201297739323 5.445278935901001 0 -1 0 0
1377 3 99.973897650669 5.445278935901001 0 -1 0 0
1380 1 0 6.534334723081997 1.5758890207769998 0 0 0
1386 1 3.772599911345999 6.534334723081997 1.5758890207769998 0 0 0
1392 1 7.545199822691998 6.534334723081997 1.5758890207769998 0 0 0
1398 1 11.317799734037997 6.534334723081997 1.5758890207769998 0 0 0
1404 1 15.090399645384004 6.534334723081997 1.5758890207769998 0 0 0
1410 1 18.862999556729996 6.534334723081997 1.5758890207769998 0 0 0
1416 1 22.635599468076002 6.534334723081997 1.5758890207769998 0 0 0
1422 1 26.408199379421994 6.534334723081997 1.5758890207769998 0 0 0
1428 1 30.180799290768 6.534334723081997 1.5758890207769998 0 0 0
1434 1 33.95339920211401 6.534334723081997 1.5758890207769998 0 0 0
1440 1 37.72599911346 6.534334723081997 1.5758890207769998 0 0 0
1446 1 41.498599024806005 6.534334723081997 1.5758890207769998 0 0 0
1452 1 45.271198936152 6.534334723081997 1.5758890207769998 0 0 0
1458 1 49.043798847498 6.534334723081997 1.5758890207769998 0 0 0
1302 1 52.816398758844 6.534334723081997 1.5758890207769998 -1 0 0
1308 1 56.58899867019 6.534334723081997 1.5758890207769998 -1 0 0
1314 1 60.361598581536 6.534334723081997 1.5758890207769998 -1 0 0
1320 1 64.134198492882 6.534334723081997 1.5758890207769998 -1 0 0
1326 1 67.906798404228 6.534334723081997 1.5758890207769998 -1 0 0
1332 1 71.67939831557399 6.534334723081997 1.5758890207769998 -1 0 0
1338 1 75.45199822692 6.534334723081997 1.5758890207769998 -1 0 0
1344 1 79.224598138266 6.534334723081997 1.5758890207769998 -1 0 0
1350 1 82.997198049612 6.534334723081997 1.5758890207769998 -1 0 0
1356 1 86.769797960958 6.534334723081997 1.5758890207769998 -1 0 0
1362 1 90.54239787230401 6.534334723081997 1.5758890207769998 -1 0 0
1368 1 94.31499778365 6.534334723081997 1.5758890207769998 -1 0 0
1374 1 98.08759769499599 6.534334723081997 1.5758890207769998 -1 0 0
1378 3 0 8.712446297442 0 0 0 0
1547 1 1.8862999556730031 9.801502084622996 1.5758890207769998 0 0 0
1384 3 3.772599911345999 8.712446297442 0 0 0 0
1553 1 5.658899867019002 9.801502084622996 1.5758890207769998 0 0 0
1390 3 7.545199822691998 8.712446297442 0 0 0 0
1559 1 9.431499778365001 9.801502084622996 1.5758890207769998 0 0 0
1396 3 11.317799734037997 8.712446297442 0 0 0 0
1565 1 13.204099689711008 9.801502084622996 1.5758890207769998 0 0 0
1402 3 15.090399645384004 8.712446297442 0 0 0 0
1571 1 16.976699601057 9.801502084622996 1.5758890207769998 0 0 0
1408 3 18.862999556729996 8.712446297442 0 0 0 0
1577 1 20.749299512403006 9.801502084622996 1.5758890207769998 0 0 0
1414 3 22.635599468076002 8.712446297442 0 0 0 0
1583 1 24.521899423748998 9.801502084622996 1.5758890207769998 0 0 0
1420 3 26.408199379421994 8.712446297442 0 0 0 0
1589 1 28.294499335095004 9.801502084622996 1.5758890207769998 0 0 0
1426 3 30.180799290768 8.712446297442 0 0 0 0
1595 1 32.067099246440996 9.801502084622996 1.5758890207769998 0 0 0
1432 3 33.95339920211401 8.712446297442 0 0 0 0
1601 1 35.839699157787 9.801502084622996 1.5758890207769998 0 0 0
1438 3 37.72599911346 8.712446297442 0 0 0 0
1607 1 39.612299069132995 9.801502084622996 1.5758890207769998 0 0 0
1444 3 41.498599024806005 8.712446297442 0 0 0 0
1613 1 43.384898980479 9.801502084622996 1.5758890207769998 0 0 0
1450 3 45.271198936152 8.712446297442 0 0 0 0
1619 1 47.15749889182501 9.801502084622996 1.5758890207769998 0 0 0
1456 3 49.043798847498 8.712446297442 0 0 0 0
1300 3 52.816398758844 8.712446297442 0 -1 0 0
1463 1 50.930098803171 9.801502084622996 1.5758890207769998 -1 0 0
1469 1 54.702698714517 9.801502084622996 1.5758890207769998 -1 0 0
1306 3 56.58899867019 8.712446297442 0 -1 0 0
1475 1 58.475298625863 9.801502084622996 1.5758890207769998 -1 0 0
1312 3 60.361598581536 8.712446297442 0 -1 0 0
1481 1 62.247898537209 9.801502084622996 1.5758890207769998 -1 0 0
1318 3 64.134198492882 8.712446297442 0 -1 0 0
1487 1 66.020498448555 9.801502084622996 1.5758890207769998 -1 0 0
1324 3 67.906798404228 8.712446297442 0 -1 0 0
1493 1 69.793098359901 9.801502084622996 1.5758890207769998 -1 0 0
1330 3 71.67939831557399 8.712446297442 0 -1 0 0
1499 1 73.565698271247 9.801502084622996 1.5758890207769998 -1 0 0
1336 3 75.45199822692 8.712446297442 0 -1 0 0
1505 1 77.33829818259301 9.801502084622996 1.5758890207769998 -1 0 0
1342 3 79.224598138266 8.712446297442 0 -1 0 0
1511 1 81.110898093939 9.801502084622996 1.5758890207769998 -1 0 0
1348 3 82.997198049612 8.712446297442 0 -1 0 0
1517 1 84.88349800528499 9.801502084622996 1.5758890207769998 -1 0 0
1354 3 86.769797960958 8.712446297442 0 -1 0 0
1523 1 88.656097916631 9.801502084622996 1.5758890207769998 -1 0 0
1360 3 90.54239787230401 8.712446297442 0 -1 0 0
1529 1 92.428697827977 9.801502084622996 1.5758890207769998 -1 0 0
1366 3 94.31499778365 8.712446297442 0 -1 0 0
1535 1 96.201297739323 9.801502084622996 1.5758890207769998 -1 0 0
1372 3 98.08759769499599 8.712446297442 0 -1 0 0
1541 1 99.973897650669 9.801502084622996 1.5758890207769998 -1 0 0
1545 3 1.8862999556730031 11.979613658982998 0 0 0 0
1542 1 0 13.068669446164002 1.5758890207769998 0 0 0
1548 1 3.772599911345999 13.068669446164002 1.5758890207769998 0 0 0
1551 3 5.658899867019002 11.979613658982998 0 0 0 0
1554 1 7.545199822691998 13.068669446164002 1.5758890207769998 0 0 0
1557 3 9.431499778365001 11.979613658982998 0 0 0 0
1560 1 11.317799734037997 13.068669446164002 1.5758890207769998 0 0 0
1563 3 13.204099689711008 11.979613658982998 0 0 0 0
1566 1 15.090399645384004 13.068669446164002 1.5758890207769998 0 0 0
1569 3 16.976699601057 11.979613658982998 0 0 0 0
1572 1 18.862999556729996 13.068669446164002 1.5758890207769998 0 0 0
1575 3 20.749299512403006 11.979613658982998 0 0 0 0
1578 1 22.635599468076002 13.068669446164002 1.5758890207769998 0 0 0
1581 3 24.521899423748998 11.979613658982998 0 0 0 0
1584 1 26.408199379421994 13.068669446164002 1.5758890207769998 0 0 0
1587 3 28.294499335095004 11.979613658982998 0 0 0 0
1590 1 30.180799290768 13.068669446164002 1.5758890207769998 0 0 0
1593 3 32.067099246440996 11.979613658982998 0 0 0 0
1596 1 33.95339920211401 13.068669446164002 1.5758890207769998 0 0 0
1599 3 35.839699157787 11.979613658982998 0 0 0 0
1602 1 37.72599911346 13.068669446164002 1.5758890207769998 0 0 0
1605 3 39.612299069132995 11.979613658982998 0 0 0 0
1608 1 41.498599024806005 13.068669446164002 1.5758890207769998 0 0 0
1611 3 43.384898980479 11.979613658982998 0 0 0 0
1614 1 45.271198936152 13.068669446164002 1.5758890207769998 0 0 0
1617 3 47.15749889182501 11.979613658982998 0 0 0 0
1620 1 49.043798847498 13.068669446164002 1.5758890207769998 0 0 0
1461 3 50.930098803171 11.979613658982998 0 -1 0 0
1464 1 52.816398758844 13.068669446164002 1.5758890207769998 -1 0 0
1467 3 54.702698714517 11.979613658982998 0 -1 0 0
1470 1 56.58899867019 13.068669446164002 1.5758890207769998 -1 0 0
1473 3 58.475298625863 11.979613658982998 0 -1 0 0
1476 1 60.361598581536 13.068669446164002 1.5758890207769998 -1 0 0
1479 3 62.247898537209 11.979613658982998 0 -1 0 0
1482 1 64.134198492882 13.068669446164002 1.5758890207769998 -1 0 0
1485 3 66.020498448555 11.979613658982998 0 -1 0 0
1488 1 67.906798404228 13.068669446164002 1.5758890207769998 -1 0 0
1491 3 69.793098359901 11.979613658982998 0 -1 0 0
1494 1 71.67939831557399 13.068669446164002 1.5758890207769998 -1 0 0
1497 3 73.565698271247 11.979613658982998 0 -1 0 0
1500 1 75.45199822692 13.068669446164002 1.5758890207769998 -1 0 0
1503 3 77.33829818259301 11.979613658982998 0 -1 0 0
1506 1 79.224598138266 13.068669446164002 1.5758890207769998 -1 0 0
1509 3 81.110898093939 11.979613658982998 0 -1 0 0
1512 1 82.997198049612 13.068669446164002 1.5758890207769998 -1 0 0
1515 3 84.88349800528499 11.979613658982998 0 -1 0 0
1518 1 86.769797960958 13.068669446164002 1.5758890207769998 -1 0 0
1521 3 88.656097916631 11.979613658982998 0 -1 0 0
1524 1 90.54239787230401 13.068669446164002 1.5758890207769998 -1 0 0
1527 3 92.428697827977 11.979613658982998 0 -1 0 0
1530 1 94.31499778365 13.068669446164002 1.5758890207769998 -1 0 0
1533 3 96.201297739323 11.979613658982998 0 -1 0 0
1536 1 98.08759769499599 13.068669446164002 1.5758890207769998 -1 0 0
1539 3 99.973897650669 11.979613658982998 0 -1 0 0
1540 3 0 15.246781020524004 0 0 0 0
1546 3 3.772599911345999 15.246781020524004 0 0 0 0
1552 3 7.545199822691998 15.246781020524004 0 0 0 0
1558 3 11.317799734037997 15.246781020524004 0 0 0 0
1564 3 15.090399645384004 15.246781020524004 0 0 0 0
1570 3 18.862999556729996 15.246781020524004 0 0 0 0
1576 3 22.635599468076002 15.246781020524004 0 0 0 0
1582 3 26.408199379421994 15.246781020524004 0 0 0 0
1588 3 30.180799290768 15.246781020524004 0 0 0 0
1594 3 33.95339920211401 15.246781020524004 0 0 0 0
1600 3 37.72599911346 15.246781020524004 0 0 0 0
1606 3 41.498599024806005 15.246781020524004 0 0 0 0
1612 3 45.271198936152 15.246781020524004 0 0 0 0
1618 3 49.043798847498 15.246781020524004 0 0 0 0
1462 3 52.816398758844 15.246781020524004 0 -1 0 0
1468 3 56.58899867019 15.246781020524004 0 -1 0 0
1474 3 60.361598581536 15.246781020524004 0 -1 0 0
1480 3 64.134198492882 15.246781020524004 0 -1 0 0
1486 3 67.906798404228 15.246781020524004 0 -1 0 0
1492 3 71.67939831557399 15.246781020524004 0 -1 0 0
1498 3 75.45199822692 15.246781020524004 0 -1 0 0
1504 3 79.224598138266 15.246781020524004 0 -1 0 0
1510 3 82.997198049612 15.246781020524004 0 -1 0 0
1516 3 86.769797960958 15.246781020524004 0 -1 0 0
1522 3 90.54239787230401 15.246781020524004 0 -1 0 0
1528 3 94.31499778365 15.246781020524004 0 -1 0 0
1534 3 98.08759769499599 15.246781020524004 0 -1 0 0
1709 1 1.8862999556730031 16.335836807705 1.5758890207769998 0 0 0
1715 1 5.658899867019002 16.335836807705 1.5758890207769998 0 0 0
1721 1 9.431499778365001 16.335836807705 1.5758890207769998 0 0 0
1727 1 13.204099689711008 16.335836807705 1.5758890207769998 0 0 0
1733 1 16.976699601057 16.335836807705 1.5758890207769998 0 0 0
1739 1 20.749299512403006 16.335836807705 1.5758890207769998 0 0 0
1745 1 24.521899423748998 16.335836807705 1.5758890207769998 0 0 0
1751 1 28.294499335095004 16.335836807705 1.5758890207769998 0 0 0
1757 1 32.067099246440996 16.335836807705 1.5758890207769998 0 0 0
1763 1 35.839699157787 16.335836807705 1.5758890207769998 0 0 0
1769 1 39.612299069132995 16.335836807705 1.5758890207769998 0 0 0
1775 1 43.384898980479 16.335836807705 1.5758890207769998 0 0 0
1781 1 47.15749889182501 16.335836807705 1.5758890207769998 0 0 0
1625 1 50.930098803171 16.335836807705 1.5758890207769998 -1 0 0
1631 1 54.702698714517 16.335836807705 1.5758890207769998 -1 0 0
1637 1 58.475298625863 16.335836807705 1.5758890207769998 -1 0 0
1643 1 62.247898537209 16.335836807705 1.5758890207769998 -1 0 0
1649 1 66.020498448555 16.335836807705 1.5758890207769998 -1 0 0
1655 1 69.793098359901 16.335836807705 1.5758890207769998 -1 0 0
1661 1 73.565698271247 16.335836807705 1.5758890207769998 -1 0 0
1667 1 77.33829818259301 16.335836807705 1.5758890207769998 -1 0 0
1673 1 81.110898093939 16.335836807705 1.5758890207769998 -1 0 0
1679 1 84.88349800528499 16.335836807705 1.5758890207769998 -1 0 0
1685 1 88.656097916631 16.335836807705 1.5758890207769998 -1 0 0
1691 1 92.428697827977 16.335836807705 1.5758890207769998 -1 0 0
1697 1 96.201297739323 16.335836807705 1.5758890207769998 -1 0 0
1703 1 99.973897650669 16.335836807705 1.5758890207769998 -1 0 0
1707 3 1.8862999556730031 18.513948382065003 0 0 0 0
1713 3 5.658899867019002 18.513948382065003 0 0 0 0
1719 3 9.431499778365001 18.513948382065003 0 0 0 0
1725 3 13.204099689711008 18.513948382065003 0 0 0 0
1731 3 16.976699601057 18.513948382065003 0 0 0 0
1737 3 20.749299512403006 18.513948382065003 0 0 0 0
1743 3 24.521899423748998 18.513948382065003 0 0 0 0
1749 3 28.294499335095004 18.513948382065003 0 0 0 0
1755 3 32.067099246440996 18.513948382065003 0 0 0 0
1761 3 35.839699157787 18.513948382065003 0 0 0 0
1767 3 39.612299069132995 18.513948382065003 0 0 0 0
1773 3 43.384898980479 18.513948382065003 0 0 0 0
1779 3 47.15749889182501 18.513948382065003 0 0 0 0
1623 3 50.930098803171 18.513948382065003 0 -1 0 0
1629 3 54.702698714517 18.513948382065003 0 -1 0 0
1635 3 58.475298625863 18.513948382065003 0 -1 0 0
1641 3 62.247898537209 18.513948382065003 0 -1 0 0
1647 3 66.020498448555 18.513948382065003 0 -1 0 0
1653 3 69.793098359901 18.513948382065003 0 -1 0 0
1659 3 73.565698271247 18.513948382065003 0 -1 0 0
1665 3 77.33829818259301 18.513948382065003 0 -1 0 0
1671 3 81.110898093939 18.513948382065003 0 -1 0 0
1677 3 84.88349800528499 18.513948382065003 0 -1 0 0
1683 3 88.656097916631 18.513948382065003 0 -1 0 0
1689 3 92.428697827977 18.513948382065003 0 -1 0 0
1695 3 96.201297739323 18.513948382065003 0 -1 0 0
1701 3 99.973897650669 18.513948382065003 0 -1 0 0
1704 1 0 19.603004169246 1.5758890207769998 0 0 0
1710 1 3.772599911345999 19.603004169246 1.5758890207769998 0 0 0
1716 1 7.545199822691998 19.603004169246 1.5758890207769998 0 0 0
1722 1 11.317799734037997 19.603004169246 1.5758890207769998 0 0 0
1728 1 15.090399645384004 19.603004169246 1.5758890207769998 0 0 0
1734 1 18.862999556729996 19.603004169246 1.5758890207769998 0 0 0
1740 1 22.635599468076002 19.603004169246 1.5758890207769998 0 0 0
1746 1 26.408199379421994 19.603004169246 1.5758890207769998 0 0 0
1752 1 30.180799290768 19.603004169246 1.5758890207769998 0 0 0
1758 1 33.95339920211401 19.603004169246 1.5758890207769998 0 0 0
1764 1 37.72599911346 19.603004169246 1.5758890207769998 0 0 0
1770 1 41.498599024806005 19.603004169246 1.5758890207769998 0 0 0
1776 1 45.271198936152 19.603004169246 1.5758890207769998 0 0 0
1782 1 49.043798847498 19.603004169246 1.5758890207769998 0 0 0
1626 1 52.816398758844 19.603004169246 1.5758890207769998 -1 0 0
1632 1 56.58899867019 19.603004169246 1.5758890207769998 -1 0 0
1638 1 60.361598581536 19.603004169246 1.5758890207769998 -1 0 0
1644 1 64.134198492882 19.603004169246 1.5758890207769998 -1 0 0
1650 1 67.906798404228 19.603004169246 1.5758890207769998 -1 0 0
1656 1 71.67939831557399 19.603004169246 1.5758890207769998 -1 0 0
1662 1 75.45199822692 19.603004169246 1.5758890207769998 -1 0 0
1668 1 79.224598138266 19.603004169246 1.5758890207769998 -1 0 0
1674 1 82.997198049612 19.603004169246 1.5758890207769998 -1 0 0
1680 1 86.769797960958 19.603004169246 1.5758890207769998 -1 0 0
1686 1 90.54239787230401 19.603004169246 1.5758890207769998 -1 0 0
1692 1 94.31499778365 19.603004169246 1.5758890207769998 -1 0 0
1698 1 98.08759769499599 19.603004169246 1.5758890207769998 -1 0 0
1702 3 0 21.781115743606 0 0 0 0
1871 1 1.8862999556730031 22.870171530786997 1.5758890207769998 0 0 0
1708 3 3.772599911345999 21.781115743606 0 0 0 0
1877 1 5.658899867019002 22.870171530786997 1.5758890207769998 0 0 0
1714 3 7.545199822691998 21.781115743606 0 0 0 0
1883 1 9.431499778365001 22.870171530786997 1.5758890207769998 0 0 0
1720 3 11.317799734037997 21.781115743606 0 0 0 0
1889 1 13.204099689711008 22.870171530786997 1.5758890207769998 0 0 0
1726 3 15.090399645384004 21.781115743606 0 0 0 0
1895 1 16.976699601057 22.870171530786997 1.5758890207769998 0 0 0
1732 3 18.862999556729996 21.781115743606 0 0 0 0
1901 1 20.749299512403006 22.870171530786997 1.5758890207769998 0 0 0
1738 3 22.635599468076002 21.781115743606 0 0 0 0
1907 1 24.521899423748998 22.870171530786997 1.5758890207769998 0 0 0
1744 3 26.408199379421994 21.781115743606 0 0 0 0
1913 1 28.294499335095004 22.870171530786997 1.5758890207769998 0 0 0
1750 3 30.180799290768 21.781115743606 0 0 0 0
1919 1 32.067099246440996 22.870171530786997 1.5758890207769998 0 0 0
1756 3 33.95339920211401 21.781115743606 0 0 0 0
1925 1 35.839699157787 22.870171530786997 1.5758890207769998 0 0 0
1762 3 37.72599911346 21.781115743606 0 0 0 0
1931 1 39.612299069132995 22.870171530786997 1.5758890207769998 0 0 0
1768 3 41.498599024806005 21.781115743606 0 0 0 0
1937 1 43.384898980479 22.870171530786997 1.5758890207769998 0 0 0
1774 3 45.271198936152 21.781115743606 0 0 0 0
1943 1 47.15749889182501 22.870171530786997 1.5758890207769998 0 0 0
1780 3 49.043798847498 21.781115743606 0 0 0 0
1624 3 52.816398758844 21.781115743606 0 -1 0 0
1787 1 50.930098803171 22.870171530786997 1.5758890207769998 -1 0 0
1793 1 54.702698714517 22.870171530786997 1.5758890207769998 -1 0 0
1630 3 56.58899867019 21.781115743606 0 -1 0 0
1799 1 58.475298625863 22.870171530786997 1.5758890207769998 -1 0 0
1636 3 60.361598581536 21.781115743606 0 -1 0 0
1805 1 62.247898537209 22.870171530786997 1.5758890207769998 -1 0 0
1642 3 64.134198492882 21.781115743606 0 -1 0 0
1811 1 66.020498448555 22.870171530786997 1.5758890207769998 -1 0 0
1648 3 67.906798404228 21.781115743606 0 -1 0 0
1817 1 69.793098359901 22.870171530786997 1.5758890207769998 -1 0 0
1654 3 71.67939831557399 21.781115743606 0 -1 0 0
1823 1 73.565698271247 22.870171530786997 1.5758890207769998 -1 0 0
1660 3 75.45199822692 21.781115743606 0 -1 0 0
1829 1 77.33829818259301 22.870171530786997 1.5758890207769998 -1 0 0
1666 3 79.224598138266 21.781115743606 0 -1 0 0
1835 1 81.110898093939 22.870171530786997 1.5758890207769998 -1 0 0
1672 3 82.997198049612 21.781115743606 0 -1 0 0
1841 1 84.88349800528499 22.870171530786997 1.5758890207769998 -1 0 0
1678 3 86.769797960958 21.781115743606 0 -1 0 0
1847 1 88.656097916631 22.870171530786997 1.5758890207769998 -1 0 0
1684 3 90.54239787230401 21.781115743606 0 -1 0 0
1853 1 92.428697827977 22.870171530786997 1.5758890207769998 -1 0 0
1690 3 94.31499778365 21.781115743606 0 -1 0 0
1859 1 96.201297739323 22.870171530786997 1.5758890207769998 -1 0 0
1696 3 98.08759769499599 21.781115743606 0 -1 0 0
1865 1 99.973897650669 22.870171530786997 1.5758890207769998 -1 0 0
1869 3 1.8862999556730031 25.048283105147 0 0 0 0
1875 3 5.658899867019002 25.048283105147 0 0 0 0
1881 3 9.431499778365001 25.048283105147 0 0 0 0
1887 3 13.204099689711008 25.048283105147 0 0 0 0
1893 3 16.976699601057 25.048283105147 0 0 0 0
1899 3 20.749299512403006 25.048283105147 0 0 0 0
1905 3 24.521899423748998 25.048283105147 0 0 0 0
1911 3 28.294499335095004 25.048283105147 0 0 0 0
1917 3 32.067099246440996 25.048283105147 0 0 0 0
1923 3 35.839699157787 25.048283105147 0 0 0 0
1929 3 39.612299069132995 25.048283105147 0 0 0 0
1935 3 43.384898980479 25.048283105147 0 0 0 0
1941 3 47.15749889182501 25.048283105147 0 0 0 0
1785 3 50.930098803171 25.048283105147 0 -1 0 0
1791 3 54.702698714517 25.048283105147 0 -1 0 0
1797 3 58.475298625863 25.048283105147 0 -1 0 0
1803 3 62.247898537209 25.048283105147 0 -1 0 0
1809 3 66.020498448555 25.048283105147 0 -1 0 0
1815 3 69.793098359901 25.048283105147 0 -1 0 0
1821 3 73.565698271247 25.048283105147 0 -1 0 0
1827 3 77.33829818259301 25.048283105147 0 -1 0 0
1833 3 81.110898093939 25.048283105147 0 -1 0 0
1839 3 84.88349800528499 25.048283105147 0 -1 0 0
1845 3 88.656097916631 25.048283105147 0 -1 0 0
1851 3 92.428697827977 25.048283105147 0 -1 0 0
1857 3 96.201297739323 25.048283105147 0 -1 0 0
1863 3 99.973897650669 25.048283105147 0 -1 0 0
1866 1 0 26.137338892327996 1.5758890207769998 0 0 0
1872 1 3.772599911345999 26.137338892327996 1.5758890207769998 0 0 0
1878 1 7.545199822691998 26.137338892327996 1.5758890207769998 0 0 0
1884 1 11.317799734037997 26.137338892327996 1.5758890207769998 0 0 0
1890 1 15.090399645384004 26.137338892327996 1.5758890207769998 0 0 0
1896 1 18.862999556729996 26.137338892327996 1.5758890207769998 0 0 0
1902 1 22.635599468076002 26.137338892327996 1.5758890207769998 0 0 0
1908 1 26.408199379421994 26.137338892327996 1.5758890207769998 0 0 0
1914 1 30.180799290768 26.137338892327996 1.5758890207769998 0 0 0
1920 1 33.95339920211401 26.137338892327996 1.5758890207769998 0 0 0
1926 1 37.72599911346 26.137338892327996 1.5758890207769998 0 0 0
1932 1 41.498599024806005 26.137338892327996 1.5758890207769998 0 0 0
1938 1 45.271198936152 26.137338892327996 1.5758890207769998 0 0 0
1944 1 49.043798847498 26.137338892327996 1.5758890207769998 0 0 0
1788 1 52.816398758844 26.137338892327996 1.5758890207769998 -1 0 0
1794 1 56.58899867019 26.137338892327996 1.5758890207769998 -1 0 0
1800 1 60.361598581536 26.137338892327996 1.5758890207769998 -1 0 0
1806 1 64.134198492882 26.137338892327996 1.5758890207769998 -1 0 0
1812 1 67.906798404228 26.137338892327996 1.5758890207769998 -1 0 0
1818 1 71.67939831557399 26.137338892327996 1.5758890207769998 -1 0 0
1824 1 75.45199822692 26.137338892327996 1.5758890207769998 -1 0 0
1830 1 79.224598138266 26.137338892327996 1.5758890207769998 -1 0 0
1836 1 82.997198049612 26.137338892327996 1.5758890207769998 -1 0 0
1842 1 86.769797960958 26.137338892327996 1.5758890207769998 -1 0 0
1848 1 90.54239787230401 26.137338892327996 1.5758890207769998 -1 0 0
1854 1 94.31499778365 26.137338892327996 1.5758890207769998 -1 0 0
1860 1 98.08759769499599 26.137338892327996 1.5758890207769998 -1 0 0
1864 3 0 28.315450466688 0 0 0 0
2033 1 1.8862999556730031 29.404506253868995 1.5758890207769998 0 0 0
1870 3 3.772599911345999 28.315450466688 0 0 0 0
2039 1 5.658899867019002 29.404506253868995 1.5758890207769998 0 0 0
1876 3 7.545199822691998 28.315450466688 0 0 0 0
2045 1 9.431499778365001 29.404506253868995 1.5758890207769998 0 0 0
1882 3 11.317799734037997 28.315450466688 0 0 0 0
2051 1 13.204099689711008 29.404506253868995 1.5758890207769998 0 0 0
1888 3 15.090399645384004 28.315450466688 0 0 0 0
2057 1 16.976699601057 29.404506253868995 1.5758890207769998 0 0 0
1894 3 18.862999556729996 28.315450466688 0 0 0 0
2063 1 20.749299512403006 29.404506253868995 1.5758890207769998 0 0 0
1900 3 22.635599468076002 28.315450466688 0 0 0 0
2069 1 24.521899423748998 29.404506253868995 1.5758890207769998 0 0 0
1906 3 26.408199379421994 28.315450466688 0 0 0 0
2075 1 28.294499335095004 29.404506253868995 1.5758890207769998 0 0 0
1912 3 30.180799290768 28.315450466688 0 0 0 0
2081 1 32.067099246440996 29.404506253868995 1.5758890207769998 0 0 0
1918 3 33.95339920211401 28.315450466688 0 0 0 0
2087 1 35.839699157787 29.404506253868995 1.5758890207769998 0 0 0
1924 3 37.72599911346 28.315450466688 0 0 0 0
2093 1 39.612299069132995 29.404506253868995 1.5758890207769998 0 0 0
1930 3 41.498599024806005 28.315450466688 0 0 0 0
2099 1 43.384898980479 29.404506253868995 1.5758890207769998 0 0 0
1936 3 45.271198936152 28.315450466688 0 0 0 0
2105 1 47.15749889182501 29.404506253868995 1.5758890207769998 0 0 0
1942 3 49.043798847498 28.315450466688 0 0 0 0
1786 3 52.816398758844 28.315450466688 0 -1 0 0
1949 1 50.930098803171 29.404506253868995 1.5758890207769998 -1 0 0
1955 1 54.702698714517 29.404506253868995 1.5758890207769998 -1 0 0
1792 3 56.58899867019 28.315450466688 0 -1 0 0
1961 1 58.475298625863 29.404506253868995 1.5758890207769998 -1 0 0
1798 3 60.361598581536 28.315450466688 0 -1 0 0
1967 1 62.247898537209 29.404506253868995 1.5758890207769998 -1 0 0
1804 3 64.134198492882 28.315450466688 0 -1 0 0
1973 1 66.020498448555 29.404506253868995 1.5758890207769998 -1 0 0
1810 3 67.906798404228 28.315450466688 0 -1 0 0
1979 1 69.793098359901 29.404506253868995 1.5758890207769998 -1 0 0
1816 3 71.67939831557399 28.315450466688 0 -1 0 0
1985 1 73.565698271247 29.404506253868995 1.5758890207769998 -1 0 0
1822 3 75.45199822692 28.315450466688 0 -1 0 0
1991 1 77.33829818259301 29.404506253868995 1.5758890207769998 -1 0 0
1828 3 79.224598138266 28.315450466688 0 -1 0 0
1997 1 81.110898093939 29.404506253868995 1.5758890207769998 -1 0 0
1834 3 82.997198049612 28.315450466688 0 -1 0 0
2003 1 84.88349800528499 29.404506253868995 1.5758890207769998 -1 0 0
1840 3 86.769797960958 28.315450466688 0 -1 0 0
2009 1 88.656097916631 29.404506253868995 1.5758890207769998 -1 0 0
1846 3 90.54239787230401 28.315450466688 0 -1 0 0
2015 1 92.428697827977 29.404506253868995 1.5758890207769998 -1 0 0
1852 3 94.31499778365 28.315450466688 0 -1 0 0
2021 1 96.201297739323 29.404506253868995 1.5758890207769998 -1 0 0