LAMMPS data file via write_data, version 29 Aug 2024, timestep = 5, units = metal

3872 atoms
16 atom types

0 100.792441855622 xlo xhi
0 100.01179673683 ylo yhi
-50 50 zlo zhi

Masses

1 118.71
2 118.71
3 118.71
4 118.71
5 118.71
6 118.71
7 118.71
8 118.71
9 127.6
10 127.6
11 127.6
12 127.6
13 127.6
14 127.6
15 127.6
16 127.6

Atoms # atomic

1014 12 2.581859349149696 0.00010156685932827259 -0.01432981642611345 0 0 0
1019 1 4.425972960614299 2.2731024188521944 0.03512619306485852 0 0 0
1102 12 2.5818593491496955 4.546092327624335 -0.014329816426114042 0 0 0
1018 10 7.163333978950697 0.00010156685932827259 -0.014329816426113525 0 0 0
1023 3 9.0074475904153 2.273102418852195 0.0351261930648584 0 0 0
1022 12 11.744808608751699 0.00010156685932827259 -0.014329816426113858 0 0 0
1106 10 7.163333978950696 4.546092327624334 -0.014329816426113416 0 0 0
1110 12 11.744808608751697 4.546092327624334 -0.014329816426114052 0 0 0
1027 1 13.5889222202163 2.273102418852195 0.03512619306485851 0 0 0
1026 10 16.326283238552694 0.00010156685932827259 -0.01432981642611304 0 0 0
1114 10 16.326283238552694 4.546092327624334 -0.014329816426113293 0 0 0
1031 3 18.170396850017298 2.2731024188521953 0.03512619306485855 0 0 0
1030 12 20.907757868353695 0.00010156685932827259 -0.014329816426113596 0 0 0
1035 1 22.7518714798183 2.2731024188521944 0.03512619306485899 0 0 0
1118 12 20.907757868353695 4.546092327624334 -0.014329816426113551 0 0 0
1034 10 25.489232498154696 0.00010156685932827259 -0.014329816426113386 0 0 0
1039 3 27.3333461096193 2.2731024188521953 0.0351261930648587 0 0 0
1122 10 25.489232498154696 4.546092327624334 -0.014329816426113385 0 0 0
1038 12 30.070707127955696 0.00010156685932827259 -0.014329816426113366 0 0 0
1043 1 31.9148207394203 2.273102418852195 0.035126193064858646 0 0 0
1042 10 34.6521817577567 0.00010156685934248344 -0.014329816426113733 0 0 0
1126 12 30.070707127955696 4.546092327624334 -0.014329816426113884 0 0 0
1130 10 34.65218175775669 4.546092327624334 -0.014329816426113296 0 0 0
1047 3 36.4962953692213 2.2731024188521993 0.03512619306485968 0 0 0
1046 12 39.233656387557694 0.00010156685932827259 -0.014329816426114195 0 0 0
1051 1 41.077769999022294 2.2731024188521967 0.035126193064856995 0 0 0
1134 12 39.23365638755769 4.546092327624334 -0.014329816426113794 0 0 0
1050 10 43.815131017358695 0.00010156685934248344 -0.01432981642611434 0 0 0
1055 3 45.6592446288233 2.2731024188521975 0.03512619306485935 0 0 0
1138 10 43.815131017358695 4.546092327624334 -0.014329816426114281 0 0 0
1054 12 48.396605647159696 0.00010156685932827259 -0.014329816426112866 0 0 0
971 1 50.240719258624296 2.2731024188521936 0.03512619306485976 -1 0 0
970 10 52.978080276960696 0.00010156685932827259 -0.014329816426113343 -1 0 0
1142 12 48.396605647159696 4.546092327624335 -0.014329816426112583 0 0 0
1058 10 52.978080276960696 4.546092327624334 -0.01432981642611332 -1 0 0
975 3 54.8221938884253 2.273102418852195 0.03512619306485877 -1 0 0
974 12 57.5595549067617 0.00010156685932827259 -0.014329816426113537 -1 0 0
1062 12 57.5595549067617 4.546092327624334 -0.014329816426113515 -1 0 0
979 1 59.403668518226304 2.273102418852195 0.03512619306485911 -1 0 0
978 10 62.1410295365627 0.00010156685932827259 -0.01432981642611416 -1 0 0
983 3 63.9851431480273 2.273102418852195 0.03512619306485706 -1 0 0
1066 10 62.1410295365627 4.546092327624332 -0.01432981642611469 -1 0 0
982 12 66.7225041663637 0.00010156685932827259 -0.014329816426114583 -1 0 0
987 1 68.56661777782831 2.273102418852195 0.03512619306485918 -1 0 0
1070 12 66.7225041663637 4.546092327624334 -0.014329816426114646 -1 0 0
986 10 71.3039787961647 0.00010156685932827259 -0.014329816426112309 -1 0 0
991 3 73.1480924076293 2.2731024188521944 0.03512619306486067 -1 0 0
990 12 75.8854534259657 0.00010156685932827259 -0.014329816426113853 -1 0 0
1074 10 71.3039787961647 4.546092327624332 -0.01432981642611198 -1 0 0
1078 12 75.8854534259657 4.546092327624336 -0.014329816426114144 -1 0 0
995 1 77.72956703743029 2.273102418852195 0.035126193064857585 -1 0 0
994 10 80.4669280557667 0.00010156685932827259 -0.014329816426114264 -1 0 0
999 3 82.31104166723131 2.273102418852195 0.03512619306485964 -1 0 0
1082 10 80.4669280557667 4.546092327624335 -0.014329816426114791 -1 0 0
998 12 85.0484026855677 0.00010156685932827259 -0.014329816426112257 -1 0 0
1003 1 86.8925162970323 2.273102418852195 0.035126193064859784 -1 0 0
1086 12 85.0484026855677 4.546092327624332 -0.01432981642611212 -1 0 0
1002 10 89.6298773153687 0.00010156685932827259 -0.014329816426113275 -1 0 0
1007 3 91.47399092683331 2.2731024188521944 0.03512619306486054 -1 0 0
1006 12 94.2113519451697 0.00010156685932827259 -0.014329816426113813 -1 0 0
1090 10 89.6298773153687 4.546092327624331 -0.014329816426112958 -1 0 0
1094 12 94.2113519451697 4.546092327624336 -0.014329816426113936 -1 0 0
1015 3 100.6369401864353 2.2731024188521975 0.035126193064859035 -1 0 0
1011 1 96.05546555663429 2.2731024188521944 0.03512619306485832 -1 0 0
1010 10 98.79282657497069 0.00010156685934248344 -0.014329816426112774 -1 0 0
1098 10 98.79282657497069 4.546092327624333 -0.014329816426113647 -1 0 0
1107 1 4.425972960614301 6.8190931796171945 0.03512619306485846 0 0 0
1190 12 2.5818593491496964 9.092083088389334 -0.014329816426113768 0 0 0
1195 1 4.425972960614301 11.365083940382195 0.03512619306485809 0 0 0
1111 3 9.007447590415302 6.8190931796171945 0.035126193064858376 0 0 0
1194 10 7.163333978950698 9.092083088389334 -0.014329816426113789 0 0 0
1198 12 11.744808608751699 9.092083088389334 -0.014329816426114004 0 0 0
1199 3 9.007447590415303 11.365083940382195 0.035126193064858216 0 0 0
1115 1 13.588922220216302 6.819093179617194 0.03512619306485838 0 0 0
1202 10 16.326283238552694 9.092083088389334 -0.014329816426113513 0 0 0
1203 1 13.588922220216302 11.365083940382195 0.03512619306485806 0 0 0
1119 3 18.170396850017298 6.819093179617194 0.03512619306485837 0 0 0
1123 1 22.7518714798183 6.8190931796171945 0.03512619306485844 0 0 0
1206 12 20.907757868353695 9.092083088389334 -0.0143298164261136 0 0 0
1207 3 18.170396850017298 11.365083940382194 0.035126193064858216 0 0 0
1211 1 22.751871479818302 11.365083940382194 0.035126193064858466 0 0 0
1127 3 27.3333461096193 6.819093179617194 0.035126193064858605 0 0 0
1210 10 25.489232498154696 9.092083088389334 -0.014329816426113874 0 0 0
1215 3 27.3333461096193 11.365083940382194 0.03512619306485821 0 0 0
1131 1 31.9148207394203 6.8190931796171945 0.03512619306485891 0 0 0
1214 12 30.070707127955696 9.092083088389334 -0.014329816426113667 0 0 0
1218 10 34.65218175775669 9.092083088389332 -0.014329816426112913 0 0 0
1219 1 31.9148207394203 11.365083940382194 0.035126193064858376 0 0 0
1135 3 36.4962953692213 6.8190931796171945 0.035126193064859035 0 0 0
1139 1 41.077769999022294 6.819093179617194 0.03512619306485734 0 0 0
1222 12 39.23365638755769 9.092083088389332 -0.01432981642611363 0 0 0
1223 3 36.4962953692213 11.365083940382194 0.03512619306485872 0 0 0
1227 1 41.077769999022294 11.365083940382194 0.03512619306485681 0 0 0
1143 3 45.6592446288233 6.8190931796171945 0.03512619306485876 0 0 0
1226 10 43.815131017358695 9.092083088389332 -0.014329816426114176 0 0 0
1231 3 45.6592446288233 11.365083940382194 0.035126193064858674 0 0 0
1059 1 50.2407192586243 6.819093179617195 0.035126193064859465 -1 0 0
1230 12 48.396605647159696 9.092083088389334 -0.014329816426112564 0 0 0
1146 10 52.978080276960696 9.092083088389334 -0.01432981642611316 -1 0 0
1147 1 50.2407192586243 11.365083940382194 0.03512619306485924 -1 0 0
1063 3 54.8221938884253 6.819093179617194 0.03512619306485851 -1 0 0
1150 12 57.5595549067617 9.092083088389334 -0.014329816426113275 -1 0 0
1151 3 54.8221938884253 11.365083940382194 0.035126193064858396 -1 0 0
1067 1 59.403668518226304 6.819093179617194 0.035126193064859035 -1 0 0
1071 3 63.9851431480273 6.819093179617196 0.03512619306485674 -1 0 0
1154 10 62.14102953656269 9.092083088389334 -0.014329816426113936 -1 0 0
1155 1 59.403668518226304 11.365083940382194 0.035126193064858695 -1 0 0
1159 3 63.9851431480273 11.365083940382194 0.03512619306485684 -1 0 0
1075 1 68.56661777782831 6.819093179617195 0.03512619306485914 -1 0 0
1158 12 66.7225041663637 9.092083088389334 -0.014329816426114838 -1 0 0
1163 1 68.56661777782831 11.365083940382195 0.035126193064859354 -1 0 0
1079 3 73.1480924076293 6.819093179617195 0.03512619306486028 -1 0 0
1162 10 71.3039787961647 9.092083088389334 -0.014329816426111851 -1 0 0
1166 12 75.8854534259657 9.092083088389334 -0.014329816426114654 -1 0 0
1167 3 73.1480924076293 11.365083940382195 0.03512619306485944 -1 0 0
1083 1 77.7295670374303 6.819093179617193 0.03512619306485756 -1 0 0
1087 3 82.31104166723131 6.819093179617195 0.03512619306485948 -1 0 0
1170 10 80.4669280557667 9.092083088389334 -0.014329816426114477 -1 0 0
1171 1 77.7295670374303 11.365083940382195 0.03512619306485785 -1 0 0
1175 3 82.31104166723131 11.365083940382195 0.0351261930648591 -1 0 0
1091 1 86.8925162970323 6.819093179617195 0.0351261930648597 -1 0 0
1174 12 85.0484026855677 9.092083088389334 -0.014329816426111938 -1 0 0
1179 1 86.8925162970323 11.365083940382195 0.03512619306485885 -1 0 0
1095 3 91.47399092683331 6.819093179617195 0.03512619306486018 -1 0 0
1178 10 89.6298773153687 9.092083088389334 -0.01432981642611291 -1 0 0
1182 12 94.2113519451697 9.092083088389334 -0.014329816426114726 -1 0 0
1183 3 91.47399092683331 11.365083940382195 0.035126193064859985 -1 0 0
1103 3 100.6369401864353 6.819093179617196 0.0351261930648589 -1 0 0
1191 3 100.6369401864353 11.365083940382195 0.03512619306485804 -1 0 0
1099 1 96.0554655566343 6.819093179617193 0.03512619306485809 -1 0 0
1186 10 98.79282657497069 9.092083088389334 -0.01432981642611311 -1 0 0
1187 1 96.0554655566343 11.365083940382195 0.03512619306485801 -1 0 0
1278 12 2.5818593491496977 13.638073849154335 -0.014329816426114248 0 0 0
1283 1 4.425972960614302 15.911074701147196 0.035126193064859236 0 0 0
1282 10 7.163333978950699 13.638073849154335 -0.014329816426113685 0 0 0
1286 12 11.744808608751699 13.638073849154335 -0.014329816426114087 0 0 0
1287 3 9.007447590415302 15.911074701147198 0.03512619306485905 0 0 0
1290 10 16.326283238552698 13.638073849154335 -0.014329816426113409 0 0 0
1291 1 13.588922220216304 15.911074701147196 0.035126193064859035 0 0 0
1294 12 20.9077578683537 13.638073849154335 -0.014329816426113742 0 0 0
1295 3 18.170396850017298 15.911074701147196 0.0351261930648591 0 0 0
1299 1 22.751871479818302 15.911074701147196 0.03512619306485892 0 0 0
1298 10 25.4892324981547 13.638073849154335 -0.014329816426113496 0 0 0
1303 3 27.3333461096193 15.911074701147196 0.0351261930648592 0 0 0
1302 12 30.0707071279557 13.638073849154335 -0.01432981642611377 0 0 0
1306 10 34.6521817577567 13.638073849154337 -0.014329816426114007 0 0 0
1307 1 31.914820739420303 15.911074701147196 0.035126193064859534 0 0 0
1310 12 39.233656387557694 13.638073849154337 -0.014329816426113688 0 0 0
1311 3 36.4962953692213 15.911074701147196 0.03512619306485955 0 0 0
1315 1 41.0777699990223 15.911074701147198 0.03512619306485776 0 0 0
1314 10 43.8151310173587 13.638073849154337 -0.014329816426114536 0 0 0
1319 3 45.6592446288233 15.911074701147198 0.035126193064859784 0 0 0
1318 12 48.396605647159696 13.638073849154333 -0.014329816426112656 0 0 0
1234 10 52.978080276960696 13.638073849154333 -0.014329816426113643 -1 0 0
1235 1 50.2407192586243 15.911074701147195 0.0351261930648599 -1 0 0
1238 12 57.5595549067617 13.638073849154333 -0.014329816426113572 -1 0 0
1239 3 54.8221938884253 15.911074701147195 0.03512619306485888 -1 0 0
1242 10 62.1410295365627 13.638073849154335 -0.014329816426113754 -1 0 0
1243 1 59.403668518226304 15.911074701147195 0.035126193064859694 -1 0 0
1247 3 63.9851431480273 15.911074701147196 0.035126193064857564 -1 0 0
1246 12 66.7225041663637 13.638073849154335 -0.014329816426114623 -1 0 0
1251 1 68.56661777782831 15.911074701147196 0.03512619306486056 -1 0 0
1250 10 71.3039787961647 13.638073849154337 -0.014329816426112488 -1 0 0
1254 12 75.8854534259657 13.638073849154335 -0.014329816426114214 -1 0 0
1255 3 73.1480924076293 15.911074701147196 0.03512619306485976 -1 0 0
1258 10 80.4669280557667 13.638073849154335 -0.014329816426114285 -1 0 0
1259 1 77.7295670374303 15.911074701147198 0.03512619306485808 -1 0 0
1263 3 82.31104166723131 15.911074701147196 0.035126193064859756 -1 0 0
1262 12 85.0484026855677 13.638073849154337 -0.014329816426112708 -1 0 0
1267 1 86.8925162970323 15.911074701147196 0.0351261930648588 -1 0 0
1266 10 89.6298773153687 13.638073849154337 -0.014329816426113102 -1 0 0
1270 12 94.2113519451697 13.638073849154335 -0.014329816426114266 -1 0 0
1271 3 91.47399092683331 15.911074701147196 0.035126193064860485 -1 0 0
1279 3 100.6369401864353 15.911074701147198 0.035126193064857834 -1 0 0
1274 10 98.79282657497069 13.638073849154335 -0.01432981642611313 -1 0 0
1275 1 96.0554655566343 15.911074701147198 0.03512619306485866 -1 0 0
1366 12 2.581859349149695 18.184064609919336 -0.014329816426113267 0 0 0
1371 1 4.4259729606143 20.457065461912194 0.03512619306485819 0 0 0
1454 12 2.581859349149696 22.730055370684333 -0.014329816426114481 0 0 0
1370 10 7.163333978950695 18.184064609919336 -0.014329816426112921 0 0 0
1374 12 11.744808608751697 18.184064609919332 -0.014329816426113225 0 0 0
1375 3 9.007447590415302 20.457065461912194 0.0351261930648585 0 0 0
1458 10 7.163333978950697 22.730055370684333 -0.014329816426114042 0 0 0
1462 12 11.744808608751697 22.730055370684333 -0.014329816426114403 0 0 0
1378 10 16.326283238552694 18.184064609919336 -0.01432981642611247 0 0 0
1379 1 13.5889222202163 20.457065461912194 0.03512619306485862 0 0 0
1466 10 16.326283238552694 22.730055370684333 -0.014329816426113851 0 0 0
1382 12 20.907757868353695 18.184064609919336 -0.014329816426113104 0 0 0
1383 3 18.170396850017298 20.457065461912194 0.035126193064858445 0 0 0
1387 1 22.7518714798183 20.457065461912194 0.03512619306485802 0 0 0
1470 12 20.907757868353695 22.730055370684333 -0.01432981642611441 0 0 0
1386 10 25.489232498154696 18.184064609919336 -0.014329816426112706 0 0 0
1391 3 27.3333461096193 20.457065461912194 0.035126193064858424 0 0 0
1474 10 25.489232498154696 22.730055370684333 -0.014329816426113796 0 0 0
1390 12 30.070707127955696 18.184064609919336 -0.014329816426112965 0 0 0
1394 10 34.65218175775669 18.184064609919332 -0.014329816426112979 0 0 0
1395 1 31.9148207394203 20.457065461912194 0.03512619306485829 0 0 0
1478 12 30.070707127955696 22.730055370684333 -0.01432981642611423 0 0 0
1482 10 34.6521817577567 22.730055370684333 -0.014329816426114346 0 0 0
1398 12 39.23365638755769 18.184064609919336 -0.01432981642611326 0 0 0
1399 3 36.4962953692213 20.457065461912194 0.035126193064858695 0 0 0
1403 1 41.077769999022294 20.457065461912197 0.035126193064856426 0 0 0
1486 12 39.23365638755769 22.730055370684337 -0.014329816426114 0 0 0
1402 10 43.815131017358695 18.184064609919332 -0.014329816426113919 0 0 0
1407 3 45.659244628823295 20.457065461912197 0.03512619306485839 0 0 0
1490 10 43.815131017358695 22.730055370684337 -0.014329816426114732 0 0 0
1406 12 48.396605647159696 18.184064609919332 -0.014329816426112238 0 0 0
1322 10 52.978080276960696 18.184064609919332 -0.01432981642611283 -1 0 0
1323 1 50.2407192586243 20.457065461912194 0.035126193064858376 -1 0 0
1494 12 48.396605647159696 22.730055370684333 -0.01432981642611349 0 0 0
1410 10 52.978080276960696 22.730055370684333 -0.014329816426114682 -1 0 0
1326 12 57.5595549067617 18.184064609919332 -0.01432981642611255 -1 0 0
1327 3 54.8221938884253 20.45706546191219 0.035126193064858355 -1 0 0
1414 12 57.5595549067617 22.730055370684333 -0.01432981642611429 -1 0 0
1330 10 62.14102953656269 18.184064609919336 -0.01432981642611316 -1 0 0
1331 1 59.403668518226304 20.45706546191219 0.03512619306485877 -1 0 0
1335 3 63.9851431480273 20.457065461912194 0.03512619306485666 -1 0 0
1418 10 62.14102953656269 22.730055370684337 -0.014329816426114297 -1 0 0
1334 12 66.7225041663637 18.184064609919336 -0.014329816426113777 -1 0 0
1339 1 68.56661777782831 20.457065461912197 0.035126193064858965 -1 0 0
1422 12 66.7225041663637 22.730055370684337 -0.014329816426114755 -1 0 0
1338 10 71.3039787961647 18.184064609919332 -0.014329816426112304 -1 0 0
1342 12 75.8854534259657 18.184064609919336 -0.014329816426114186 -1 0 0
1343 3 73.1480924076293 20.457065461912194 0.03512619306485956 -1 0 0
1426 10 71.3039787961647 22.730055370684333 -0.014329816426112606 -1 0 0
1430 12 75.8854534259657 22.730055370684333 -0.014329816426114786 -1 0 0
1346 10 80.4669280557667 18.184064609919336 -0.014329816426114046 -1 0 0
1347 1 77.7295670374303 20.457065461912194 0.03512619306485716 -1 0 0
1351 3 82.31104166723131 20.457065461912197 0.03512619306485898 -1 0 0
1434 10 80.4669280557667 22.730055370684337 -0.014329816426114502 -1 0 0
1350 12 85.0484026855677 18.184064609919332 -0.014329816426112457 -1 0 0
1355 1 86.8925162970323 20.457065461912194 0.035126193064859125 -1 0 0
1438 12 85.0484026855677 22.730055370684333 -0.014329816426112644 -1 0 0
1354 10 89.6298773153687 18.184064609919332 -0.014329816426112998 -1 0 0
1358 12 94.2113519451697 18.184064609919336 -0.014329816426113777 -1 0 0
1359 3 91.47399092683331 20.457065461912194 0.03512619306486014 -1 0 0
1442 10 89.6298773153687 22.730055370684333 -0.014329816426113366 -1 0 0
1446 12 94.2113519451697 22.730055370684333 -0.014329816426114798 -1 0 0
1367 3 100.6369401864353 20.457065461912194 0.035126193064858126 -1 0 0
1362 10 98.79282657497069 18.184064609919336 -0.014329816426112843 -1 0 0
1363 1 96.0554655566343 20.457065461912194 0.03512619306485781 -1 0 0
1450 10 98.79282657497069 22.730055370684333 -0.014329816426114127 -1 0 0
1459 1 4.425972960614301 25.003056222677195 0.03512619306485818 0 0 0
1542 12 2.5818593491496973 27.276046131449334 -0.014329816426113643 0 0 0
1463 3 9.007447590415303 25.003056222677195 0.03512619306485835 0 0 0
1546 10 7.163333978950698 27.276046131449334 -0.014329816426113777 0 0 0
1550 12 11.744808608751699 27.276046131449334 -0.014329816426113702 0 0 0
1467 1 13.588922220216302 25.003056222677195 0.03512619306485795 0 0 0
1554 10 16.326283238552694 27.276046131449334 -0.01432981642611336 0 0 0
1471 3 18.170396850017298 25.003056222677195 0.03512619306485829 0 0 0
1475 1 22.751871479818302 25.003056222677195 0.03512619306485802 0 0 0
1558 12 20.9077578683537 27.276046131449334 -0.014329816426113971 0 0 0
1479 3 27.3333461096193 25.003056222677195 0.03512619306485794 0 0 0
1562 10 25.489232498154696 27.276046131449334 -0.014329816426113348 0 0 0
1483 1 31.914820739420303 25.003056222677195 0.03512619306485836 0 0 0
1566 12 30.0707071279557 27.276046131449334 -0.014329816426113712 0 0 0
1570 10 34.6521817577567 27.27604613144933 -0.01432981642611342 0 0 0
1487 3 36.49629536922131 25.00305622267719 0.0351261930648595 0 0 0
1491 1 41.0777699990223 25.00305622267719 0.035126193064857016 0 0 0
1574 12 39.233656387557694 27.27604613144933 -0.014329816426113945 0 0 0
1495 3 45.65924462882331 25.00305622267719 0.03512619306485921 0 0 0
1578 10 43.8151310173587 27.27604613144933 -0.014329816426114896 0 0 0
1411 1 50.240719258624296 25.003056222677195 0.03512619306485916 -1 0 0
1582 12 48.396605647159696 27.276046131449334 -0.014329816426112184 0 0 0
1498 10 52.978080276960696 27.276046131449334 -0.014329816426112727 -1 0 0
1415 3 54.8221938884253 25.003056222677195 0.03512619306485873 -1 0 0
1502 12 57.5595549067617 27.276046131449334 -0.014329816426112888 -1 0 0
1419 1 59.403668518226304 25.003056222677195 0.03512619306485866 -1 0 0
1423 3 63.985143148027305 25.00305622267719 0.035126193064857016 -1 0 0
1506 10 62.1410295365627 27.27604613144933 -0.01432981642611332 -1 0 0
1427 1 68.56661777782831 25.003056222677195 0.035126193064859 -1 0 0
1510 12 66.7225041663637 27.276046131449334 -0.01432981642611475 -1 0 0
1431 3 73.1480924076293 25.003056222677195 0.03512619306485953 -1 0 0
1514 10 71.3039787961647 27.276046131449334 -0.014329816426112047 -1 0 0
1518 12 75.8854534259657 27.276046131449334 -0.014329816426114127 -1 0 0
1435 1 77.7295670374303 25.003056222677195 0.03512619306485725 -1 0 0
1439 3 82.31104166723131 25.003056222677195 0.035126193064859104 -1 0 0
1522 10 80.4669280557667 27.276046131449334 -0.014329816426114706 -1 0 0
1443 1 86.8925162970323 25.003056222677195 0.035126193064858924 -1 0 0
1526 12 85.0484026855677 27.276046131449334 -0.014329816426112408 -1 0 0
1447 3 91.47399092683331 25.003056222677195 0.03512619306485985 -1 0 0
1530 10 89.6298773153687 27.276046131449334 -0.014329816426112394 -1 0 0
1534 12 94.2113519451697 27.276046131449334 -0.01432981642611387 -1 0 0
1455 3 100.6369401864353 25.003056222677195 0.03512619306485809 -1 0 0
1451 1 96.0554655566343 25.003056222677195 0.035126193064858216 -1 0 0
1538 10 98.79282657497069 27.276046131449334 -0.01432981642611256 -1 0 0
1547 1 4.425972960614301 29.549046983442196 0.03512619306485889 0 0 0
1630 12 2.5818593491496955 31.822036892214335 -0.01432981642611436 0 0 0
1635 1 4.425972960614301 34.09503774420719 0.03512619306485808 0 0 0
1551 3 9.007447590415302 29.549046983442196 0.03512619306485872 0 0 0
1634 10 7.163333978950696 31.822036892214335 -0.014329816426113768 0 0 0
1638 12 11.744808608751697 31.822036892214335 -0.014329816426113752 0 0 0
1639 3 9.007447590415303 34.0950377442072 0.035126193064858015 0 0 0
1555 1 13.588922220216302 29.549046983442196 0.035126193064858785 0 0 0
1642 10 16.326283238552694 31.822036892214335 -0.014329816426113251 0 0 0
1643 1 13.588922220216302 34.09503774420719 0.035126193064857855 0 0 0
1559 3 18.1703968500173 29.549046983442196 0.0351261930648586 0 0 0
1563 1 22.751871479818302 29.549046983442196 0.035126193064858854 0 0 0
1646 12 20.907757868353695 31.82203689221433 -0.014329816426113421 0 0 0
1647 3 18.1703968500173 34.09503774420719 0.03512619306485816 0 0 0
1651 1 22.751871479818302 34.0950377442072 0.03512619306485833 0 0 0
1567 3 27.333346109619303 29.549046983442196 0.035126193064858716 0 0 0
1650 10 25.489232498154696 31.822036892214335 -0.01432981642611338 0 0 0
1655 3 27.333346109619303 34.09503774420719 0.035126193064858244 0 0 0
1571 1 31.914820739420303 29.549046983442196 0.03512619306485855 0 0 0
1654 12 30.070707127955696 31.82203689221433 -0.014329816426113287 0 0 0
1658 10 34.6521817577567 31.822036892214335 -0.014329816426113891 0 0 0
1659 1 31.914820739420303 34.09503774420719 0.03512619306485855 0 0 0
1575 3 36.4962953692213 29.549046983442196 0.03512619306485915 0 0 0
1579 1 41.077769999022294 29.549046983442196 0.035126193064856544 0 0 0
1662 12 39.23365638755769 31.822036892214335 -0.01432981642611357 0 0 0
1663 3 36.49629536922131 34.0950377442072 0.035126193064858514 0 0 0
1667 1 41.0777699990223 34.0950377442072 0.035126193064857536 0 0 0
1583 3 45.6592446288233 29.549046983442196 0.03512619306485945 0 0 0
1666 10 43.815131017358695 31.822036892214335 -0.014329816426113891 0 0 0
1671 3 45.6592446288233 34.09503774420719 0.03512619306485934 0 0 0
1499 1 50.2407192586243 29.549046983442196 0.03512619306485903 -1 0 0
1670 12 48.396605647159696 31.822036892214335 -0.014329816426113171 0 0 0
1586 10 52.978080276960696 31.82203689221433 -0.01432981642611404 -1 0 0
1587 1 50.2407192586243 34.0950377442072 0.035126193064858716 -1 0 0
1503 3 54.8221938884253 29.549046983442196 0.035126193064858764 -1 0 0
1590 12 57.5595549067617 31.82203689221433 -0.014329816426113681 -1 0 0
1591 3 54.8221938884253 34.09503774420719 0.035126193064858084 -1 0 0
1507 1 59.403668518226304 29.549046983442196 0.03512619306485885 -1 0 0
1511 3 63.9851431480273 29.549046983442196 0.03512619306485746 -1 0 0
1594 10 62.14102953656269 31.822036892214335 -0.014329816426113728 -1 0 0
1595 1 59.403668518226304 34.09503774420719 0.03512619306485846 -1 0 0
1599 3 63.985143148027305 34.09503774420719 0.03512619306485718 -1 0 0
1515 1 68.56661777782831 29.549046983442196 0.03512619306485929 -1 0 0
1598 12 66.7225041663637 31.822036892214335 -0.014329816426114654 -1 0 0
1603 1 68.56661777782831 34.0950377442072 0.03512619306485807 -1 0 0
1519 3 73.1480924076293 29.549046983442196 0.03512619306485966 -1 0 0
1602 10 71.3039787961647 31.82203689221433 -0.014329816426112555 -1 0 0
1606 12 75.8854534259657 31.822036892214335 -0.014329816426114516 -1 0 0
1607 3 73.1480924076293 34.0950377442072 0.03512619306485993 -1 0 0
1523 1 77.7295670374303 29.549046983442196 0.035126193064857494 -1 0 0
1527 3 82.31104166723131 29.549046983442196 0.0351261930648593 -1 0 0
1610 10 80.4669280557667 31.822036892214335 -0.014329816426114536 -1 0 0
1611 1 77.7295670374303 34.09503774420719 0.03512619306485735 -1 0 0
1615 3 82.31104166723131 34.0950377442072 0.03512619306485906 -1 0 0
1531 1 86.8925162970323 29.549046983442196 0.03512619306485913 -1 0 0
1614 12 85.0484026855677 31.82203689221433 -0.014329816426112616 -1 0 0
1619 1 86.8925162970323 34.0950377442072 0.03512619306485898 -1 0 0
1535 3 91.47399092683331 29.549046983442196 0.03512619306486019 -1 0 0
1618 10 89.6298773153687 31.822036892214335 -0.014329816426113293 -1 0 0
1622 12 94.2113519451697 31.822036892214335 -0.014329816426113985 -1 0 0
1623 3 91.47399092683331 34.0950377442072 0.035126193064859465 -1 0 0
1543 3 100.6369401864353 29.549046983442192 0.035126193064857945 -1 0 0
1631 3 100.6369401864353 34.0950377442072 0.035126193064858834 -1 0 0
1539 1 96.0554655566343 29.549046983442196 0.035126193064858126 -1 0 0
1626 10 98.79282657497069 31.82203689221433 -0.014329816426113551 -1 0 0
1627 1 96.0554655566343 34.09503774420719 0.03512619306485788 -1 0 0
1718 12 2.5818593491496977 36.36802765297933 -0.014329816426114608 0 0 0
1723 1 4.425972960614302 38.64102850497219 0.03512619306485856 0 0 0
1806 12 2.5818593491496964 40.91401841374434 -0.01432981642611323 0 0 0
1722 10 7.1633339789507 36.36802765297933 -0.01432981642611461 0 0 0
1726 12 11.7448086087517 36.36802765297933 -0.014329816426114741 0 0 0
1727 3 9.007447590415302 38.6410285049722 0.03512619306485881 0 0 0
1810 10 7.163333978950696 40.91401841374434 -0.014329816426113138 0 0 0
1814 12 11.744808608751695 40.91401841374434 -0.014329816426113074 0 0 0
1730 10 16.326283238552698 36.36802765297933 -0.014329816426113865 0 0 0
1731 1 13.588922220216302 38.6410285049722 0.03512619306485868 0 0 0
1818 10 16.326283238552694 40.91401841374434 -0.014329816426112457 0 0 0
1734 12 20.9077578683537 36.368027652979336 -0.01432981642611423 0 0 0
1735 3 18.1703968500173 38.64102850497219 0.03512619306485872 0 0 0
1739 1 22.751871479818302 38.6410285049722 0.03512619306485844 0 0 0
1822 12 20.907757868353695 40.91401841374434 -0.014329816426113733 0 0 0
1738 10 25.4892324981547 36.36802765297933 -0.014329816426114049 0 0 0
1743 3 27.333346109619303 38.64102850497219 0.03512619306485859 0 0 0
1826 10 25.489232498154696 40.91401841374434 -0.014329816426112736 0 0 0
1742 12 30.0707071279557 36.368027652979336 -0.01432981642611416 0 0 0
1746 10 34.6521817577567 36.36802765297933 -0.014329816426114226 0 0 0
1747 1 31.914820739420303 38.64102850497219 0.03512619306485859 0 0 0
1830 12 30.070707127955696 40.91401841374434 -0.014329816426113187 0 0 0
1834 10 34.65218175775669 40.91401841374434 -0.014329816426113216 0 0 0
1750 12 39.233656387557694 36.36802765297933 -0.014329816426114108 0 0 0
1751 3 36.4962953692213 38.6410285049722 0.035126193064858285 0 0 0
1755 1 41.077769999022294 38.6410285049722 0.035126193064857134 0 0 0
1838 12 39.23365638755769 40.91401841374434 -0.0143298164261135 0 0 0
1754 10 43.8151310173587 36.36802765297933 -0.014329816426114675 0 0 0
1759 3 45.6592446288233 38.6410285049722 0.03512619306485868 0 0 0
1842 10 43.815131017358695 40.91401841374434 -0.014329816426114413 0 0 0
1758 12 48.396605647159696 36.368027652979336 -0.014329816426113202 0 0 0
1674 10 52.978080276960696 36.368027652979336 -0.014329816426114137 -1 0 0
1675 1 50.2407192586243 38.64102850497219 0.035126193064858834 -1 0 0
1846 12 48.396605647159696 40.91401841374434 -0.014329816426112156 0 0 0
1762 10 52.978080276960696 40.91401841374434 -0.014329816426113197 -1 0 0
1678 12 57.5595549067617 36.368027652979336 -0.014329816426113966 -1 0 0
1679 3 54.8221938884253 38.64102850497219 0.03512619306485831 -1 0 0
1766 12 57.5595549067617 40.91401841374434 -0.014329816426113338 -1 0 0
1682 10 62.1410295365627 36.368027652979336 -0.014329816426114023 -1 0 0
1683 1 59.403668518226304 38.64102850497219 0.03512619306485848 -1 0 0
1687 3 63.9851431480273 38.6410285049722 0.03512619306485727 -1 0 0
1770 10 62.14102953656269 40.91401841374434 -0.014329816426112597 -1 0 0
1686 12 66.7225041663637 36.368027652979336 -0.014329816426115596 -1 0 0
1691 1 68.56661777782831 38.6410285049722 0.035126193064858285 -1 0 0
1774 12 66.7225041663637 40.91401841374434 -0.014329816426114798 -1 0 0
1690 10 71.3039787961647 36.368027652979336 -0.01432981642611203 -1 0 0
1694 12 75.88545342596571 36.368027652979336 -0.014329816426115102 -1 0 0
1695 3 73.1480924076293 38.64102850497219 0.03512619306485974 -1 0 0
1778 10 71.3039787961647 40.91401841374434 -0.014329816426111796 -1 0 0
1782 12 75.8854534259657 40.91401841374434 -0.014329816426113669 -1 0 0
1698 10 80.4669280557667 36.368027652979336 -0.014329816426114297 -1 0 0
1699 1 77.7295670374303 38.6410285049722 0.035126193064857994 -1 0 0
1703 3 82.31104166723131 38.6410285049722 0.03512619306485903 -1 0 0
1786 10 80.4669280557667 40.91401841374434 -0.014329816426114974 -1 0 0
1702 12 85.0484026855677 36.368027652979336 -0.01432981642611217 -1 0 0
1707 1 86.8925162970323 38.64102850497219 0.035126193064859076 -1 0 0
1790 12 85.0484026855677 40.91401841374434 -0.014329816426111584 -1 0 0
1706 10 89.6298773153687 36.368027652979336 -0.014329816426113027 -1 0 0
1710 12 94.21135194516971 36.368027652979336 -0.014329816426114543 -1 0 0
1711 3 91.47399092683331 38.64102850497219 0.03512619306486021 -1 0 0
1794 10 89.6298773153687 40.91401841374434 -0.014329816426111992 -1 0 0