LAMMPS data file via write_data, version 29 Aug 2024, timestep = 5, units = metal

5808 atoms
24 atom types

0 100.792441855622 xlo xhi
0 100.01179673683 ylo yhi
-50 50 zlo zhi

Masses

1 118.71
2 118.71
3 118.71
4 118.71
5 118.71
6 118.71
7 118.71
8 118.71
9 118.71
10 118.71
11 118.71
12 118.71
13 127.6
14 127.6
15 127.6
16 127.6
17 127.6
18 127.6
19 127.6
20 127.6
21 127.6
22 127.6
23 127.6
24 127.6

Atoms # atomic

1014 16 2.5817686982691965 0.00010188024741353274 -0.013802994434537127 0 0 0
1019 1 4.4260638244405826 2.2731022925757327 0.034888881035182416 0 0 0
1102 16 2.5817686982691925 4.546092641012408 -0.013802994434536637 0 0 0
1018 14 7.1632433280701955 0.00010188024741353274 -0.013802994434536593 0 0 0
1023 3 9.007538454241583 2.2731022925757327 0.03488888103518246 0 0 0
1022 16 11.744717957871195 0.00010188024741353274 -0.0138029944345369 0 0 0
1106 14 7.163243328070195 4.546092641012408 -0.013802994434536281 0 0 0
1110 16 11.744717957871195 4.546092641012408 -0.01380299443453677 0 0 0
1027 1 13.589013084042584 2.2731022925757327 0.03488888103518276 0 0 0
1026 14 16.326192587672196 0.00010188024741353274 -0.013802994434536687 0 0 0
1114 14 16.32619258767219 4.546092641012409 -0.013802994434536095 0 0 0
1031 3 18.170487713843578 2.273102292575733 0.03488888103518208 0 0 0
1030 16 20.907667217473193 0.00010188024741353274 -0.013802994434536923 0 0 0
1035 1 22.751962343644582 2.2731022925757323 0.0348888810351827 0 0 0
1118 16 20.907667217473193 4.546092641012408 -0.013802994434536206 0 0 0
1034 14 25.489141847274198 0.00010188024741353274 -0.013802994434537254 0 0 0
1039 3 27.33343697344558 2.273102292575733 0.034888881035182236 0 0 0
1122 14 25.48914184727419 4.546092641012409 -0.013802994434536055 0 0 0
1038 16 30.0706164770752 0.00010188024741353274 -0.01380299443453768 0 0 0
1043 1 31.914911603246583 2.2731022925757323 0.034888881035182374 0 0 0
1042 14 34.6520911068762 0.00010188024741353274 -0.013802994434536428 0 0 0
1126 16 30.070616477075195 4.546092641012408 -0.013802994434536638 0 0 0
1130 14 34.65209110687619 4.546092641012409 -0.01380299443453585 0 0 0
1047 3 36.49638623304759 2.273102292575734 0.03488888103518374 0 0 0
1046 16 39.23356573667719 0.00010188024741353274 -0.01380299443453672 0 0 0
1051 1 41.07786086284858 2.273102292575734 0.034888881035180765 0 0 0
1134 16 39.233565736677185 4.546092641012408 -0.013802994434536987 0 0 0
1050 14 43.8150403664782 0.00010188024741353274 -0.0138029944345382 0 0 0
1055 3 45.65933549264958 2.2731022925757323 0.034888881035182055 0 0 0
1138 14 43.81504036647819 4.546092641012408 -0.01380299443453789 0 0 0
1054 16 48.396514996279194 0.00010188024739932189 -0.013802994434535696 0 0 0
971 1 50.24081012245058 2.273102292575729 0.034888881035183714 -1 0 0
970 14 52.977989626080195 0.00010188024739932189 -0.013802994434535984 -1 0 0
1142 16 48.396514996279194 4.54609264101241 -0.013802994434535386 0 0 0
1058 14 52.977989626080195 4.54609264101241 -0.013802994434536453 -1 0 0
975 3 54.822284752251576 2.2731022925757283 0.03488888103518232 -1 0 0
974 16 57.559464255881196 0.00010188024739932189 -0.013802994434536092 -1 0 0
1062 16 57.559464255881196 4.54609264101241 -0.013802994434536295 -1 0 0
979 1 59.40375938205258 2.2731022925757283 0.03488888103518258 -1 0 0
978 14 62.140938885682196 0.00010188024741353274 -0.013802994434536153 -1 0 0
983 3 63.985234011853585 2.273102292575734 0.03488888103518213 -1 0 0
1066 14 62.14093888568219 4.546092641012408 -0.01380299443453583 -1 0 0
982 16 66.7224135154832 0.00010188024741353274 -0.01380299443453796 -1 0 0
987 1 68.56670864165459 2.27310229257573 0.03488888103518331 -1 0 0
1070 16 66.7224135154832 4.546092641012409 -0.013802994434538014 -1 0 0
986 14 71.3038881452842 0.00010188024741353274 -0.013802994434535046 -1 0 0
991 3 73.14818327145558 2.273102292575729 0.03488888103518281 -1 0 0
990 16 75.8853627750852 0.00010188024741353274 -0.013802994434536787 -1 0 0
1074 14 71.30388814528419 4.546092641012409 -0.013802994434534876 -1 0 0
1078 16 75.8853627750852 4.546092641012409 -0.013802994434537894 -1 0 0
995 1 77.72965790125659 2.27310229257573 0.034888881035182645 -1 0 0
994 14 80.46683740488619 0.00010188024741353274 -0.01380299443453671 -1 0 0
999 3 82.31113253105758 2.27310229257573 0.03488888103518263 -1 0 0
1082 14 80.46683740488619 4.546092641012409 -0.01380299443453702 -1 0 0
998 16 85.0483120346872 0.00010188024741353274 -0.013802994434535299 -1 0 0
1003 1 86.89260716085857 2.273102292575729 0.03488888103518294 -1 0 0
1086 16 85.04831203468719 4.546092641012409 -0.013802994434534886 -1 0 0
1002 14 89.6297866644882 0.00010188024739932189 -0.013802994434535835 -1 0 0
1007 3 91.47408179065958 2.273102292575729 0.0348888810351833 -1 0 0
1006 16 94.2112612942892 0.00010188024741353274 -0.013802994434536822 -1 0 0
1090 14 89.6297866644882 4.546092641012409 -0.013802994434535905 -1 0 0
1094 16 94.2112612942892 4.546092641012409 -0.013802994434537825 -1 0 0
1015 3 100.63703105026157 2.2731022925757336 0.03488888103518187 -1 0 0
1011 1 96.05555642046059 2.2731022925757296 0.03488888103518281 -1 0 0
1010 14 98.7927359240902 0.00010188024739932189 -0.013802994434535677 -1 0 0
1098 14 98.7927359240902 4.546092641012409 -0.013802994434535835 -1 0 0
1107 1 4.426063824440581 6.81909305334073 0.03488888103518263 0 0 0
1190 16 2.5817686982691934 9.092083401777408 -0.013802994434536949 0 0 0
1195 1 4.4260638244405826 11.36508381410573 0.034888881035182645 0 0 0
1111 3 9.007538454241583 6.81909305334073 0.0348888810351828 0 0 0
1194 14 7.1632433280701955 9.092083401777408 -0.013802994434536435 0 0 0
1198 16 11.744717957871195 9.092083401777408 -0.013802994434536617 0 0 0
1199 3 9.007538454241583 11.36508381410573 0.034888881035182465 0 0 0
1115 1 13.589013084042584 6.81909305334073 0.03488888103518285 0 0 0
1202 14 16.326192587672193 9.092083401777408 -0.01380299443453633 0 0 0
1203 1 13.589013084042582 11.36508381410573 0.03488888103518224 0 0 0
1119 3 18.17048771384358 6.81909305334073 0.03488888103518264 0 0 0
1123 1 22.751962343644582 6.819093053340731 0.03488888103518299 0 0 0
1206 16 20.907667217473193 9.092083401777408 -0.013802994434536543 0 0 0
1207 3 18.17048771384358 11.36508381410573 0.03488888103518224 0 0 0
1211 1 22.751962343644582 11.36508381410573 0.0348888810351823 0 0 0
1127 3 27.333436973445583 6.81909305334073 0.034888881035182895 0 0 0
1210 14 25.489141847274194 9.092083401777408 -0.013802994434536317 0 0 0
1215 3 27.333436973445583 11.36508381410573 0.034888881035182354 0 0 0
1131 1 31.914911603246583 6.819093053340731 0.034888881035182756 0 0 0
1214 16 30.070616477075195 9.092083401777408 -0.013802994434536569 0 0 0
1218 14 34.65209110687619 9.092083401777408 -0.013802994434535565 0 0 0
1219 1 31.914911603246583 11.36508381410573 0.03488888103518224 0 0 0
1135 3 36.49638623304758 6.819093053340731 0.03488888103518352 0 0 0
1139 1 41.077860862848574 6.819093053340731 0.03488888103518098 0 0 0
1222 16 39.233565736677185 9.092083401777408 -0.013802994434536683 0 0 0
1223 3 36.49638623304758 11.365083814105729 0.034888881035183235 0 0 0
1227 1 41.077860862848574 11.36508381410573 0.03488888103518065 0 0 0
1143 3 45.65933549264958 6.819093053340731 0.034888881035182145 0 0 0
1226 14 43.81504036647819 9.092083401777408 -0.013802994434537221 0 0 0
1231 3 45.65933549264958 11.36508381410573 0.03488888103518262 0 0 0
1059 1 50.24081012245058 6.819093053340731 0.034888881035183505 -1 0 0
1230 16 48.396514996279194 9.092083401777408 -0.013802994434535486 0 0 0
1146 14 52.977989626080195 9.092083401777408 -0.013802994434536538 -1 0 0
1147 1 50.24081012245058 11.36508381410573 0.03488888103518305 -1 0 0
1063 3 54.82228475225158 6.819093053340731 0.03488888103518245 -1 0 0
1150 16 57.559464255881196 9.092083401777408 -0.013802994434536402 -1 0 0
1151 3 54.82228475225158 11.36508381410573 0.03488888103518248 -1 0 0
1067 1 59.403759382052584 6.819093053340731 0.03488888103518305 -1 0 0
1071 3 63.98523401185358 6.8190930533407315 0.03488888103518161 -1 0 0
1154 14 62.14093888568219 9.092083401777408 -0.01380299443453581 -1 0 0
1155 1 59.403759382052584 11.36508381410573 0.03488888103518272 -1 0 0
1159 3 63.98523401185358 11.36508381410573 0.03488888103518162 -1 0 0
1075 1 68.56670864165459 6.819093053340732 0.03488888103518266 -1 0 0
1158 16 66.7224135154832 9.092083401777403 -0.01380299443453758 -1 0 0
1163 1 68.56670864165457 11.36508381410573 0.03488888103518206 -1 0 0
1079 3 73.14818327145558 6.819093053340731 0.03488888103518354 -1 0 0
1162 14 71.30388814528419 9.092083401777407 -0.013802994434534954 -1 0 0
1166 16 75.8853627750852 9.092083401777405 -0.01380299443453753 -1 0 0
1167 3 73.14818327145558 11.365083814105729 0.03488888103518309 -1 0 0
1083 1 77.72965790125659 6.819093053340732 0.0348888810351826 -1 0 0
1087 3 82.31113253105758 6.819093053340732 0.034888881035183006 -1 0 0
1170 14 80.46683740488619 9.092083401777405 -0.013802994434536845 -1 0 0
1171 1 77.72965790125659 11.365083814105725 0.03488888103518208 -1 0 0
1175 3 82.31113253105758 11.365083814105725 0.034888881035182145 -1 0 0
1091 1 86.89260716085857 6.819093053340731 0.034888881035183276 -1 0 0
1174 16 85.04831203468719 9.092083401777407 -0.013802994434535051 -1 0 0
1179 1 86.89260716085857 11.365083814105729 0.03488888103518314 -1 0 0
1095 3 91.47408179065958 6.819093053340731 0.03488888103518327 -1 0 0
1178 14 89.6297866644882 9.092083401777408 -0.013802994434535693 -1 0 0
1182 16 94.2112612942892 9.092083401777405 -0.013802994434537377 -1 0 0
1183 3 91.47408179065958 11.365083814105729 0.034888881035183124 -1 0 0
1103 3 100.63703105026157 6.8190930533407315 0.03488888103518222 -1 0 0
1191 3 100.63703105026157 11.36508381410573 0.03488888103518179 -1 0 0
1099 1 96.05555642046059 6.819093053340732 0.034888881035182735 -1 0 0
1186 14 98.7927359240902 9.092083401777408 -0.013802994434535617 -1 0 0
1187 1 96.05555642046059 11.365083814105725 0.03488888103518269 -1 0 0
1278 16 2.581768698269195 13.63807416254241 -0.013802994434536952 0 0 0
1283 1 4.4260638244405826 15.911074574870732 0.03488888103518361 0 0 0
1282 14 7.163243328070196 13.63807416254241 -0.013802994434536808 0 0 0
1286 16 11.744717957871197 13.638074162542411 -0.013802994434536905 0 0 0
1287 3 9.007538454241583 15.911074574870733 0.034888881035183075 0 0 0
1290 14 16.326192587672193 13.63807416254241 -0.013802994434536175 0 0 0
1291 1 13.589013084042584 15.911074574870733 0.03488888103518316 0 0 0
1294 16 20.907667217473193 13.63807416254241 -0.013802994434536553 0 0 0
1295 3 18.17048771384358 15.911074574870733 0.0348888810351835 0 0 0
1299 1 22.751962343644582 15.911074574870732 0.034888881035183096 0 0 0
1298 14 25.489141847274194 13.63807416254241 -0.013802994434536293 0 0 0
1303 3 27.333436973445583 15.911074574870733 0.03488888103518349 0 0 0
1302 16 30.070616477075195 13.63807416254241 -0.01380299443453672 0 0 0
1306 14 34.6520911068762 13.63807416254241 -0.013802994434536187 0 0 0
1307 1 31.914911603246583 15.911074574870732 0.03488888103518347 0 0 0
1310 16 39.233565736677185 13.63807416254241 -0.01380299443453653 0 0 0
1311 3 36.49638623304758 15.911074574870735 0.03488888103518374 0 0 0
1315 1 41.077860862848574 15.911074574870732 0.0348888810351814 0 0 0
1314 14 43.8150403664782 13.638074162542411 -0.01380299443453722 0 0 0
1319 3 45.65933549264959 15.911074574870733 0.03488888103518383 0 0 0
1318 16 48.396514996279194 13.638074162542408 -0.013802994434535788 0 0 0
1234 14 52.977989626080195 13.63807416254241 -0.01380299443453622 -1 0 0
1235 1 50.24081012245058 15.911074574870732 0.03488888103518368 -1 0 0
1238 16 57.559464255881196 13.63807416254241 -0.013802994434536453 -1 0 0
1239 3 54.82228475225158 15.911074574870732 0.034888881035183145 -1 0 0
1242 14 62.14093888568219 13.63807416254241 -0.013802994434536128 -1 0 0
1243 1 59.403759382052584 15.911074574870732 0.034888881035183346 -1 0 0
1247 3 63.98523401185358 15.911074574870732 0.03488888103518211 -1 0 0
1246 16 66.72241351548318 13.63807416254241 -0.013802994434537176 -1 0 0
1251 1 68.56670864165457 15.911074574870732 0.03488888103518292 -1 0 0
1250 14 71.3038881452842 13.638074162542408 -0.013802994434535611 -1 0 0
1254 16 75.8853627750852 13.63807416254241 -0.013802994434537613 -1 0 0
1255 3 73.14818327145558 15.911074574870732 0.0348888810351841 -1 0 0
1258 14 80.46683740488619 13.63807416254241 -0.013802994434537265 -1 0 0
1259 1 77.72965790125659 15.911074574870735 0.03488888103518309 -1 0 0
1263 3 82.31113253105758 15.911074574870737 0.034888881035182825 -1 0 0
1262 16 85.0483120346872 13.638074162542408 -0.01380299443453565 -1 0 0
1267 1 86.89260716085857 15.911074574870732 0.03488888103518325 -1 0 0
1266 14 89.6297866644882 13.63807416254241 -0.013802994434536154 -1 0 0
1270 16 94.2112612942892 13.63807416254241 -0.013802994434537547 -1 0 0
1271 3 91.47408179065958 15.911074574870733 0.03488888103518474 -1 0 0
1279 3 100.63703105026158 15.911074574870732 0.03488888103518305 -1 0 0
1274 14 98.7927359240902 13.638074162542411 -0.013802994434535856 -1 0 0
1275 1 96.05555642046059 15.911074574870735 0.03488888103518401 -1 0 0
1366 16 2.581768698269193 18.18406492330741 -0.013802994434535913 0 0 0
1371 1 4.426063824440581 20.457065335635733 0.034888881035182395 0 0 0
1454 16 2.581768698269193 22.730055684072408 -0.013802994434537134 0 0 0
1370 14 7.163243328070194 18.18406492330741 -0.013802994434535795 0 0 0
1374 16 11.744717957871195 18.18406492330741 -0.013802994434536172 0 0 0
1375 3 9.007538454241583 20.457065335635733 0.03488888103518239 0 0 0
1458 14 7.163243328070195 22.730055684072408 -0.013802994434537096 0 0 0
1462 16 11.744717957871194 22.730055684072408 -0.013802994434537093 0 0 0
1378 14 16.32619258767219 18.18406492330741 -0.013802994434535306 0 0 0
1379 1 13.589013084042582 20.457065335635733 0.03488888103518262 0 0 0
1466 14 16.32619258767219 22.73005568407241 -0.01380299443453673 0 0 0
1382 16 20.907667217473193 18.18406492330741 -0.013802994434536048 0 0 0
1383 3 18.170487713843578 20.457065335635733 0.03488888103518248 0 0 0
1387 1 22.751962343644582 20.457065335635733 0.0348888810351828 0 0 0
1470 16 20.90766721747319 22.730055684072408 -0.013802994434537433 0 0 0
1386 14 25.48914184727419 18.18406492330741 -0.013802994434535207 0 0 0
1391 3 27.33343697344558 20.457065335635733 0.03488888103518271 0 0 0
1474 14 25.48914184727419 22.73005568407241 -0.013802994434536264 0 0 0
1390 16 30.070616477075195 18.18406492330741 -0.013802994434535637 0 0 0
1394 14 34.65209110687619 18.18406492330741 -0.01380299443453578 0 0 0
1395 1 31.914911603246583 20.45706533563573 0.03488888103518288 0 0 0
1478 16 30.070616477075195 22.730055684072408 -0.013802994434536872 0 0 0
1482 14 34.65209110687619 22.730055684072408 -0.013802994434536402 0 0 0
1398 16 39.233565736677185 18.18406492330741 -0.013802994434536081 0 0 0
1399 3 36.49638623304758 20.457065335635733 0.034888881035182936 0 0 0
1403 1 41.077860862848574 20.457065335635733 0.03488888103518081 0 0 0
1486 16 39.233565736677185 22.730055684072408 -0.013802994434536893 0 0 0
1402 14 43.81504036647819 18.184064923307407 -0.013802994434536388 0 0 0
1407 3 45.65933549264958 20.45706533563573 0.034888881035182645 0 0 0
1490 14 43.81504036647819 22.73005568407241 -0.013802994434537523 0 0 0
1406 16 48.396514996279194 18.18406492330741 -0.01380299443453516 0 0 0
1322 14 52.977989626080195 18.184064923307407 -0.013802994434535844 -1 0 0
1323 1 50.24081012245058 20.45706533563573 0.03488888103518316 -1 0 0
1494 16 48.396514996279194 22.730055684072408 -0.013802994434536558 0 0 0
1410 14 52.977989626080195 22.730055684072408 -0.013802994434537197 -1 0 0
1326 16 57.559464255881196 18.184064923307407 -0.013802994434535584 -1 0 0
1327 3 54.82228475225158 20.457065335635733 0.03488888103518266 -1 0 0
1414 16 57.559464255881196 22.730055684072408 -0.013802994434537133 -1 0 0
1330 14 62.14093888568219 18.18406492330741 -0.013802994434535833 -1 0 0
1331 1 59.403759382052584 20.45706533563573 0.03488888103518338 -1 0 0
1335 3 63.98523401185358 20.457065335635733 0.03488888103518126 -1 0 0
1418 14 62.14093888568219 22.730055684072408 -0.013802994434537653 -1 0 0
1334 16 66.7224135154832 18.184064923307414 -0.013802994434536916 -1 0 0
1339 1 68.56670864165459 20.457065335635733 0.03488888103518287 -1 0 0
1422 16 66.7224135154832 22.730055684072408 -0.013802994434537096 -1 0 0
1338 14 71.30388814528419 18.18406492330741 -0.013802994434535296 -1 0 0
1342 16 75.8853627750852 18.184064923307407 -0.013802994434535748 -1 0 0
1343 3 73.14818327145558 20.457065335635733 0.034888881035182735 -1 0 0
1426 14 71.30388814528419 22.730055684072404 -0.013802994434536017 -1 0 0
1430 16 75.88536277508518 22.73005568407241 -0.013802994434536345 -1 0 0
1346 14 80.46683740488619 18.18406492330741 -0.01380299443453712 -1 0 0
1347 1 77.72965790125657 20.457065335635733 0.03488888103518214 -1 0 0
1351 3 82.31113253105758 20.457065335635733 0.034888881035182014 -1 0 0
1434 14 80.46683740488619 22.730055684072408 -0.013802994434537742 -1 0 0
1350 16 85.04831203468719 18.18406492330741 -0.01380299443453541 -1 0 0
1355 1 86.89260716085857 20.457065335635733 0.034888881035182236 -1 0 0
1438 16 85.04831203468719 22.730055684072404 -0.013802994434536564 -1 0 0
1354 14 89.6297866644882 18.18406492330741 -0.013802994434535145 -1 0 0
1358 16 94.2112612942892 18.184064923307407 -0.013802994434535394 -1 0 0
1359 3 91.47408179065958 20.457065335635733 0.03488888103518338 -1 0 0
1442 14 89.6297866644882 22.730055684072404 -0.013802994434536588 -1 0 0
1446 16 94.21126129428919 22.73005568407241 -0.013802994434536102 -1 0 0
1367 3 100.63703105026158 20.45706533563573 0.03488888103518178 -1 0 0
1362 14 98.7927359240902 18.18406492330741 -0.013802994434535986 -1 0 0
1363 1 96.05555642046058 20.457065335635733 0.034888881035182596 -1 0 0
1450 14 98.7927359240902 22.730055684072408 -0.01380299443453704 -1 0 0
1459 1 4.426063824440581 25.00305609640073 0.03488888103518231 0 0 0
1542 16 2.581768698269194 27.27604644483741 -0.013802994434536222 0 0 0
1463 3 9.007538454241583 25.00305609640073 0.03488888103518242 0 0 0
1546 14 7.1632433280701955 27.27604644483741 -0.01380299443453626 0 0 0
1550 16 11.744717957871195 27.27604644483741 -0.013802994434536364 0 0 0
1467 1 13.589013084042582 25.00305609640073 0.03488888103518222 0 0 0
1554 14 16.326192587672193 27.27604644483741 -0.013802994434535525 0 0 0
1471 3 18.17048771384358 25.00305609640073 0.034888881035182485 0 0 0
1475 1 22.751962343644582 25.00305609640073 0.034888881035182395 0 0 0
1558 16 20.907667217473193 27.27604644483741 -0.013802994434536529 0 0 0
1479 3 27.333436973445583 25.00305609640073 0.034888881035182666 0 0 0
1562 14 25.489141847274194 27.27604644483741 -0.013802994434535795 0 0 0
1483 1 31.914911603246583 25.00305609640073 0.034888881035182534 0 0 0
1566 16 30.070616477075195 27.27604644483741 -0.01380299443453652 0 0 0
1570 14 34.6520911068762 27.27604644483741 -0.013802994434536722 0 0 0
1487 3 36.49638623304758 25.003056096400726 0.034888881035183256 0 0 0
1491 1 41.07786086284858 25.003056096400726 0.03488888103518116 0 0 0
1574 16 39.23356573667719 27.27604644483741 -0.013802994434536489 0 0 0
1495 3 45.65933549264958 25.00305609640073 0.034888881035182756 0 0 0
1578 14 43.81504036647819 27.276046444837405 -0.01380299443453714 0 0 0
1411 1 50.24081012245058 25.00305609640073 0.03488888103518271 -1 0 0
1582 16 48.396514996279194 27.27604644483741 -0.013802994434535708 0 0 0
1498 14 52.977989626080195 27.27604644483741 -0.0138029944345364 -1 0 0
1415 3 54.82228475225158 25.00305609640073 0.03488888103518275 -1 0 0
1502 16 57.559464255881196 27.27604644483741 -0.01380299443453585 -1 0 0
1419 1 59.403759382052584 25.00305609640073 0.03488888103518338 -1 0 0
1423 3 63.98523401185358 25.00305609640073 0.034888881035181125 -1 0 0
1506 14 62.14093888568219 27.27604644483741 -0.01380299443453644 -1 0 0
1427 1 68.56670864165459 25.003056096400726 0.03488888103518286 -1 0 0
1510 16 66.7224135154832 27.27604644483741 -0.013802994434536978 -1 0 0
1431 3 73.14818327145557 25.003056096400734 0.03488888103518271 -1 0 0
1514 14 71.30388814528419 27.276046444837416 -0.013802994434535006 -1 0 0
1518 16 75.88536277508518 27.276046444837405 -0.013802994434536017 -1 0 0
1435 1 77.72965790125659 25.00305609640073 0.034888881035182506 -1 0 0
1439 3 82.31113253105758 25.003056096400726 0.03488888103518164 -1 0 0
1522 14 80.46683740488619 27.27604644483741 -0.013802994434537693 -1 0 0
1443 1 86.89260716085856 25.003056096400734 0.034888881035181216 -1 0 0
1526 16 85.04831203468719 27.276046444837416 -0.013802994434535207 -1 0 0
1447 3 91.47408179065958 25.003056096400726 0.03488888103518422 -1 0 0
1530 14 89.6297866644882 27.27604644483741 -0.013802994434535965 -1 0 0
1534 16 94.21126129428919 27.276046444837405 -0.01380299443453597 -1 0 0
1455 3 100.63703105026158 25.003056096400734 0.03488888103518117 -1 0 0
1451 1 96.05555642046059 25.00305609640073 0.03488888103518293 -1 0 0
1538 14 98.7927359240902 27.27604644483741 -0.013802994434536564 -1 0 0
1547 1 4.426063824440582 29.54904685716573 0.03488888103518297 0 0 0
1630 16 2.5817686982691943 31.82203720560241 -0.013802994434536411 0 0 0
1635 1 4.4260638244405826 34.09503761793073 0.034888881035181965 0 0 0
1551 3 9.007538454241583 29.54904685716573 0.03488888103518296 0 0 0
1634 14 7.163243328070195 31.82203720560241 -0.013802994434536626 0 0 0
1638 16 11.744717957871195 31.82203720560241 -0.013802994434536841 0 0 0
1639 3 9.007538454241583 34.09503761793073 0.03488888103518203 0 0 0
1555 1 13.589013084042584 29.54904685716573 0.03488888103518311 0 0 0
1642 14 16.326192587672193 31.82203720560241 -0.013802994434535858 0 0 0
1643 1 13.589013084042584 34.09503761793073 0.0348888810351823 0 0 0
1559 3 18.170487713843578 29.54904685716573 0.034888881035183124 0 0 0
1563 1 22.751962343644582 29.54904685716573 0.03488888103518267 0 0 0
1646 16 20.907667217473193 31.82203720560241 -0.013802994434537108 0 0 0
1647 3 18.17048771384358 34.09503761793073 0.03488888103518223 0 0 0
1651 1 22.751962343644585 34.09503761793073 0.03488888103518218 0 0 0
1567 3 27.33343697344558 29.54904685716573 0.034888881035183096 0 0 0
1650 14 25.489141847274194 31.82203720560241 -0.01380299443453609 0 0 0
1655 3 27.333436973445583 34.09503761793073 0.034888881035182284 0 0 0
1571 1 31.914911603246583 29.54904685716573 0.03488888103518263 0 0 0
1654 16 30.070616477075195 31.82203720560241 -0.013802994434536817 0 0 0
1658 14 34.65209110687619 31.822037205602406 -0.013802994434536238 0 0 0
1659 1 31.914911603246587 34.09503761793073 0.03488888103518255 0 0 0
1575 3 36.49638623304758 29.549046857165735 0.034888881035183374 0 0 0
1579 1 41.077860862848574 29.54904685716573 0.0348888810351814 0 0 0
1662 16 39.233565736677185 31.82203720560241 -0.013802994434536685 0 0 0
1663 3 36.49638623304758 34.09503761793073 0.03488888103518281 0 0 0
1667 1 41.077860862848574 34.09503761793073 0.0348888810351811 0 0 0
1583 3 45.65933549264958 29.54904685716573 0.03488888103518323 0 0 0
1666 14 43.81504036647819 31.82203720560241 -0.013802994434536465 0 0 0
1671 3 45.65933549264958 34.09503761793073 0.0348888810351834 0 0 0
1499 1 50.240810122450576 29.54904685716573 0.034888881035183034 -1 0 0
1670 16 48.39651499627919 31.82203720560241 -0.013802994434535467 0 0 0
1586 14 52.97798962608019 31.82203720560241 -0.013802994434536116 -1 0 0
1587 1 50.24081012245058 34.09503761793073 0.03488888103518289 -1 0 0
1503 3 54.822284752251576 29.54904685716573 0.03488888103518272 -1 0 0
1590 16 57.55946425588119 31.82203720560241 -0.013802994434536269 -1 0 0
1591 3 54.82228475225158 34.09503761793073 0.03488888103518172 -1 0 0
1507 1 59.40375938205258 29.54904685716573 0.034888881035183214 -1 0 0
1511 3 63.98523401185358 29.54904685716573 0.03488888103518218 -1 0 0
1594 14 62.14093888568219 31.822037205602406 -0.013802994434535497 -1 0 0
1595 1 59.403759382052584 34.09503761793073 0.03488888103518207 -1 0 0
1599 3 63.985234011853585 34.09503761793073 0.03488888103518216 -1 0 0
1515 1 68.56670864165459 29.54904685716573 0.034888881035183186 -1 0 0
1598 16 66.7224135154832 31.822037205602406 -0.013802994434537027 -1 0 0
1603 1 68.56670864165457 34.09503761793073 0.03488888103518225 -1 0 0
1519 3 73.14818327145558 29.54904685716573 0.03488888103518329 -1 0 0
1602 14 71.3038881452842 31.82203720560241 -0.01380299443453553 -1 0 0
1606 16 75.88536277508518 31.82203720560241 -0.013802994434536494 -1 0 0
1607 3 73.14818327145558 34.09503761793073 0.03488888103518375 -1 0 0
1523 1 77.72965790125657 29.54904685716573 0.03488888103518171 -1 0 0
1527 3 82.31113253105758 29.54904685716573 0.03488888103518189 -1 0 0
1610 14 80.46683740488619 31.822037205602406 -0.013802994434537358 -1 0 0
1611 1 77.72965790125657 34.095037617930736 0.03488888103518149 -1 0 0
1615 3 82.31113253105757 34.09503761793073 0.03488888103518184 -1 0 0
1531 1 86.89260716085857 29.54904685716573 0.034888881035182846 -1 0 0
1614 16 85.0483120346872 31.82203720560241 -0.013802994434535528 -1 0 0
1619 1 86.89260716085857 34.09503761793073 0.03488888103518305 -1 0 0
1535 3 91.47408179065958 29.549046857165735 0.034888881035184297 -1 0 0
1618 14 89.62978666448821 31.82203720560241 -0.01380299443453613 -1 0 0
1622 16 94.21126129428919 31.82203720560241 -0.013802994434536258 -1 0 0
1623 3 91.47408179065958 34.09503761793073 0.0348888810351832 -1 0 0
1543 3 100.63703105026158 29.54904685716573 0.034888881035182194 -1 0 0
1631 3 100.63703105026158 34.09503761793073 0.03488888103518155 -1 0 0
1539 1 96.05555642046058 29.54904685716573 0.03488888103518208 -1 0 0
1626 14 98.7927359240902 31.82203720560241 -0.013802994434536633 -1 0 0
1627 1 96.05555642046058 34.095037617930736 0.034888881035182034 -1 0 0
1718 16 2.5817686982691943 36.36802796636741 -0.01380299443453742 0 0 0
1723 1 4.426063824440582 38.64102837869573 0.034888881035182305 0 0 0
1806 16 2.581768698269193 40.91401872713241 -0.013802994434535908 0 0 0
1722 14 7.1632433280701955 36.36802796636741 -0.013802994434537271 0 0 0
1726 16 11.744717957871195 36.36802796636741 -0.013802994434537405 0 0 0
1727 3 9.007538454241583 38.64102837869573 0.03488888103518247 0 0 0
1810 14 7.163243328070195 40.91401872713241 -0.013802994434535542 0 0 0
1814 16 11.744717957871194 40.91401872713241 -0.013802994434536075 0 0 0
1730 14 16.326192587672193 36.36802796636741 -0.013802994434537058 0 0 0
1731 1 13.589013084042582 38.64102837869573 0.03488888103518225 0 0 0
1818 14 16.326192587672193 40.91401872713241 -0.013802994434535285 0 0 0
1734 16 20.907667217473193 36.36802796636741 -0.013802994434537459 0 0 0
1735 3 18.17048771384358 38.64102837869573 0.03488888103518221 0 0 0
1739 1 22.751962343644582 38.64102837869573 0.034888881035182194 0 0 0
1822 16 20.907667217473193 40.91401872713241 -0.013802994434535823 0 0 0
1738 14 25.489141847274194 36.36802796636741 -0.013802994434536604 0 0 0
1743 3 27.333436973445583 38.64102837869573 0.03488888103518283 0 0 0
1826 14 25.489141847274194 40.91401872713241 -0.013802994434535159 0 0 0
1742 16 30.070616477075195 36.36802796636741 -0.013802994434537507 0 0 0
1746 14 34.65209110687619 36.36802796636741 -0.013802994434537126 0 0 0
1747 1 31.914911603246583 38.64102837869573 0.03488888103518191 0 0 0
1830 16 30.070616477075195 40.91401872713241 -0.013802994434535892 0 0 0
1834 14 34.65209110687619 40.914018727132415 -0.013802994434535615 0 0 0
1750 16 39.23356573667719 36.36802796636741 -0.013802994434537249 0 0 0
1751 3 36.49638623304758 38.64102837869573 0.034888881035183186 0 0 0
1755 1 41.077860862848574 38.64102837869574 0.03488888103518133 0 0 0
1838 16 39.233565736677185 40.91401872713241 -0.013802994434535892 0 0 0
1754 14 43.81504036647819 36.36802796636741 -0.01380299443453746 0 0 0
1759 3 45.65933549264958 38.64102837869573 0.034888881035183436 0 0 0
1842 14 43.81504036647819 40.914018727132415 -0.01380299443453664 0 0 0
1758 16 48.396514996279194 36.36802796636741 -0.013802994434536435 0 0 0
1674 14 52.977989626080195 36.36802796636741 -0.013802994434537374 -1 0 0
1675 1 50.24081012245058 38.64102837869573 0.0348888810351834 -1 0 0
1846 16 48.396514996279194 40.91401872713241 -0.01380299443453461 0 0 0
1762 14 52.977989626080195 40.91401872713241 -0.013802994434535355 -1 0 0
1678 16 57.559464255881196 36.36802796636741 -0.01380299443453737 -1 0 0
1679 3 54.82228475225158 38.64102837869573 0.03488888103518287 -1 0 0
1766 16 57.559464255881196 40.91401872713241 -0.013802994434535313 -1 0 0
1682 14 62.140938885682196 36.36802796636741 -0.013802994434537107 -1 0 0
1683 1 59.403759382052584 38.64102837869573 0.03488888103518286 -1 0 0
1687 3 63.98523401185358 38.64102837869573 0.03488888103518206 -1 0 0
1770 14 62.14093888568219 40.91401872713241 -0.013802994434535329 -1 0 0
1686 16 66.72241351548318 36.36802796636741 -0.01380299443453746 -1 0 0
1691 1 68.56670864165457 38.64102837869573 0.03488888103518198 -1 0 0
1774 16 66.7224135154832 40.914018727132415 -0.013802994434536999 -1 0 0
1690 14 71.30388814528419 36.36802796636741 -0.01380299443453531 -1 0 0
1694 16 75.88536277508518 36.36802796636741 -0.013802994434537181 -1 0 0
1695 3 73.14818327145558 38.64102837869573 0.03488888103518338 -1 0 0
1778 14 71.3038881452842 40.91401872713241 -0.013802994434534808 -1 0 0
1782 16 75.88536277508518 40.91401872713241 -0.013802994434536153 -1 0 0
1698 14 80.46683740488618 36.36802796636741 -0.013802994434537058 -1 0 0
1699 1 77.72965790125657 38.64102837869573 0.03488888103518147 -1 0 0
1703 3 82.31113253105757 38.64102837869574 0.0348888810351822 -1 0 0
1786 14 80.46683740488619 40.914018727132415 -0.013802994434536897 -1 0 0
1702 16 85.04831203468719 36.36802796636741 -0.01380299443453499 -1 0 0
1707 1 86.89260716085857 38.64102837869573 0.034888881035183165 -1 0 0
1790 16 85.0483120346872 40.91401872713241 -0.013802994434535015 -1 0 0
1706 14 89.6297866644882 36.36802796636741 -0.013802994434536024 -1 0 0
1710 16 94.21126129428919 36.36802796636741 -0.013802994434536975 -1 0 0