LAMMPS data file via write_data, version 29 Aug 2024, timestep = 0, units = metal

1936 atoms
8 atom types

0 100.792441855622 xlo xhi
0 100.01179673683 ylo yhi
0 17.10979291 zlo zhi

Masses

1 127.6
2 127.6
3 127.6
4 118.71
5 118.71
6 118.71
7 118.71
8 127.6

Atoms # atomic

1015 3 0 2.273186564663007 0 0 0 0
1014 8 2.426473410170999 4.318063000141592e-05 0.23816857059499963 0 0 0
1019 1 4.581474629801001 2.273186564663007 0 0 0 0
1018 6 7.007948039972 4.318063000141592e-05 0.23816857059499963 0 0 0
1023 3 9.162949259602001 2.273186564663007 0 0 0 0
1022 8 11.589422669773 4.318063000141592e-05 0.23816857059499963 0 0 0
1027 1 13.744423889403002 2.273186564663007 0 0 0 0
1026 6 16.170897299574 4.318063000141592e-05 0.23816857059499963 0 0 0
1031 3 18.325898519203996 2.273186564663007 0 0 0 0
1030 8 20.752371929374995 4.318063000141592e-05 0.23816857059499963 0 0 0
1035 1 22.907373149005004 2.273186564663007 0 0 0 0
1034 6 25.333846559176003 4.318063000141592e-05 0.23816857059499963 0 0 0
1039 3 27.488847778805997 2.273186564663007 0 0 0 0
1038 8 29.915321188976996 4.318063000141592e-05 0.23816857059499963 0 0 0
1043 1 32.070322408607005 2.273186564663007 0 0 0 0
1042 6 34.496795818778004 4.318063000141592e-05 0.23816857059499963 0 0 0
1047 3 36.651797038408 2.273186564663007 0 0 0 0
1046 8 39.078270448579 4.318063000141592e-05 0.23816857059499963 0 0 0
1051 1 41.23327166820899 2.273186564663007 0 0 0 0
1050 6 43.659745078380006 4.318063000141592e-05 0.23816857059499963 0 0 0
1055 3 45.81474629801 2.273186564663007 0 0 0 0
1054 8 48.241219708181 4.318063000141592e-05 0.23816857059499963 0 0 0
971 1 50.396220927811 2.273186564663007 0 -1 0 0
970 6 52.822694337982 4.318063000141592e-05 0.23816857059499963 -1 0 0
975 3 54.977695557612 2.273186564663007 0 -1 0 0
974 8 57.404168967783 4.318063000141592e-05 0.23816857059499963 -1 0 0
979 1 59.559170187413 2.273186564663007 0 -1 0 0
978 6 61.985643597584 4.318063000141592e-05 0.23816857059499963 -1 0 0
983 3 64.140644817214 2.273186564663007 0 -1 0 0
982 8 66.56711822738501 4.318063000141592e-05 0.23816857059499963 -1 0 0
987 1 68.722119447015 2.273186564663007 0 -1 0 0
986 6 71.148592857186 4.318063000141592e-05 0.23816857059499963 -1 0 0
991 3 73.303594076816 2.273186564663007 0 -1 0 0
990 8 75.730067486987 4.318063000141592e-05 0.23816857059499963 -1 0 0
995 1 77.885068706617 2.273186564663007 0 -1 0 0
994 6 80.311542116788 4.318063000141592e-05 0.23816857059499963 -1 0 0
999 3 82.466543336418 2.273186564663007 0 -1 0 0
998 8 84.893016746589 4.318063000141592e-05 0.23816857059499963 -1 0 0
1003 1 87.04801796621899 2.273186564663007 0 -1 0 0
1002 6 89.47449137639 4.318063000141592e-05 0.23816857059499963 -1 0 0
1007 3 91.62949259602 2.273186564663007 0 -1 0 0
1006 8 94.055966006191 4.318063000141592e-05 0.23816857059499963 -1 0 0
1011 1 96.21096722582101 2.273186564663007 0 -1 0 0
1010 6 98.637440635992 4.318063000141592e-05 0.23816857059499963 -1 0 0
1102 8 2.426473410170999 4.546033941395002 0.23816857059499963 0 0 0
1106 6 7.007948039972 4.546033941395002 0.23816857059499963 0 0 0
1110 8 11.589422669773 4.546033941395002 0.23816857059499963 0 0 0
1114 6 16.170897299574 4.546033941395002 0.23816857059499963 0 0 0
1118 8 20.752371929374995 4.546033941395002 0.23816857059499963 0 0 0
1122 6 25.333846559176003 4.546033941395002 0.23816857059499963 0 0 0
1126 8 29.915321188976996 4.546033941395002 0.23816857059499963 0 0 0
1130 6 34.496795818778004 4.546033941395002 0.23816857059499963 0 0 0
1134 8 39.078270448579 4.546033941395002 0.23816857059499963 0 0 0
1138 6 43.659745078380006 4.546033941395002 0.23816857059499963 0 0 0
1142 8 48.241219708181 4.546033941395002 0.23816857059499963 0 0 0
1058 6 52.822694337982 4.546033941395002 0.23816857059499963 -1 0 0
1062 8 57.404168967783 4.546033941395002 0.23816857059499963 -1 0 0
1066 6 61.985643597584 4.546033941395002 0.23816857059499963 -1 0 0
1070 8 66.56711822738501 4.546033941395002 0.23816857059499963 -1 0 0
1074 6 71.148592857186 4.546033941395002 0.23816857059499963 -1 0 0
1078 8 75.730067486987 4.546033941395002 0.23816857059499963 -1 0 0
1082 6 80.311542116788 4.546033941395002 0.23816857059499963 -1 0 0
1086 8 84.893016746589 4.546033941395002 0.23816857059499963 -1 0 0
1090 6 89.47449137639 4.546033941395002 0.23816857059499963 -1 0 0
1094 8 94.055966006191 4.546033941395002 0.23816857059499963 -1 0 0
1098 6 98.637440635992 4.546033941395002 0.23816857059499963 -1 0 0
1103 3 0 6.819177325428001 0 0 0 0
1107 1 4.581474629801001 6.819177325428001 0 0 0 0
1111 3 9.162949259602001 6.819177325428001 0 0 0 0
1115 1 13.744423889403002 6.819177325428001 0 0 0 0
1119 3 18.325898519203996 6.819177325428001 0 0 0 0
1123 1 22.907373149005004 6.819177325428001 0 0 0 0
1127 3 27.488847778805997 6.819177325428001 0 0 0 0
1131 1 32.070322408607005 6.819177325428001 0 0 0 0
1135 3 36.651797038408 6.819177325428001 0 0 0 0
1139 1 41.23327166820899 6.819177325428001 0 0 0 0
1143 3 45.81474629801 6.819177325428001 0 0 0 0
1059 1 50.396220927811 6.819177325428001 0 -1 0 0
1063 3 54.977695557612 6.819177325428001 0 -1 0 0
1067 1 59.559170187413 6.819177325428001 0 -1 0 0
1071 3 64.140644817214 6.819177325428001 0 -1 0 0
1075 1 68.722119447015 6.819177325428001 0 -1 0 0
1079 3 73.303594076816 6.819177325428001 0 -1 0 0
1083 1 77.885068706617 6.819177325428001 0 -1 0 0
1087 3 82.466543336418 6.819177325428001 0 -1 0 0
1091 1 87.04801796621899 6.819177325428001 0 -1 0 0
1095 3 91.62949259602 6.819177325428001 0 -1 0 0
1099 1 96.21096722582101 6.819177325428001 0 -1 0 0
1190 8 2.426473410170999 9.092024702160003 0.23816857059499963 0 0 0
1194 6 7.007948039972 9.092024702160003 0.23816857059499963 0 0 0
1198 8 11.589422669773 9.092024702160003 0.23816857059499963 0 0 0
1202 6 16.170897299574 9.092024702160003 0.23816857059499963 0 0 0
1206 8 20.752371929374995 9.092024702160003 0.23816857059499963 0 0 0
1210 6 25.333846559176003 9.092024702160003 0.23816857059499963 0 0 0
1214 8 29.915321188976996 9.092024702160003 0.23816857059499963 0 0 0
1218 6 34.496795818778004 9.092024702160003 0.23816857059499963 0 0 0
1222 8 39.078270448579 9.092024702160003 0.23816857059499963 0 0 0
1226 6 43.659745078380006 9.092024702160003 0.23816857059499963 0 0 0
1230 8 48.241219708181 9.092024702160003 0.23816857059499963 0 0 0
1146 6 52.822694337982 9.092024702160003 0.23816857059499963 -1 0 0
1150 8 57.404168967783 9.092024702160003 0.23816857059499963 -1 0 0
1154 6 61.985643597584 9.092024702160003 0.23816857059499963 -1 0 0
1158 8 66.56711822738501 9.092024702160003 0.23816857059499963 -1 0 0
1162 6 71.148592857186 9.092024702160003 0.23816857059499963 -1 0 0
1166 8 75.730067486987 9.092024702160003 0.23816857059499963 -1 0 0
1170 6 80.311542116788 9.092024702160003 0.23816857059499963 -1 0 0
1174 8 84.893016746589 9.092024702160003 0.23816857059499963 -1 0 0
1178 6 89.47449137639 9.092024702160003 0.23816857059499963 -1 0 0
1182 8 94.055966006191 9.092024702160003 0.23816857059499963 -1 0 0
1186 6 98.637440635992 9.092024702160003 0.23816857059499963 -1 0 0
1191 3 0 11.365168086193002 0 0 0 0
1195 1 4.581474629801001 11.365168086193002 0 0 0 0
1199 3 9.162949259602001 11.365168086193002 0 0 0 0
1203 1 13.744423889403002 11.365168086193002 0 0 0 0
1207 3 18.325898519203996 11.365168086193002 0 0 0 0
1211 1 22.907373149005004 11.365168086193002 0 0 0 0
1215 3 27.488847778805997 11.365168086193002 0 0 0 0
1219 1 32.070322408607005 11.365168086193002 0 0 0 0
1223 3 36.651797038408 11.365168086193002 0 0 0 0
1227 1 41.23327166820899 11.365168086193002 0 0 0 0
1231 3 45.81474629801 11.365168086193002 0 0 0 0
1147 1 50.396220927811 11.365168086193002 0 -1 0 0
1151 3 54.977695557612 11.365168086193002 0 -1 0 0
1155 1 59.559170187413 11.365168086193002 0 -1 0 0
1159 3 64.140644817214 11.365168086193002 0 -1 0 0
1163 1 68.722119447015 11.365168086193002 0 -1 0 0
1167 3 73.303594076816 11.365168086193002 0 -1 0 0
1171 1 77.885068706617 11.365168086193002 0 -1 0 0
1175 3 82.466543336418 11.365168086193002 0 -1 0 0
1179 1 87.04801796621899 11.365168086193002 0 -1 0 0
1183 3 91.62949259602 11.365168086193002 0 -1 0 0
1187 1 96.21096722582101 11.365168086193002 0 -1 0 0
1278 8 2.426473410170999 13.638015462925004 0.23816857059499963 0 0 0
1282 6 7.007948039972 13.638015462925004 0.23816857059499963 0 0 0
1286 8 11.589422669773 13.638015462925004 0.23816857059499963 0 0 0
1290 6 16.170897299574 13.638015462925004 0.23816857059499963 0 0 0
1294 8 20.752371929374995 13.638015462925004 0.23816857059499963 0 0 0
1298 6 25.333846559176003 13.638015462925004 0.23816857059499963 0 0 0
1302 8 29.915321188976996 13.638015462925004 0.23816857059499963 0 0 0
1306 6 34.496795818778004 13.638015462925004 0.23816857059499963 0 0 0
1310 8 39.078270448579 13.638015462925004 0.23816857059499963 0 0 0
1314 6 43.659745078380006 13.638015462925004 0.23816857059499963 0 0 0
1318 8 48.241219708181 13.638015462925004 0.23816857059499963 0 0 0
1234 6 52.822694337982 13.638015462925004 0.23816857059499963 -1 0 0
1238 8 57.404168967783 13.638015462925004 0.23816857059499963 -1 0 0
1242 6 61.985643597584 13.638015462925004 0.23816857059499963 -1 0 0
1246 8 66.56711822738501 13.638015462925004 0.23816857059499963 -1 0 0
1250 6 71.148592857186 13.638015462925004 0.23816857059499963 -1 0 0
1254 8 75.730067486987 13.638015462925004 0.23816857059499963 -1 0 0
1258 6 80.311542116788 13.638015462925004 0.23816857059499963 -1 0 0
1262 8 84.893016746589 13.638015462925004 0.23816857059499963 -1 0 0
1266 6 89.47449137639 13.638015462925004 0.23816857059499963 -1 0 0
1270 8 94.055966006191 13.638015462925004 0.23816857059499963 -1 0 0
1274 6 98.637440635992 13.638015462925004 0.23816857059499963 -1 0 0
1279 3 0 15.91115884695801 0 0 0 0
1283 1 4.581474629801001 15.91115884695801 0 0 0 0
1287 3 9.162949259602001 15.91115884695801 0 0 0 0
1291 1 13.744423889403002 15.91115884695801 0 0 0 0
1295 3 18.325898519203996 15.91115884695801 0 0 0 0
1299 1 22.907373149005004 15.91115884695801 0 0 0 0
1303 3 27.488847778805997 15.91115884695801 0 0 0 0
1307 1 32.070322408607005 15.91115884695801 0 0 0 0
1311 3 36.651797038408 15.91115884695801 0 0 0 0
1315 1 41.23327166820899 15.91115884695801 0 0 0 0
1319 3 45.81474629801 15.91115884695801 0 0 0 0
1235 1 50.396220927811 15.91115884695801 0 -1 0 0
1239 3 54.977695557612 15.91115884695801 0 -1 0 0
1243 1 59.559170187413 15.91115884695801 0 -1 0 0
1247 3 64.140644817214 15.91115884695801 0 -1 0 0
1251 1 68.722119447015 15.91115884695801 0 -1 0 0
1255 3 73.303594076816 15.91115884695801 0 -1 0 0
1259 1 77.885068706617 15.91115884695801 0 -1 0 0
1263 3 82.466543336418 15.91115884695801 0 -1 0 0
1267 1 87.04801796621899 15.91115884695801 0 -1 0 0
1271 3 91.62949259602 15.91115884695801 0 -1 0 0
1275 1 96.21096722582101 15.91115884695801 0 -1 0 0
1366 8 2.426473410170999 18.184006223689998 0.23816857059499963 0 0 0
1370 6 7.007948039972 18.184006223689998 0.23816857059499963 0 0 0
1374 8 11.589422669773 18.184006223689998 0.23816857059499963 0 0 0
1378 6 16.170897299574 18.184006223689998 0.23816857059499963 0 0 0
1382 8 20.752371929374995 18.184006223689998 0.23816857059499963 0 0 0
1386 6 25.333846559176003 18.184006223689998 0.23816857059499963 0 0 0
1390 8 29.915321188976996 18.184006223689998 0.23816857059499963 0 0 0
1394 6 34.496795818778004 18.184006223689998 0.23816857059499963 0 0 0
1398 8 39.078270448579 18.184006223689998 0.23816857059499963 0 0 0
1402 6 43.659745078380006 18.184006223689998 0.23816857059499963 0 0 0
1406 8 48.241219708181 18.184006223689998 0.23816857059499963 0 0 0
1322 6 52.822694337982 18.184006223689998 0.23816857059499963 -1 0 0
1326 8 57.404168967783 18.184006223689998 0.23816857059499963 -1 0 0
1330 6 61.985643597584 18.184006223689998 0.23816857059499963 -1 0 0
1334 8 66.56711822738501 18.184006223689998 0.23816857059499963 -1 0 0
1338 6 71.148592857186 18.184006223689998 0.23816857059499963 -1 0 0
1342 8 75.730067486987 18.184006223689998 0.23816857059499963 -1 0 0
1346 6 80.311542116788 18.184006223689998 0.23816857059499963 -1 0 0
1350 8 84.893016746589 18.184006223689998 0.23816857059499963 -1 0 0
1354 6 89.47449137639 18.184006223689998 0.23816857059499963 -1 0 0
1358 8 94.055966006191 18.184006223689998 0.23816857059499963 -1 0 0
1362 6 98.637440635992 18.184006223689998 0.23816857059499963 -1 0 0
1367 3 0 20.457149607723004 0 0 0 0
1371 1 4.581474629801001 20.457149607723004 0 0 0 0
1375 3 9.162949259602001 20.457149607723004 0 0 0 0
1379 1 13.744423889403002 20.457149607723004 0 0 0 0
1383 3 18.325898519203996 20.457149607723004 0 0 0 0
1387 1 22.907373149005004 20.457149607723004 0 0 0 0
1391 3 27.488847778805997 20.457149607723004 0 0 0 0
1395 1 32.070322408607005 20.457149607723004 0 0 0 0
1399 3 36.651797038408 20.457149607723004 0 0 0 0
1403 1 41.23327166820899 20.457149607723004 0 0 0 0
1407 3 45.81474629801 20.457149607723004 0 0 0 0
1323 1 50.396220927811 20.457149607723004 0 -1 0 0
1327 3 54.977695557612 20.457149607723004 0 -1 0 0
1331 1 59.559170187413 20.457149607723004 0 -1 0 0
1335 3 64.140644817214 20.457149607723004 0 -1 0 0
1339 1 68.722119447015 20.457149607723004 0 -1 0 0
1343 3 73.303594076816 20.457149607723004 0 -1 0 0
1347 1 77.885068706617 20.457149607723004 0 -1 0 0
1351 3 82.466543336418 20.457149607723004 0 -1 0 0
1355 1 87.04801796621899 20.457149607723004 0 -1 0 0
1359 3 91.62949259602 20.457149607723004 0 -1 0 0
1363 1 96.21096722582101 20.457149607723004 0 -1 0 0
1454 8 2.426473410170999 22.729996984455006 0.23816857059499963 0 0 0
1458 6 7.007948039972 22.729996984455006 0.23816857059499963 0 0 0
1462 8 11.589422669773 22.729996984455006 0.23816857059499963 0 0 0
1466 6 16.170897299574 22.729996984455006 0.23816857059499963 0 0 0
1470 8 20.752371929374995 22.729996984455006 0.23816857059499963 0 0 0
1474 6 25.333846559176003 22.729996984455006 0.23816857059499963 0 0 0
1478 8 29.915321188976996 22.729996984455006 0.23816857059499963 0 0 0
1482 6 34.496795818778004 22.729996984455006 0.23816857059499963 0 0 0
1486 8 39.078270448579 22.729996984455006 0.23816857059499963 0 0 0
1490 6 43.659745078380006 22.729996984455006 0.23816857059499963 0 0 0
1494 8 48.241219708181 22.729996984455006 0.23816857059499963 0 0 0
1410 6 52.822694337982 22.729996984455006 0.23816857059499963 -1 0 0
1414 8 57.404168967783 22.729996984455006 0.23816857059499963 -1 0 0
1418 6 61.985643597584 22.729996984455006 0.23816857059499963 -1 0 0
1422 8 66.56711822738501 22.729996984455006 0.23816857059499963 -1 0 0
1426 6 71.148592857186 22.729996984455006 0.23816857059499963 -1 0 0
1430 8 75.730067486987 22.729996984455006 0.23816857059499963 -1 0 0
1434 6 80.311542116788 22.729996984455006 0.23816857059499963 -1 0 0
1438 8 84.893016746589 22.729996984455006 0.23816857059499963 -1 0 0
1442 6 89.47449137639 22.729996984455006 0.23816857059499963 -1 0 0
1446 8 94.055966006191 22.729996984455006 0.23816857059499963 -1 0 0
1450 6 98.637440635992 22.729996984455006 0.23816857059499963 -1 0 0
1455 3 0 25.003140368487998 0 0 0 0
1459 1 4.581474629801001 25.003140368487998 0 0 0 0
1463 3 9.162949259602001 25.003140368487998 0 0 0 0
1467 1 13.744423889403002 25.003140368487998 0 0 0 0
1471 3 18.325898519203996 25.003140368487998 0 0 0 0
1475 1 22.907373149005004 25.003140368487998 0 0 0 0
1479 3 27.488847778805997 25.003140368487998 0 0 0 0
1483 1 32.070322408607005 25.003140368487998 0 0 0 0
1487 3 36.651797038408 25.003140368487998 0 0 0 0
1491 1 41.23327166820899 25.003140368487998 0 0 0 0
1495 3 45.81474629801 25.003140368487998 0 0 0 0
1411 1 50.396220927811 25.003140368487998 0 -1 0 0
1415 3 54.977695557612 25.003140368487998 0 -1 0 0
1419 1 59.559170187413 25.003140368487998 0 -1 0 0
1423 3 64.140644817214 25.003140368487998 0 -1 0 0
1427 1 68.722119447015 25.003140368487998 0 -1 0 0
1431 3 73.303594076816 25.003140368487998 0 -1 0 0
1435 1 77.885068706617 25.003140368487998 0 -1 0 0
1439 3 82.466543336418 25.003140368487998 0 -1 0 0
1443 1 87.04801796621899 25.003140368487998 0 -1 0 0
1447 3 91.62949259602 25.003140368487998 0 -1 0 0
1451 1 96.21096722582101 25.003140368487998 0 -1 0 0
1542 8 2.426473410170999 27.27598774522 0.23816857059499963 0 0 0
1546 6 7.007948039972 27.27598774522 0.23816857059499963 0 0 0
1550 8 11.589422669773 27.27598774522 0.23816857059499963 0 0 0
1554 6 16.170897299574 27.27598774522 0.23816857059499963 0 0 0
1558 8 20.752371929374995 27.27598774522 0.23816857059499963 0 0 0
1562 6 25.333846559176003 27.27598774522 0.23816857059499963 0 0 0
1566 8 29.915321188976996 27.27598774522 0.23816857059499963 0 0 0
1570 6 34.496795818778004 27.27598774522 0.23816857059499963 0 0 0
1574 8 39.078270448579 27.27598774522 0.23816857059499963 0 0 0
1578 6 43.659745078380006 27.27598774522 0.23816857059499963 0 0 0
1582 8 48.241219708181 27.27598774522 0.23816857059499963 0 0 0
1498 6 52.822694337982 27.27598774522 0.23816857059499963 -1 0 0
1502 8 57.404168967783 27.27598774522 0.23816857059499963 -1 0 0
1506 6 61.985643597584 27.27598774522 0.23816857059499963 -1 0 0
1510 8 66.56711822738501 27.27598774522 0.23816857059499963 -1 0 0
1514 6 71.148592857186 27.27598774522 0.23816857059499963 -1 0 0
1518 8 75.730067486987 27.27598774522 0.23816857059499963 -1 0 0
1522 6 80.311542116788 27.27598774522 0.23816857059499963 -1 0 0
1526 8 84.893016746589 27.27598774522 0.23816857059499963 -1 0 0
1530 6 89.47449137639 27.27598774522 0.23816857059499963 -1 0 0
1534 8 94.055966006191 27.27598774522 0.23816857059499963 -1 0 0
1538 6 98.637440635992 27.27598774522 0.23816857059499963 -1 0 0
1543 3 0 29.549131129253006 0 0 0 0
1547 1 4.581474629801001 29.549131129253006 0 0 0 0
1551 3 9.162949259602001 29.549131129253006 0 0 0 0
1555 1 13.744423889403002 29.549131129253006 0 0 0 0
1559 3 18.325898519203996 29.549131129253006 0 0 0 0
1563 1 22.907373149005004 29.549131129253006 0 0 0 0
1567 3 27.488847778805997 29.549131129253006 0 0 0 0
1571 1 32.070322408607005 29.549131129253006 0 0 0 0
1575 3 36.651797038408 29.549131129253006 0 0 0 0
1579 1 41.23327166820899 29.549131129253006 0 0 0 0
1583 3 45.81474629801 29.549131129253006 0 0 0 0
1499 1 50.396220927811 29.549131129253006 0 -1 0 0
1503 3 54.977695557612 29.549131129253006 0 -1 0 0
1507 1 59.559170187413 29.549131129253006 0 -1 0 0
1511 3 64.140644817214 29.549131129253006 0 -1 0 0
1515 1 68.722119447015 29.549131129253006 0 -1 0 0
1519 3 73.303594076816 29.549131129253006 0 -1 0 0
1523 1 77.885068706617 29.549131129253006 0 -1 0 0
1527 3 82.466543336418 29.549131129253006 0 -1 0 0
1531 1 87.04801796621899 29.549131129253006 0 -1 0 0
1535 3 91.62949259602 29.549131129253006 0 -1 0 0
1539 1 96.21096722582101 29.549131129253006 0 -1 0 0
1630 8 2.426473410170999 31.821978505985008 0.23816857059499963 0 0 0
1634 6 7.007948039972 31.821978505985008 0.23816857059499963 0 0 0
1638 8 11.589422669773 31.821978505985008 0.23816857059499963 0 0 0
1642 6 16.170897299574 31.821978505985008 0.23816857059499963 0 0 0
1646 8 20.752371929374995 31.821978505985008 0.23816857059499963 0 0 0
1650 6 25.333846559176003 31.821978505985008 0.23816857059499963 0 0 0
1654 8 29.915321188976996 31.821978505985008 0.23816857059499963 0 0 0
1658 6 34.496795818778004 31.821978505985008 0.23816857059499963 0 0 0
1662 8 39.078270448579 31.821978505985008 0.23816857059499963 0 0 0
1666 6 43.659745078380006 31.821978505985008 0.23816857059499963 0 0 0
1670 8 48.241219708181 31.821978505985008 0.23816857059499963 0 0 0
1586 6 52.822694337982 31.821978505985008 0.23816857059499963 -1 0 0
1590 8 57.404168967783 31.821978505985008 0.23816857059499963 -1 0 0
1594 6 61.985643597584 31.821978505985008 0.23816857059499963 -1 0 0
1598 8 66.56711822738501 31.821978505985008 0.23816857059499963 -1 0 0
1602 6 71.148592857186 31.821978505985008 0.23816857059499963 -1 0 0
1606 8 75.730067486987 31.821978505985008 0.23816857059499963 -1 0 0
1610 6 80.311542116788 31.821978505985008 0.23816857059499963 -1 0 0
1614 8 84.893016746589 31.821978505985008 0.23816857059499963 -1 0 0
1618 6 89.47449137639 31.821978505985008 0.23816857059499963 -1 0 0
1622 8 94.055966006191 31.821978505985008 0.23816857059499963 -1 0 0
1626 6 98.637440635992 31.821978505985008 0.23816857059499963 -1 0 0
1631 3 0 34.095121890018 0 0 0 0
1635 1 4.581474629801001 34.095121890018 0 0 0 0
1639 3 9.162949259602001 34.095121890018 0 0 0 0
1643 1 13.744423889403002 34.095121890018 0 0 0 0
1647 3 18.325898519203996 34.095121890018 0 0 0 0
1651 1 22.907373149005004 34.095121890018 0 0 0 0
1655 3 27.488847778805997 34.095121890018 0 0 0 0
1659 1 32.070322408607005 34.095121890018 0 0 0 0
1663 3 36.651797038408 34.095121890018 0 0 0 0
1667 1 41.23327166820899 34.095121890018 0 0 0 0
1671 3 45.81474629801 34.095121890018 0 0 0 0
1587 1 50.396220927811 34.095121890018 0 -1 0 0
1591 3 54.977695557612 34.095121890018 0 -1 0 0
1595 1 59.559170187413 34.095121890018 0 -1 0 0
1599 3 64.140644817214 34.095121890018 0 -1 0 0
1603 1 68.722119447015 34.095121890018 0 -1 0 0
1607 3 73.303594076816 34.095121890018 0 -1 0 0
1611 1 77.885068706617 34.095121890018 0 -1 0 0
1615 3 82.466543336418 34.095121890018 0 -1 0 0
1619 1 87.04801796621899 34.095121890018 0 -1 0 0
1623 3 91.62949259602 34.095121890018 0 -1 0 0
1627 1 96.21096722582101 34.095121890018 0 -1 0 0
1718 8 2.426473410170999 36.36796926675 0.23816857059499963 0 0 0
1722 6 7.007948039972 36.36796926675 0.23816857059499963 0 0 0
1726 8 11.589422669773 36.36796926675 0.23816857059499963 0 0 0
1730 6 16.170897299574 36.36796926675 0.23816857059499963 0 0 0
1734 8 20.752371929374995 36.36796926675 0.23816857059499963 0 0 0
1738 6 25.333846559176003 36.36796926675 0.23816857059499963 0 0 0
1742 8 29.915321188976996 36.36796926675 0.23816857059499963 0 0 0
1746 6 34.496795818778004 36.36796926675 0.23816857059499963 0 0 0
1750 8 39.078270448579 36.36796926675 0.23816857059499963 0 0 0
1754 6 43.659745078380006 36.36796926675 0.23816857059499963 0 0 0
1758 8 48.241219708181 36.36796926675 0.23816857059499963 0 0 0
1674 6 52.822694337982 36.36796926675 0.23816857059499963 -1 0 0
1678 8 57.404168967783 36.36796926675 0.23816857059499963 -1 0 0
1682 6 61.985643597584 36.36796926675 0.23816857059499963 -1 0 0
1686 8 66.56711822738501 36.36796926675 0.23816857059499963 -1 0 0
1690 6 71.148592857186 36.36796926675 0.23816857059499963 -1 0 0
1694 8 75.730067486987 36.36796926675 0.23816857059499963 -1 0 0
1698 6 80.311542116788 36.36796926675 0.23816857059499963 -1 0 0
1702 8 84.893016746589 36.36796926675 0.23816857059499963 -1 0 0
1706 6 89.47449137639 36.36796926675 0.23816857059499963 -1 0 0
1710 8 94.055966006191 36.36796926675 0.23816857059499963 -1 0 0
1714 6 98.637440635992 36.36796926675 0.23816857059499963 -1 0 0
1719 3 0 38.64111265078301 0 0 0 0
1723 1 4.581474629801001 38.64111265078301 0 0 0 0
1727 3 9.162949259602001 38.64111265078301 0 0 0 0
1731 1 13.744423889403002 38.64111265078301 0 0 0 0
1735 3 18.325898519203996 38.64111265078301 0 0 0 0
1739 1 22.907373149005004 38.64111265078301 0 0 0 0
1743 3 27.488847778805997 38.64111265078301 0 0 0 0
1747 1 32.070322408607005 38.64111265078301 0 0 0 0
1751 3 36.651797038408 38.64111265078301 0 0 0 0
1755 1 41.23327166820899 38.64111265078301 0 0 0 0
1759 3 45.81474629801 38.64111265078301 0 0 0 0
1675 1 50.396220927811 38.64111265078301 0 -1 0 0
1679 3 54.977695557612 38.64111265078301 0 -1 0 0
1683 1 59.559170187413 38.64111265078301 0 -1 0 0
1687 3 64.140644817214 38.64111265078301 0 -1 0 0
1691 1 68.722119447015 38.64111265078301 0 -1 0 0
1695 3 73.303594076816 38.64111265078301 0 -1 0 0
1699 1 77.885068706617 38.64111265078301 0 -1 0 0
1703 3 82.466543336418 38.64111265078301 0 -1 0 0
1707 1 87.04801796621899 38.64111265078301 0 -1 0 0
1711 3 91.62949259602 38.64111265078301 0 -1 0 0
1715 1 96.21096722582101 38.64111265078301 0 -1 0 0
1806 8 2.426473410170999 40.91396002751501 0.23816857059499963 0 0 0
1810 6 7.007948039972 40.91396002751501 0.23816857059499963 0 0 0
1814 8 11.589422669773 40.91396002751501 0.23816857059499963 0 0 0
1818 6 16.170897299574 40.91396002751501 0.23816857059499963 0 0 0
1822 8 20.752371929374995 40.91396002751501 0.23816857059499963 0 0 0
1826 6 25.333846559176003 40.91396002751501 0.23816857059499963 0 0 0
1830 8 29.915321188976996 40.91396002751501 0.23816857059499963 0 0 0
1834 6 34.496795818778004 40.91396002751501 0.23816857059499963 0 0 0
1838 8 39.078270448579 40.91396002751501 0.23816857059499963 0 0 0
1842 6 43.659745078380006 40.91396002751501 0.23816857059499963 0 0 0
1846 8 48.241219708181 40.91396002751501 0.23816857059499963 0 0 0
1762 6 52.822694337982 40.91396002751501 0.23816857059499963 -1 0 0
1766 8 57.404168967783 40.91396002751501 0.23816857059499963 -1 0 0
1770 6 61.985643597584 40.91396002751501 0.23816857059499963 -1 0 0
1774 8 66.56711822738501 40.91396002751501 0.23816857059499963 -1 0 0
1778 6 71.148592857186 40.91396002751501 0.23816857059499963 -1 0 0
1782 8 75.730067486987 40.91396002751501 0.23816857059499963 -1 0 0
1786 6 80.311542116788 40.91396002751501 0.23816857059499963 -1 0 0
1790 8 84.893016746589 40.91396002751501 0.23816857059499963 -1 0 0
1794 6 89.47449137639 40.91396002751501 0.23816857059499963 -1 0 0
1798 8 94.055966006191 40.91396002751501 0.23816857059499963 -1 0 0
1802 6 98.637440635992 40.91396002751501 0.23816857059499963 -1 0 0
1807 3 0 43.187103411548 0 0 0 0
1811 1 4.581474629801001 43.187103411548 0 0 0 0
1815 3 9.162949259602001 43.187103411548 0 0 0 0
1819 1 13.744423889403002 43.187103411548 0 0 0 0
1823 3 18.325898519203996 43.187103411548 0 0 0 0
1827 1 22.907373149005004 43.187103411548 0 0 0 0
1831 3 27.488847778805997 43.187103411548 0 0 0 0
1835 1 32.070322408607005 43.187103411548 0 0 0 0
1839 3 36.651797038408 43.187103411548 0 0 0 0
1843 1 41.23327166820899 43.187103411548 0 0 0 0
1847 3 45.81474629801 43.187103411548 0 0 0 0
1763 1 50.396220927811 43.187103411548 0 -1 0 0
1767 3 54.977695557612 43.187103411548 0 -1 0 0
1771 1 59.559170187413 43.187103411548 0 -1 0 0
1775 3 64.140644817214 43.187103411548 0 -1 0 0
1779 1 68.722119447015 43.187103411548 0 -1 0 0
1783 3 73.303594076816 43.187103411548 0 -1 0 0
1787 1 77.885068706617 43.187103411548 0 -1 0 0
1791 3 82.466543336418 43.187103411548 0 -1 0 0
1795 1 87.04801796621899 43.187103411548 0 -1 0 0
1799 3 91.62949259602 43.187103411548 0 -1 0 0
1803 1 96.21096722582101 43.187103411548 0 -1 0 0
1894 8 2.426473410170999 45.459950788280004 0.23816857059499963 0 0 0
1898 6 7.007948039972 45.459950788280004 0.23816857059499963 0 0 0
1902 8 11.589422669773 45.459950788280004 0.23816857059499963 0 0 0
1906 6 16.170897299574 45.459950788280004 0.23816857059499963 0 0 0
1910 8 20.752371929374995 45.459950788280004 0.23816857059499963 0 0 0
1914 6 25.333846559176003 45.459950788280004 0.23816857059499963 0 0 0
1918 8 29.915321188976996 45.459950788280004 0.23816857059499963 0 0 0
1922 6 34.496795818778004 45.459950788280004 0.23816857059499963 0 0 0
1926 8 39.078270448579 45.459950788280004 0.23816857059499963 0 0 0
1930 6 43.659745078380006 45.459950788280004 0.23816857059499963 0 0 0
1934 8 48.241219708181 45.459950788280004 0.23816857059499963 0 0 0
1850 6 52.822694337982 45.459950788280004 0.23816857059499963 -1 0 0
1854 8 57.404168967783 45.459950788280004 0.23816857059499963 -1 0 0
1858 6 61.985643597584 45.459950788280004 0.23816857059499963 -1 0 0
1862 8 66.56711822738501 45.459950788280004 0.23816857059499963 -1 0 0
1866 6 71.148592857186 45.459950788280004 0.23816857059499963 -1 0 0
1870 8 75.730067486987 45.459950788280004 0.23816857059499963 -1 0 0
1874 6 80.311542116788 45.459950788280004 0.23816857059499963 -1 0 0
1878 8 84.893016746589 45.459950788280004 0.23816857059499963 -1 0 0
1882 6 89.47449137639 45.459950788280004 0.23816857059499963 -1 0 0
1886 8 94.055966006191 45.459950788280004 0.23816857059499963 -1 0 0
1890 6 98.637440635992 45.459950788280004 0.23816857059499963 -1 0 0
1895 3 0 47.73309417231301 0 0 0 0
1899 1 4.581474629801001 47.73309417231301 0 0 0 0
1903 3 9.162949259602001 47.73309417231301 0 0 0 0
1907 1 13.744423889403002 47.73309417231301 0 0 0 0
1911 3 18.325898519203996 47.73309417231301 0 0 0 0
1915 1 22.907373149005004 47.73309417231301 0 0 0 0
1919 3 27.488847778805997 47.73309417231301 0 0 0 0
1923 1 32.070322408607005 47.73309417231301 0 0 0 0
1927 3 36.651797038408 47.73309417231301 0 0 0 0
1931 1 41.23327166820899 47.73309417231301 0 0 0 0
1935 3 45.81474629801 47.73309417231301 0 0 0 0
1851 1 50.396220927811 47.73309417231301 0 -1 0 0
1855 3 54.977695557612 47.73309417231301 0 -1 0 0
1859 1 59.559170187413 47.73309417231301 0 -1 0 0
1863 3 64.140644817214 47.73309417231301 0 -1 0 0
1867 1 68.722119447015 47.73309417231301 0 -1 0 0
1871 3 73.303594076816 47.73309417231301 0 -1 0 0
1875 1 77.885068706617 47.73309417231301 0 -1 0 0
1879 3 82.466543336418 47.73309417231301 0 -1 0 0
1883 1 87.04801796621899 47.73309417231301 0 -1 0 0
1887 3 91.62949259602 47.73309417231301 0 -1 0 0
1891 1 96.21096722582101 47.73309417231301 0 -1 0 0
46 8 2.426473410170999 50.005941549045 0.23816857059499963 0 -1 0
50 6 7.007948039972 50.005941549045 0.23816857059499963 0 -1 0
54 8 11.589422669773 50.005941549045 0.23816857059499963 0 -1 0
58 6 16.170897299574 50.005941549045 0.23816857059499963 0 -1 0
62 8 20.752371929374995 50.005941549045 0.23816857059499963 0 -1 0
66 6 25.333846559176003 50.005941549045 0.23816857059499963 0 -1 0
70 8 29.915321188976996 50.005941549045 0.23816857059499963 0 -1 0
74 6 34.496795818778004 50.005941549045 0.23816857059499963 0 -1 0
78 8 39.078270448579 50.005941549045 0.23816857059499963 0 -1 0
82 6 43.659745078380006 50.005941549045 0.23816857059499963 0 -1 0
86 8 48.241219708181 50.005941549045 0.23816857059499963 0 -1 0
2 6 52.822694337982 50.005941549045 0.23816857059499963 -1 -1 0
6 8 57.404168967783 50.005941549045 0.23816857059499963 -1 -1 0
10 6 61.985643597584 50.005941549045 0.23816857059499963 -1 -1 0
14 8 66.56711822738501 50.005941549045 0.23816857059499963 -1 -1 0
18 6 71.148592857186 50.005941549045 0.23816857059499963 -1 -1 0