LAMMPS data file via write_data, version 2 Aug 2023, timestep = 28, units = metal

10368 atoms
36 atom types

0 101.890126869904 xlo xhi
0 99.26936804718 ylo yhi
-50 50 zlo zhi

Masses

1 95.95
2 95.95
3 95.95
4 95.95
5 95.95
6 95.95
7 95.95
8 95.95
9 95.95
10 95.95
11 95.95
12 95.95
13 32.06
14 32.06
15 32.06
16 32.06
17 32.06
18 32.06
19 32.06
20 32.06
21 32.06
22 32.06
23 32.06
24 32.06
25 32.06
26 32.06
27 32.06
28 32.06
29 32.06
30 32.06
31 32.06
32 32.06
33 32.06
34 32.06
35 32.06
36 32.06

Atoms # atomic

1748 16 1.5920332323427089 0.9191608152516179 -1.077286785123849 0 0 0
1744 18 3.184066464684872 3.6766432610065514 -1.077286785123619 0 0 0
1750 14 4.776099697026242 0.9191608152520827 -1.0772867851225534 0 0 0
1772 16 7.9601661617116015 0.9191608152515347 -1.0772867851240167 0 0 0
1761 20 6.368132929368416 3.676643261007049 -1.0772867851227486 0 0 0
1774 14 11.14423262639533 0.9191608152521217 -1.077286785122425 0 0 0
1768 18 9.552199394053995 3.676643261006595 -1.077286785123745 0 0 0
1785 20 12.736265858737358 3.676643261007055 -1.0772867851226864 0 0 0
1796 16 14.328299091080577 0.9191608152515183 -1.0772867851238666 0 0 0
1792 18 15.920332323422995 3.6766432610065625 -1.077286785123735 0 0 0
1798 14 17.512365555764287 0.9191608152521424 -1.0772867851225592 0 0 0
1820 16 20.696432020449645 0.9191608152514941 -1.0772867851239938 0 0 0
1809 20 19.104398788106383 3.6766432610070434 -1.0772867851226273 0 0 0
1822 14 23.880498485133263 0.9191608152521135 -1.077286785122531 0 0 0
1816 18 22.288465252791962 3.6766432610065345 -1.0772867851238004 0 0 0
1833 20 25.472531717475455 3.676643261007031 -1.0772867851225925 0 0 0
1844 16 27.06456494981853 0.9191608152515881 -1.077286785124066 0 0 0
1840 18 28.65659818216097 3.6766432610065314 -1.0772867851237014 0 0 0
1846 14 30.248631414502356 0.9191608152522118 -1.0772867851226275 0 0 0
1868 16 33.43269787918761 0.9191608152515325 -1.0772867851238925 0 0 0
1857 20 31.840664646844406 3.6766432610070017 -1.0772867851226406 0 0 0
1870 14 36.6167643438712 0.91916081525218 -1.077286785122663 0 0 0
1864 18 35.02473111152999 3.676643261006571 -1.0772867851237018 0 0 0
1881 20 38.20879757621339 3.676643261006987 -1.0772867851227184 0 0 0
1892 16 39.80083080855673 0.9191608152515288 -1.0772867851239714 0 0 0
1888 18 41.39286404089901 3.676643261006597 -1.0772867851236019 0 0 0
1894 14 42.98489727324015 0.9191608152521407 -1.0772867851224925 0 0 0
1916 16 46.16896373792567 0.9191608152515519 -1.077286785124114 0 0 0
1905 20 44.5769305055824 3.6766432610070168 -1.077286785122638 0 0 0
1918 14 49.35303020260923 0.9191608152521543 -1.0772867851226036 0 0 0
1912 18 47.76099697026794 3.676643261006539 -1.077286785123645 0 0 0
1545 20 50.94506343495142 3.6766432610070154 -1.077286785122602 -1 0 0
1556 16 52.53709666729464 0.9191608152515321 -1.0772867851239298 -1 0 0
1552 18 54.12912989963698 3.676643261006584 -1.0772867851236743 -1 0 0
1558 14 55.721163131978166 0.9191608152521539 -1.0772867851225183 -1 0 0
1580 16 58.90522959666355 0.9191608152515678 -1.0772867851241419 -1 0 0
1569 20 57.31319636432038 3.6766432610070576 -1.0772867851226477 -1 0 0
1582 14 62.089296061347326 0.9191608152522533 -1.0772867851225199 -1 0 0
1576 18 60.49726282900607 3.676643261006532 -1.0772867851235792 -1 0 0
1593 20 63.681329293689316 3.6766432610069772 -1.0772867851226147 -1 0 0
1604 16 65.27336252603257 0.9191608152514956 -1.0772867851240737 -1 0 0
1600 18 66.8653957583751 3.676643261006607 -1.0772867851236068 -1 0 0
1606 14 68.45742899071614 0.9191608152522063 -1.0772867851226486 -1 0 0
1628 16 71.64149545540178 0.9191608152514854 -1.0772867851239085 -1 0 0
1617 20 70.04946222305836 3.676643261006966 -1.0772867851227406 -1 0 0
1630 14 74.82556192008508 0.9191608152520873 -1.0772867851226133 -1 0 0
1624 18 73.233528687744 3.6766432610065976 -1.077286785123752 -1 0 0
1641 20 76.41759515242742 3.6766432610069995 -1.0772867851226686 -1 0 0
1652 16 78.0096283847707 0.9191608152516165 -1.0772867851240004 -1 0 0
1648 18 79.60166161711295 3.6766432610065825 -1.0772867851233154 -1 0 0
1654 14 81.19369484945413 0.919160815252239 -1.077286785122577 -1 0 0
1676 16 84.3777613141398 0.9191608152515042 -1.0772867851240762 -1 0 0
1665 20 82.78572808179634 3.6766432610068924 -1.0772867851228745 -1 0 0
1678 14 87.56182777882326 0.9191608152520861 -1.0772867851223293 -1 0 0
1672 18 85.96979454648204 3.676643261006621 -1.0772867851237031 -1 0 0
1689 20 89.15386101116543 3.6766432610070097 -1.0772867851225463 -1 0 0
1700 16 90.74589424350859 0.9191608152515438 -1.0772867851241015 -1 0 0
1696 18 92.33792747585103 3.676643261006541 -1.07728678512364 -1 0 0
1702 14 93.92996070819234 0.9191608152522132 -1.0772867851226275 -1 0 0
1724 16 97.11402717287764 0.9191608152514882 -1.077286785123991 -1 0 0
1713 20 95.5219939405344 3.676643261006973 -1.0772867851227124 -1 0 0
1737 20 101.8901268699035 3.676643261006985 -1.0772867851227228 -1 0 0
1726 14 100.29809363756118 0.9191608152520653 -1.0772867851227927 -1 0 0
1720 18 98.70606040521999 3.676643261006726 -1.077286785123635 -1 0 0
2133 14 1.5920332323417592 6.4341257067621065 -1.0772867851225403 0 0 0
2131 16 4.776099697026927 6.434125706761509 -1.0772867851239365 0 0 0
2157 14 7.960166161710731 6.434125706762134 -1.0772867851224666 0 0 0
2155 16 11.144232626395894 6.434125706761478 -1.0772867851240164 0 0 0
2181 14 14.328299091079725 6.43412570676214 -1.0772867851225065 0 0 0
2179 16 17.51236555576492 6.434125706761505 -1.0772867851239747 0 0 0
2205 14 20.696432020448707 6.434125706762139 -1.0772867851225094 0 0 0
2203 16 23.880498485133938 6.4341257067615185 -1.0772867851239418 0 0 0
2229 14 27.064564949817715 6.434125706762095 -1.077286785122557 0 0 0
2227 16 30.248631414502928 6.434125706761551 -1.077286785123993 0 0 0
2253 14 33.43269787918673 6.434125706762145 -1.077286785122504 0 0 0
2251 16 36.61676434387184 6.434125706761528 -1.0772867851240282 0 0 0
2277 14 39.8008308085558 6.4341257067620985 -1.0772867851225336 0 0 0
2275 16 42.98489727324088 6.4341257067615265 -1.0772867851238788 0 0 0
2301 14 46.16896373792478 6.4341257067621065 -1.0772867851226333 0 0 0
2299 16 49.35303020260988 6.434125706761575 -1.0772867851238386 0 0 0
1941 14 52.53709666729374 6.434125706762055 -1.077286785122623 -1 0 0
1939 16 55.721163131978905 6.434125706761472 -1.0772867851238832 -1 0 0
1965 14 58.90522959666268 6.434125706762125 -1.0772867851224874 -1 0 0
1963 16 62.0892960613479 6.434125706761518 -1.0772867851241446 -1 0 0
1989 14 65.27336252603178 6.434125706762212 -1.0772867851223045 -1 0 0
1987 16 68.4574289907168 6.4341257067613835 -1.0772867851242118 -1 0 0
2013 14 71.64149545540077 6.434125706762247 -1.077286785122256 -1 0 0
2011 16 74.82556192008589 6.43412570676144 -1.0772867851240864 -1 0 0
2037 14 78.00962838476977 6.4341257067621145 -1.0772867851224757 -1 0 0
2035 16 81.19369484945473 6.43412570676156 -1.0772867851240402 -1 0 0
2061 14 84.37776131413885 6.434125706762163 -1.0772867851226362 -1 0 0
2059 16 87.56182777882385 6.434125706761469 -1.0772867851237875 -1 0 0
2085 14 90.74589424350772 6.4341257067621305 -1.0772867851226025 -1 0 0
2083 16 93.92996070819288 6.434125706761568 -1.07728678512408 -1 0 0
2109 14 97.11402717287694 6.434125706762172 -1.0772867851223924 -1 0 0
2107 16 100.29809363756183 6.434125706761471 -1.0772867851239207 -1 0 0
2127 18 3.399752002725237e-13 9.1916081525166 -1.077286785123901 0 0 0
2118 20 3.18406646468375 9.191608152517066 -1.077286785122638 0 0 0
2132 16 1.592033232342588 11.949090598271493 -1.0772867851238557 0 0 0
2151 18 6.368132929369372 9.191608152516556 -1.0772867851237258 0 0 0
2134 14 4.7760996970263445 11.94909059827206 -1.0772867851224772 0 0 0
2156 16 7.96016616171157 11.94909059827146 -1.077286785123973 0 0 0
2142 20 9.552199394052707 9.19160815251706 -1.0772867851226715 0 0 0
2158 14 11.14423262639534 11.949090598272093 -1.0772867851224353 0 0 0
2175 18 12.736265858738394 9.191608152516585 -1.0772867851237642 0 0 0
2166 20 15.920332323421722 9.191608152517047 -1.0772867851226908 0 0 0
2180 16 14.328299091080554 11.949090598271468 -1.0772867851239418 0 0 0
2199 18 19.104398788107368 9.191608152516583 -1.0772867851237382 0 0 0
2182 14 17.51236555576435 11.949090598272125 -1.0772867851224635 0 0 0
2204 16 20.69643202044952 11.949090598271473 -1.0772867851239556 0 0 0
2190 20 22.28846525279074 9.191608152517038 -1.077286785122653 0 0 0
2206 14 23.88049848513335 11.949090598272102 -1.0772867851224937 0 0 0
2223 18 25.472531717476357 9.191608152516586 -1.0772867851237535 0 0 0
2214 20 28.65659818215979 9.191608152517038 -1.077286785122611 0 0 0
2228 16 27.064564949818575 11.949090598271484 -1.0772867851239238 0 0 0
2247 18 31.84066464684533 9.19160815251654 -1.0772867851236978 0 0 0
2230 14 30.24863141450231 11.949090598272141 -1.0772867851225065 0 0 0
2252 16 33.43269787918754 11.94909059827152 -1.0772867851240175 0 0 0
2238 20 35.024731111528766 9.191608152517002 -1.0772867851227124 0 0 0
2254 14 36.61676434387148 11.949090598272074 -1.07728678512244 0 0 0
2271 18 38.20879757621433 9.191608152516658 -1.0772867851236632 0 0 0
2262 20 41.39286404089776 9.191608152517022 -1.0772867851227683 0 0 0
2276 16 39.80083080855649 11.949090598271498 -1.0772867851238965 0 0 0
2295 18 44.57693050558329 9.19160815251656 -1.077286785123759 0 0 0
2278 14 42.98489727324037 11.949090598272118 -1.0772867851225232 0 0 0
2300 16 46.16896373792556 11.949090598271528 -1.077286785123924 0 0 0
2286 20 47.76099697026681 9.191608152517036 -1.0772867851226948 0 0 0
2302 14 49.35303020260938 11.949090598272084 -1.0772867851225518 0 0 0
1935 18 50.94506343495221 9.191608152516602 -1.077286785123733 -1 0 0
1926 20 54.12912989963581 9.191608152517068 -1.0772867851228414 -1 0 0
1940 16 52.537096667294506 11.949090598271507 -1.0772867851238308 -1 0 0
1959 18 57.31319636432137 9.191608152516594 -1.077286785123695 -1 0 0
1942 14 55.72116313197838 11.949090598272097 -1.0772867851224799 -1 0 0
1964 16 58.90522959666354 11.949090598271454 -1.077286785123896 -1 0 0
1950 20 60.49726282900472 9.191608152517059 -1.0772867851227539 -1 0 0
1966 14 62.08929606134735 11.949090598272125 -1.0772867851224541 -1 0 0
1983 18 63.68132929369048 9.19160815251654 -1.077286785123633 -1 0 0
1974 20 66.86539575837355 9.19160815251708 -1.0772867851227321 -1 0 0
1988 16 65.27336252603257 11.949090598271455 -1.0772867851239714 -1 0 0
2007 18 70.04946222305954 9.191608152516572 -1.077286785123876 -1 0 0
1990 14 68.45742899071631 11.949090598272145 -1.0772867851224472 -1 0 0
2012 16 71.64149545540158 11.949090598271583 -1.0772867851239554 -1 0 0
1998 20 73.23352868774262 9.191608152517032 -1.0772867851224814 -1 0 0
2014 14 74.82556192008525 11.949090598272132 -1.0772867851225945 -1 0 0
2031 18 76.41759515242848 9.191608152516535 -1.077286785124039 -1 0 0
2022 20 79.60166161711177 9.191608152517013 -1.0772867851226309 -1 0 0
2036 16 78.00962838477058 11.949090598271587 -1.0772867851239927 -1 0 0
2055 18 82.78572808179734 9.191608152516586 -1.0772867851235195 -1 0 0
2038 14 81.19369484945443 11.949090598272068 -1.0772867851223946 -1 0 0
2060 16 84.37776131413943 11.949090598271484 -1.0772867851240449 -1 0 0
2046 20 85.96979454648074 9.191608152516961 -1.0772867851227772 -1 0 0
2062 14 87.56182777882348 11.949090598272182 -1.0772867851223904 -1 0 0
2079 18 89.15386101116628 9.191608152516654 -1.0772867851237746 -1 0 0
2070 20 92.33792747584971 9.191608152517032 -1.0772867851227614 -1 0 0
2084 16 90.74589424350859 11.949090598271445 -1.0772867851239376 -1 0 0
2103 18 95.52199394053532 9.19160815251656 -1.0772867851236285 -1 0 0
2086 14 93.9299607081924 11.949090598272143 -1.077286785122512 -1 0 0
2108 16 97.11402717287763 11.949090598271525 -1.0772867851238923 -1 0 0
2094 20 98.70606040521858 9.191608152517022 -1.0772867851226637 -1 0 0
2110 14 100.29809363756131 11.949090598272072 -1.0772867851225691 -1 0 0
2128 18 3.1840664646849763 14.706573044026614 -1.0772867851237324 0 0 0
2145 20 6.368132929368396 14.70657304402709 -1.0772867851228056 0 0 0
2152 18 9.552199394053995 14.706573044026609 -1.0772867851237857 0 0 0
2169 20 12.736265858737362 14.706573044027062 -1.0772867851227117 0 0 0
2176 18 15.920332323423006 14.70657304402659 -1.0772867851237546 0 0 0
2193 20 19.10439878810637 14.706573044027051 -1.077286785122697 0 0 0
2200 18 22.28846525279198 14.70657304402661 -1.0772867851237808 0 0 0
2217 20 25.472531717475388 14.706573044027083 -1.0772867851227481 0 0 0
2224 18 28.656598182161027 14.706573044026626 -1.077286785123771 0 0 0
2241 20 31.840664646844385 14.706573044027035 -1.0772867851226988 0 0 0
2248 18 35.024731111529974 14.706573044026667 -1.077286785123631 0 0 0
2265 20 38.20879757621339 14.70657304402697 -1.0772867851228876 0 0 0
2272 18 41.392864040898985 14.706573044026623 -1.0772867851236565 0 0 0
2289 20 44.57693050558242 14.706573044027 -1.0772867851226904 0 0 0
2296 18 47.76099697026797 14.706573044026564 -1.0772867851237982 0 0 0
1929 20 50.94506343495141 14.706573044027083 -1.0772867851226506 -1 0 0
1936 18 54.129129899636915 14.706573044026559 -1.0772867851238037 -1 0 0
1953 20 57.31319636432035 14.706573044027106 -1.077286785122687 -1 0 0
1960 18 60.49726282900601 14.706573044026541 -1.0772867851237478 -1 0 0
1977 20 63.68132929368934 14.706573044027017 -1.0772867851227208 -1 0 0
1984 18 66.86539575837503 14.706573044026591 -1.0772867851237218 -1 0 0
2001 20 70.0494622230584 14.70657304402704 -1.0772867851226202 -1 0 0
2008 18 73.23352868774397 14.706573044026463 -1.0772867851239047 -1 0 0
2025 20 76.41759515242744 14.70657304402714 -1.0772867851224421 -1 0 0
2032 18 79.60166161711287 14.706573044026493 -1.077286785123652 -1 0 0
2049 20 82.78572808179632 14.706573044027047 -1.0772867851228995 -1 0 0
2056 18 85.96979454648206 14.706573044026591 -1.0772867851236876 -1 0 0
2073 20 89.15386101116525 14.706573044027051 -1.0772867851226413 -1 0 0
2080 18 92.33792747585103 14.706573044026566 -1.0772867851237728 -1 0 0
2097 20 95.52199394053437 14.706573044027024 -1.0772867851225618 -1 0 0
2121 20 101.89012686990341 14.70657304402712 -1.0772867851225707 -1 0 0
2104 18 98.70606040521992 14.706573044026554 -1.0772867851239858 -1 0 0
2517 14 1.5920332323416881 17.46405548978205 -1.077286785122433 0 0 0
2511 18 3.1213331818544166e-13 20.221537935536567 -1.077286785123919 0 0 0
2502 20 3.1840664646838075 20.221537935537075 -1.0772867851227537 0 0 0
2515 16 4.776099697026918 17.464055489781494 -1.0772867851238956 0 0 0
2541 14 7.960166161710733 17.464055489782112 -1.0772867851224395 0 0 0
2535 18 6.368132929369352 20.22153793553656 -1.077286785123752 0 0 0
2539 16 11.144232626395915 17.464055489781476 -1.0772867851238805 0 0 0
2526 20 9.552199394052721 20.22153793553702 -1.0772867851226984 0 0 0
2565 14 14.328299091079723 17.464055489782055 -1.0772867851224814 0 0 0
2559 18 12.736265858738339 20.221537935536638 -1.077286785123742 0 0 0
2550 20 15.920332323421777 20.221537935537043 -1.0772867851227772 0 0 0
2563 16 17.51236555576492 17.464055489781476 -1.0772867851239116 0 0 0
2589 14 20.696432020448736 17.46405548978212 -1.077286785122428 0 0 0
2583 18 19.104398788107375 20.221537935536606 -1.0772867851237569 0 0 0
2587 16 23.880498485133916 17.46405548978145 -1.0772867851239216 0 0 0
2574 20 22.28846525279072 20.221537935537047 -1.0772867851227539 0 0 0
2613 14 27.064564949817733 17.4640554897821 -1.0772867851224315 0 0 0
2607 18 25.47253171747638 20.221537935536613 -1.0772867851237653 0 0 0
2598 20 28.656598182159755 20.22153793553707 -1.077286785122665 0 0 0
2611 16 30.248631414502906 17.464055489781487 -1.0772867851239727 0 0 0
2637 14 33.432697879186755 17.46405548978207 -1.0772867851224222 0 0 0
2631 18 31.840664646845344 20.221537935536592 -1.0772867851238408 0 0 0
2635 16 36.61676434387182 17.464055489781508 -1.077286785123965 0 0 0
2622 20 35.024731111528766 20.221537935537043 -1.0772867851227657 0 0 0
2661 14 39.80083080855583 17.464055489782158 -1.0772867851224364 0 0 0
2655 18 38.20879757621439 20.22153793553658 -1.0772867851235923 0 0 0
2646 20 41.392864040897706 20.221537935537018 -1.0772867851227848 0 0 0
2659 16 42.98489727324088 17.464055489781448 -1.0772867851240107 0 0 0
2685 14 46.168963737924706 17.464055489782172 -1.077286785122539 0 0 0
2679 18 44.57693050558341 20.221537935536595 -1.0772867851237917 0 0 0
2683 16 49.35303020260995 17.464055489781508 -1.0772867851238461 0 0 0
2670 20 47.76099697026678 20.22153793553699 -1.0772867851226058 0 0 0
2325 14 52.537096667293696 17.46405548978207 -1.077286785122592 -1 0 0
2319 18 50.9450634349523 20.221537935536603 -1.077286785123737 -1 0 0
2310 20 54.12912989963582 20.221537935537025 -1.0772867851228043 -1 0 0
2323 16 55.721163131978976 17.464055489781533 -1.0772867851239387 -1 0 0
2349 14 58.90522959666265 17.464055489782154 -1.0772867851223966 -1 0 0
2343 18 57.31319636432132 20.221537935536592 -1.0772867851235932 -1 0 0
2347 16 62.08929606134793 17.464055489781455 -1.0772867851240608 -1 0 0
2334 20 60.49726282900464 20.22153793553704 -1.077286785122827 -1 0 0
2373 14 65.27336252603176 17.464055489782215 -1.0772867851223165 -1 0 0
2367 18 63.68132929369052 20.221537935536585 -1.0772867851235688 -1 0 0
2358 20 66.8653957583736 20.221537935536993 -1.0772867851228076 -1 0 0
2371 16 68.45742899071702 17.464055489781384 -1.077286785124097 -1 0 0
2397 14 71.64149545540064 17.464055489782233 -1.077286785122486 -1 0 0
2391 18 70.0494622230595 20.22153793553663 -1.07728678512367 -1 0 0
2395 16 74.82556192008599 17.46405548978146 -1.077286785124072 -1 0 0
2382 20 73.23352868774262 20.22153793553704 -1.0772867851225754 -1 0 0
2421 14 78.00962838476964 17.464055489782105 -1.0772867851223573 -1 0 0
2415 18 76.41759515242836 20.221537935536496 -1.077286785123967 -1 0 0
2406 20 79.6016616171117 20.22153793553703 -1.0772867851227599 -1 0 0
2419 16 81.19369484945494 17.464055489781526 -1.0772867851240622 -1 0 0
2445 14 84.3777613141388 17.464055489782144 -1.0772867851224848 -1 0 0
2439 18 82.78572808179737 20.221537935536617 -1.077286785123482 -1 0 0
2443 16 87.56182777882385 17.464055489781536 -1.0772867851239003 -1 0 0
2430 20 85.96979454648071 20.22153793553689 -1.0772867851228085 -1 0 0
2469 14 90.74589424350765 17.464055489782126 -1.0772867851225274 -1 0 0
2463 18 89.15386101116631 20.221537935536606 -1.0772867851236785 -1 0 0
2454 20 92.33792747584968 20.221537935537068 -1.0772867851227668 -1 0 0
2467 16 93.929960708193 17.46405548978147 -1.0772867851240047 -1 0 0
2493 14 97.11402717287666 17.464055489782186 -1.0772867851224237 -1 0 0
2487 18 95.52199394053545 20.221537935536574 -1.0772867851237675 -1 0 0
2491 16 100.29809363756205 17.464055489781483 -1.077286785123956 -1 0 0
2478 20 98.70606040521874 20.22153793553703 -1.0772867851225374 -1 0 0
2516 16 1.5920332323425606 22.97902038129159 -1.077286785123858 0 0 0
2512 18 3.184066464684948 25.73650282704648 -1.07728678512365 0 0 0
2518 14 4.7760996970263685 22.97902038129215 -1.0772867851224552 0 0 0
2540 16 7.960166161711522 22.97902038129151 -1.0772867851240293 0 0 0
2529 20 6.368132929368362 25.736502827047023 -1.0772867851227028 0 0 0
2542 14 11.144232626395393 22.979020381292116 -1.0772867851224843 0 0 0
2536 18 9.552199394054004 25.73650282704663 -1.0772867851237014 0 0 0
2553 20 12.73626585873738 25.736502827046994 -1.0772867851227337 0 0 0
2564 16 14.328299091080519 22.97902038129151 -1.077286785123893 0 0 0
2560 18 15.920332323422999 25.736502827046568 -1.077286785123702 0 0 0
2566 14 17.512365555764358 22.979020381292116 -1.077286785122466 0 0 0
2588 16 20.696432020449524 22.97902038129149 -1.0772867851239067 0 0 0
2577 20 19.104398788106366 25.736502827047026 -1.077286785122694 0 0 0
2590 14 23.880498485133362 22.97902038129208 -1.0772867851224976 0 0 0
2584 18 22.288465252791976 25.736502827046582 -1.077286785123752 0 0 0
2601 20 25.472531717475366 25.73650282704709 -1.0772867851227825 0 0 0
2612 16 27.064564949818546 22.979020381291434 -1.0772867851239296 0 0 0
2608 18 28.656598182161027 25.736502827046603 -1.0772867851238068 0 0 0
2614 14 30.248631414502345 22.979020381292106 -1.0772867851223873 0 0 0
2636 16 33.432697879187536 22.979020381291463 -1.077286785123968 0 0 0
2625 20 31.840664646844367 25.73650282704705 -1.0772867851227088 0 0 0
2638 14 36.616764343871395 22.979020381292088 -1.077286785122478 0 0 0
2632 18 35.024731111529974 25.736502827046657 -1.0772867851236778 0 0 0
2649 20 38.20879757621343 25.736502827046966 -1.0772867851228505 0 0 0
2660 16 39.80083080855649 22.979020381291527 -1.0772867851239227 0 0 0
2656 18 41.39286404089902 25.736502827046586 -1.0772867851235972 0 0 0
2662 14 42.98489727324038 22.979020381292187 -1.077286785122472 0 0 0
2684 16 46.16896373792551 22.979020381291516 -1.0772867851239174 0 0 0
2673 20 44.57693050558241 25.736502827046955 -1.0772867851227241 0 0 0
2686 14 49.35303020260939 22.979020381292106 -1.077286785122565 0 0 0
2680 18 47.76099697026793 25.73650282704661 -1.0772867851237367 0 0 0
2313 20 50.94506343495146 25.736502827047076 -1.0772867851226178 -1 0 0
2324 16 52.537096667294506 22.979020381291548 -1.077286785123887 -1 0 0
2320 18 54.12912989963692 25.736502827046532 -1.0772867851237613 -1 0 0
2326 14 55.72116313197837 22.979020381292088 -1.0772867851225247 -1 0 0
2348 16 58.905229596663474 22.97902038129147 -1.0772867851239472 -1 0 0
2337 20 57.313196364320376 25.73650282704709 -1.0772867851227257 -1 0 0
2350 14 62.08929606134742 22.979020381292155 -1.0772867851224344 -1 0 0
2344 18 60.497262829006054 25.73650282704659 -1.0772867851236907 -1 0 0
2361 20 63.68132929368927 25.736502827047016 -1.0772867851227106 -1 0 0
2372 16 65.27336252603254 22.97902038129148 -1.0772867851240169 -1 0 0
2368 18 66.865395758375 25.73650282704657 -1.0772867851236352 -1 0 0
2374 14 68.45742899071642 22.97902038129218 -1.0772867851224774 -1 0 0
2396 16 71.6414954554016 22.979020381291413 -1.0772867851239463 -1 0 0
2385 20 70.04946222305833 25.736502827046973 -1.077286785122802 -1 0 0
2398 14 74.82556192008533 22.979020381292145 -1.077286785122539 -1 0 0
2392 18 73.23352868774414 25.73650282704671 -1.0772867851237145 -1 0 0
2409 20 76.4175951524274 25.736502827046927 -1.077286785122617 -1 0 0
2420 16 78.00962838477052 22.979020381291637 -1.0772867851239623 -1 0 0
2416 18 79.60166161711288 25.73650282704661 -1.0772867851236567 -1 0 0
2422 14 81.19369484945443 22.979020381291985 -1.0772867851224641 -1 0 0
2444 16 84.37776131413939 22.97902038129152 -1.0772867851239794 -1 0 0
2433 20 82.7857280817964 25.73650282704704 -1.0772867851228274 -1 0 0
2446 14 87.56182777882351 22.979020381292205 -1.0772867851225914 -1 0 0
2440 18 85.96979454648192 25.73650282704652 -1.0772867851236807 -1 0 0
2457 20 89.15386101116528 25.736502827047076 -1.0772867851225172 -1 0 0
2468 16 90.74589424350856 22.97902038129148 -1.0772867851239096 -1 0 0
2464 18 92.33792747585096 25.736502827046465 -1.0772867851238999 -1 0 0
2470 14 93.92996070819241 22.97902038129213 -1.0772867851224013 -1 0 0
2492 16 97.11402717287758 22.979020381291544 -1.0772867851239012 -1 0 0
2481 20 95.52199394053439 25.736502827047087 -1.0772867851224956 -1 0 0
2505 20 101.89012686990341 25.736502827047016 -1.07728678512253 -1 0 0
2494 14 100.29809363756128 22.97902038129212 -1.077286785122635 -1 0 0
2488 18 98.70606040521989 25.736502827046465 -1.0772867851239818 -1 0 0
2901 14 1.5920332323416615 28.493985272802114 -1.0772867851225516 0 0 0
2899 16 4.776099697026977 28.493985272801545 -1.0772867851240755 0 0 0
2925 14 7.960166161710745 28.493985272802107 -1.0772867851224623 0 0 0
2923 16 11.144232626395862 28.493985272801496 -1.0772867851239112 0 0 0
2949 14 14.328299091079744 28.49398527280212 -1.0772867851225507 0 0 0
2947 16 17.512365555764926 28.493985272801492 -1.0772867851239787 0 0 0
2973 14 20.696432020448746 28.493985272802135 -1.0772867851224779 0 0 0
2971 16 23.880498485133913 28.493985272801485 -1.0772867851238996 0 0 0
2997 14 27.06456494981773 28.49398527280214 -1.0772867851223908 0 0 0
2995 16 30.248631414502924 28.49398527280148 -1.0772867851239667 0 0 0
3021 14 33.43269787918679 28.493985272802075 -1.0772867851223757 0 0 0
3019 16 36.61676434387182 28.493985272801496 -1.077286785123969 0 0 0
3045 14 39.800830808555816 28.493985272802142 -1.077286785122516 0 0 0
3043 16 42.98489727324082 28.493985272801552 -1.0772867851240073 0 0 0
3069 14 46.1689637379248 28.493985272802167 -1.0772867851226373 0 0 0
3067 16 49.35303020260991 28.493985272801467 -1.0772867851238457 0 0 0
2709 14 52.537096667293696 28.493985272802064 -1.0772867851225936 -1 0 0
2707 16 55.72116313197895 28.49398527280154 -1.0772867851239332 -1 0 0
2733 14 58.905229596662736 28.493985272802167 -1.0772867851224257 -1 0 0
2731 16 62.089296061347866 28.493985272801496 -1.0772867851240937 -1 0 0
2757 14 65.2733625260318 28.49398527280218 -1.077286785122336 -1 0 0
2755 16 68.45742899071683 28.49398527280142 -1.0772867851241361 -1 0 0
2781 14 71.64149545540086 28.49398527280212 -1.0772867851223251 -1 0 0
2779 16 74.82556192008579 28.4939852728015 -1.077286785124047 -1 0 0
2805 14 78.00962838476978 28.493985272802142 -1.077286785122498 -1 0 0
2803 16 81.19369484945494 28.493985272801442 -1.0772867851240222 -1 0 0
2829 14 84.3777613141387 28.49398527280218 -1.0772867851224748 -1 0 0
2827 16 87.56182777882394 28.493985272801417 -1.0772867851240149 -1 0 0
2853 14 90.74589424350759 28.493985272802156 -1.0772867851224388 -1 0 0
2851 16 93.92996070819314 28.493985272801485 -1.0772867851240804 -1 0 0
2877 14 97.11402717287676 28.493985272802213 -1.0772867851224277 -1 0 0
2875 16 100.29809363756209 28.493985272801527 -1.0772867851240702 -1 0 0
2895 18 3.26131079479456e-13 31.251467718556583 -1.0772867851238048 0 0 0
2886 20 3.184066464683756 31.251467718557038 -1.077286785122581 0 0 0
2900 16 1.5920332323425914 34.00895016431152 -1.0772867851239134 0 0 0
2919 18 6.368132929369348 31.251467718556558 -1.077286785123756 0 0 0
2902 14 4.7760996970263205 34.008950164312125 -1.0772867851224373 0 0 0
2924 16 7.9601661617115615 34.00895016431149 -1.0772867851239951 0 0 0
2910 20 9.552199394052762 31.251467718557013 -1.0772867851226955 0 0 0
2926 14 11.144232626395368 34.008950164312154 -1.0772867851224996 0 0 0
2943 18 12.736265858738344 31.25146771855664 -1.0772867851237093 0 0 0
2934 20 15.920332323421759 31.251467718557038 -1.0772867851227055 0 0 0
2948 16 14.328299091080531 34.008950164311436 -1.0772867851239014 0 0 0
2967 18 19.10439878810736 31.25146771855661 -1.0772867851237224 0 0 0
2950 14 17.512365555764358 34.008950164312076 -1.077286785122481 0 0 0
2972 16 20.696432020449514 34.00895016431147 -1.0772867851239374 0 0 0
2958 20 22.28846525279076 31.25146771855702 -1.0772867851226884 0 0 0
2974 14 23.88049848513332 34.008950164312196 -1.077286785122542 0 0 0
2991 18 25.472531717476375 31.251467718556537 -1.0772867851237335 0 0 0
2982 20 28.656598182159712 31.251467718556995 -1.0772867851226866 0 0 0
2996 16 27.06456494981858 34.00895016431157 -1.0772867851239978 0 0 0
3015 18 31.840664646845358 31.251467718556583 -1.0772867851237815 0 0 0
2998 14 30.24863141450236 34.00895016431217 -1.0772867851224965 0 0 0
3020 16 33.432697879187565 34.00895016431147 -1.0772867851239654 0 0 0
3006 20 35.02473111152876 31.251467718557045 -1.0772867851227232 0 0 0
3022 14 36.6167643438714 34.00895016431206 -1.0772867851224979 0 0 0
3039 18 38.2087975762144 31.251467718556626 -1.0772867851236387 0 0 0
3030 20 41.39286404089776 31.251467718557006 -1.0772867851226584 0 0 0
3044 16 39.80083080855654 34.008950164311486 -1.0772867851239532 0 0 0
3063 18 44.576930505583334 31.251467718556558 -1.0772867851236552 0 0 0
3046 14 42.984897273240406 34.008950164312125 -1.0772867851225028 0 0 0
3068 16 46.16896373792553 34.00895016431148 -1.0772867851238752 0 0 0
3054 20 47.760996970266795 31.251467718557016 -1.0772867851226806 0 0 0
3070 14 49.35303020260939 34.008950164312076 -1.0772867851225554 0 0 0
2703 18 50.94506343495236 31.251467718556626 -1.0772867851237642 -1 0 0
2694 20 54.129129899635835 31.251467718557052 -1.0772867851226804 -1 0 0
2708 16 52.53709666729453 34.00895016431149 -1.0772867851238292 -1 0 0
2727 18 57.31319636432138 31.251467718556544 -1.0772867851236718 -1 0 0
2710 14 55.72116313197831 34.008950164312175 -1.077286785122539 -1 0 0
2732 16 58.905229596663546 34.00895016431146 -1.0772867851240742 -1 0 0
2718 20 60.497262829004725 31.251467718557073 -1.077286785122717 -1 0 0
2734 14 62.08929606134731 34.00895016431218 -1.0772867851224144 -1 0 0
2751 18 63.68132929369045 31.2514677185565 -1.0772867851236854 -1 0 0
2742 20 66.86539575837361 31.25146771855715 -1.0772867851226617 -1 0 0
2756 16 65.27336252603254 34.008950164311344 -1.0772867851240238 -1 0 0
2775 18 70.04946222305948 31.25146771855658 -1.0772867851238261 -1 0 0
2758 14 68.45742899071628 34.00895016431212 -1.0772867851223802 -1 0 0
2780 16 71.64149545540167 34.00895016431143 -1.0772867851238568 -1 0 0
2766 20 73.23352868774273 31.25146771855706 -1.0772867851226176 -1 0 0
2782 14 74.82556192008528 34.008950164312076 -1.0772867851225767 -1 0 0
2799 18 76.4175951524284 31.25146771855654 -1.077286785123954 -1 0 0
2790 20 79.60166161711163 31.2514677185571 -1.0772867851226118 -1 0 0
2804 16 78.00962838477061 34.008950164311436 -1.077286785123918 -1 0 0
2823 18 82.78572808179744 31.251467718556533 -1.077286785123792 -1 0 0
2806 14 81.19369484945432 34.00895016431212 -1.0772867851223376 -1 0 0
2828 16 84.37776131413956 34.008950164311415 -1.077286785124 -1 0 0
2814 20 85.96979454648066 31.251467718557073 -1.0772867851226406 -1 0 0
2830 14 87.5618277788233 34.008950164312076 -1.0772867851223769 -1 0 0
2847 18 89.15386101116644 31.251467718556597 -1.0772867851237797 -1 0 0
2838 20 92.33792747584968 31.251467718557087 -1.0772867851225707 -1 0 0
2852 16 90.74589424350854 34.00895016431143 -1.0772867851239905 -1 0 0
2871 18 95.52199394053545 31.251467718556494 -1.077286785123721 -1 0 0
2854 14 93.92996070819227 34.00895016431214 -1.0772867851224026 -1 0 0
2876 16 97.11402717287761 34.008950164311486 -1.0772867851240309 -1 0 0