LAMMPS data file via write_data, version 2 Aug 2023, timestep = 28, units = metal

10368 atoms
36 atom types

0 101.890126869904 xlo xhi
0 99.26936804718 ylo yhi
-50 50 zlo zhi

Masses

1 95.95
2 95.95
3 95.95
4 95.95
5 95.95
6 95.95
7 95.95
8 95.95
9 95.95
10 95.95
11 95.95
12 95.95
13 32.06
14 32.06
15 32.06
16 32.06
17 32.06
18 32.06
19 32.06
20 32.06
21 32.06
22 32.06
23 32.06
24 32.06
25 32.06
26 32.06
27 32.06
28 32.06
29 32.06
30 32.06
31 32.06
32 32.06
33 32.06
34 32.06
35 32.06
36 32.06

Atoms # atomic

1746 16 1.592033232342688 0.919160815251588 -1.077286785127261 0 0 0
1734 18 3.184066464684927 3.67664326100656 -1.0772867851270307 0 0 0
1750 14 4.77609969702625 0.9191608152521139 -1.0772867851259544 0 0 0
1770 16 7.960166161711627 0.9191608152515712 -1.077286785127427 0 0 0
1772 20 6.368132929368423 3.67664326100697 -1.0772867851261405 0 0 0
1774 14 11.144232626395278 0.9191608152521594 -1.0772867851259424 0 0 0
1758 18 9.552199394054004 3.6766432610065145 -1.0772867851270718 0 0 0
1796 20 12.736265858737355 3.676643261006987 -1.0772867851260597 0 0 0
1794 16 14.328299091080646 0.9191608152515226 -1.0772867851274042 0 0 0
1782 18 15.920332323422974 3.6766432610065394 -1.0772867851271664 0 0 0
1798 14 17.51236555576423 0.9191608152521582 -1.0772867851259977 0 0 0
1818 16 20.69643202044968 0.9191608152515217 -1.0772867851274213 0 0 0
1820 20 19.104398788106366 3.6766432610070585 -1.0772867851260253 0 0 0
1822 14 23.88049848513326 0.9191608152521612 -1.0772867851259633 0 0 0
1806 18 22.288465252791983 3.676643261006545 -1.0772867851272654 0 0 0
1844 20 25.472531717475423 3.6766432610070616 -1.07728678512606 0 0 0
1842 16 27.06456494981857 0.9191608152515408 -1.077286785127556 0 0 0
1830 18 28.656598182160998 3.676643261006538 -1.0772867851271823 0 0 0
1846 14 30.24863141450236 0.9191608152521475 -1.077286785125924 0 0 0
1866 16 33.43269787918749 0.9191608152514833 -1.0772867851273438 0 0 0
1868 20 31.84066464684438 3.6766432610070328 -1.0772867851260468 0 0 0
1870 14 36.61676434387131 0.919160815252211 -1.077286785126034 0 0 0
1854 18 35.024731111530016 3.676643261006552 -1.0772867851271655 0 0 0
1892 20 38.20879757621336 3.676643261007001 -1.0772867851261552 0 0 0
1890 16 39.800830808556604 0.9191608152515344 -1.0772867851274435 0 0 0
1878 18 41.392864040899035 3.6766432610065776 -1.0772867851270806 0 0 0
1894 14 42.984897273240264 0.919160815252192 -1.0772867851259111 0 0 0
1914 16 46.16896373792561 0.9191608152515606 -1.077286785127496 0 0 0
1916 20 44.576930505582396 3.676643261006986 -1.0772867851260455 0 0 0
1918 14 49.35303020260932 0.919160815252154 -1.0772867851260515 0 0 0
1902 18 47.76099697026797 3.6766432610065616 -1.0772867851270969 0 0 0
1556 20 50.945063434951365 3.6766432610070314 -1.0772867851260342 -1 0 0
1554 16 52.53709666729462 0.9191608152514882 -1.0772867851273744 -1 0 0
1542 18 54.12912989963704 3.6766432610065234 -1.0772867851271253 -1 0 0
1558 14 55.72116313197825 0.9191608152521954 -1.0772867851258268 -1 0 0
1578 16 58.905229596663524 0.919160815251485 -1.0772867851275434 -1 0 0
1580 20 57.31319636432032 3.6766432610070177 -1.0772867851261567 -1 0 0
1582 14 62.08929606134731 0.919160815252169 -1.0772867851257972 -1 0 0
1566 18 60.49726282900609 3.6766432610065674 -1.0772867851270957 -1 0 0
1604 20 63.68132929368938 3.6766432610069755 -1.0772867851261663 -1 0 0
1602 16 65.27336252603251 0.9191608152515138 -1.0772867851275774 -1 0 0
1590 18 66.86539575837509 3.6766432610066198 -1.0772867851271213 -1 0 0
1606 14 68.45742899071641 0.9191608152521104 -1.0772867851259755 -1 0 0
1626 16 71.64149545540155 0.9191608152514328 -1.0772867851272263 -1 0 0
1628 20 70.04946222305833 3.676643261007009 -1.0772867851262815 -1 0 0
1630 14 74.82556192008528 0.9191608152521464 -1.0772867851260224 -1 0 0
1614 18 73.23352868774407 3.6766432610065714 -1.0772867851271806 -1 0 0
1652 20 76.41759515242744 3.6766432610069693 -1.0772867851260828 -1 0 0
1650 16 78.0096283847707 0.919160815251623 -1.0772867851274668 -1 0 0
1638 18 79.60166161711287 3.676643261006592 -1.0772867851269385 -1 0 0
1654 14 81.19369484945406 0.9191608152521963 -1.0772867851260315 -1 0 0
1674 16 84.37776131413972 0.9191608152515228 -1.0772867851274575 -1 0 0
1676 20 82.78572808179634 3.676643261006958 -1.0772867851263255 -1 0 0
1678 14 87.56182777882314 0.9191608152522187 -1.0772867851260832 -1 0 0
1662 18 85.969794546482 3.6766432610065674 -1.0772867851270247 -1 0 0
1700 20 89.15386101116543 3.6766432610070443 -1.0772867851259083 -1 0 0
1698 16 90.74589424350877 0.9191608152515791 -1.0772867851274983 -1 0 0
1686 18 92.33792747585102 3.676643261006443 -1.0772867851270775 -1 0 0
1702 14 93.92996070819227 0.9191608152521862 -1.077286785125861 -1 0 0
1722 16 97.11402717287748 0.9191608152516179 -1.0772867851278147 -1 0 0
1724 20 95.52199394053441 3.6766432610069137 -1.0772867851261907 -1 0 0
1748 20 101.89012686990337 3.676643261006907 -1.0772867851261116 -1 0 0
1726 14 100.29809363756138 0.9191608152522293 -1.0772867851263255 -1 0 0
1710 18 98.70606040521996 3.6766432610066913 -1.077286785126859 -1 0 0
2133 14 1.5920332323418034 6.4341257067621545 -1.0772867851260424 0 0 0
2129 16 4.776099697026901 6.434125706761552 -1.0772867851274093 0 0 0
2157 14 7.960166161710734 6.434125706762157 -1.0772867851260255 0 0 0
2153 16 11.144232626395915 6.434125706761516 -1.0772867851274317 0 0 0
2181 14 14.328299091079742 6.434125706762126 -1.0772867851260122 0 0 0
2177 16 17.51236555576496 6.434125706761495 -1.0772867851273666 0 0 0
2205 14 20.696432020448697 6.434125706762123 -1.0772867851259318 0 0 0
2201 16 23.88049848513396 6.434125706761514 -1.0772867851274115 0 0 0
2229 14 27.064564949817697 6.434125706762131 -1.0772867851259336 0 0 0
2225 16 30.24863141450296 6.434125706761489 -1.077286785127444 0 0 0
2253 14 33.4326978791867 6.434125706762136 -1.077286785125922 0 0 0
2249 16 36.61676434387189 6.434125706761528 -1.077286785127467 0 0 0
2277 14 39.80083080855576 6.4341257067620985 -1.0772867851259846 0 0 0
2273 16 42.984897273240875 6.434125706761564 -1.0772867851273256 0 0 0
2301 14 46.16896373792476 6.434125706762113 -1.0772867851261014 0 0 0
2297 16 49.35303020260994 6.434125706761569 -1.0772867851272492 0 0 0
1941 14 52.537096667293675 6.434125706762094 -1.0772867851260985 -1 0 0
1937 16 55.72116313197888 6.434125706761549 -1.0772867851274375 -1 0 0
1965 14 58.90522959666274 6.434125706762152 -1.0772867851258465 -1 0 0
1961 16 62.08929606134785 6.434125706761447 -1.0772867851274779 -1 0 0
1989 14 65.2733625260318 6.434125706762218 -1.0772867851257315 -1 0 0
1985 16 68.45742899071678 6.434125706761401 -1.0772867851275558 -1 0 0
2013 14 71.64149545540074 6.434125706762236 -1.077286785125794 -1 0 0
2009 16 74.82556192008593 6.434125706761454 -1.0772867851274681 -1 0 0
2037 14 78.00962838476981 6.434125706762081 -1.0772867851259356 -1 0 0
2033 16 81.1936948494548 6.434125706761555 -1.0772867851273784 -1 0 0
2061 14 84.37776131413891 6.434125706762181 -1.077286785126026 -1 0 0
2057 16 87.56182777882391 6.434125706761395 -1.0772867851273344 -1 0 0
2085 14 90.74589424350762 6.43412570676215 -1.0772867851259935 -1 0 0
2081 16 93.92996070819281 6.434125706761499 -1.0772867851276893 -1 0 0
2109 14 97.11402717287687 6.434125706762185 -1.07728678512576 -1 0 0
2105 16 100.29809363756172 6.434125706761413 -1.077286785127357 -1 0 0
2117 18 3.7951325204732606e-13 9.191608152516572 -1.0772867851273604 0 0 0
2131 20 3.184066464683741 9.191608152517029 -1.0772867851259984 0 0 0
2130 16 1.5920332323426096 11.949090598271574 -1.0772867851273027 0 0 0
2141 18 6.368132929369343 9.191608152516531 -1.0772867851271557 0 0 0
2134 14 4.776099697026334 11.949090598272084 -1.0772867851259817 0 0 0
2154 16 7.960166161711594 11.9490905982715 -1.077286785127415 0 0 0
2155 20 9.552199394052721 9.191608152517043 -1.07728678512604 0 0 0
2158 14 11.144232626395338 11.949090598272111 -1.077286785125881 0 0 0
2165 18 12.736265858738333 9.191608152516597 -1.0772867851271806 0 0 0
2179 20 15.920332323421752 9.191608152517054 -1.0772867851261667 0 0 0
2178 16 14.328299091080542 11.949090598271479 -1.0772867851273882 0 0 0
2189 18 19.104398788107385 9.191608152516626 -1.077286785127127 0 0 0
2182 14 17.512365555764397 11.949090598272086 -1.07728678512586 0 0 0
2202 16 20.69643202044949 11.949090598271477 -1.0772867851273624 0 0 0
2203 20 22.288465252790754 9.191608152517023 -1.0772867851261954 0 0 0
2206 14 23.880498485133373 11.949090598272107 -1.0772867851259573 0 0 0
2213 18 25.472531717476386 9.191608152516576 -1.0772867851271457 0 0 0
2227 20 28.65659818215974 9.19160815251706 -1.077286785126084 0 0 0
2226 16 27.064564949818546 11.949090598271471 -1.077286785127351 0 0 0
2237 18 31.840664646845372 9.19160815251657 -1.0772867851272165 0 0 0
2230 14 30.24863141450233 11.949090598272102 -1.0772867851259313 0 0 0
2250 16 33.43269787918758 11.94909059827148 -1.0772867851273986 0 0 0
2251 20 35.0247311115288 9.191608152517034 -1.0772867851260615 0 0 0
2254 14 36.61676434387134 11.949090598272072 -1.077286785125923 0 0 0
2261 18 38.20879757621436 9.191608152516592 -1.0772867851271368 0 0 0
2275 20 41.39286404089779 9.191608152517004 -1.0772867851261239 0 0 0
2274 16 39.80083080855646 11.949090598271566 -1.0772867851272878 0 0 0
2285 18 44.57693050558327 9.191608152516528 -1.0772867851272188 0 0 0
2278 14 42.984897273240364 11.949090598272171 -1.077286785126006 0 0 0
2298 16 46.1689637379256 11.949090598271509 -1.077286785127407 0 0 0
2299 20 47.760996970266824 9.191608152517013 -1.0772867851260677 0 0 0
2302 14 49.35303020260938 11.949090598272086 -1.077286785125904 0 0 0
1925 18 50.94506343495224 9.191608152516599 -1.0772867851271903 -1 0 0
1939 20 54.129129899635835 9.191608152517054 -1.0772867851261732 -1 0 0
1938 16 52.53709666729456 11.94909059827148 -1.0772867851273222 -1 0 0
1949 18 57.31319636432134 9.19160815251655 -1.0772867851270373 -1 0 0
1942 14 55.72116313197835 11.949090598272091 -1.0772867851259806 -1 0 0
1962 16 58.90522959666356 11.949090598271491 -1.0772867851274084 -1 0 0
1963 20 60.4972628290047 9.191608152517047 -1.0772867851261843 -1 0 0
1966 14 62.08929606134735 11.949090598272187 -1.0772867851258934 -1 0 0
1973 18 63.681329293690524 9.19160815251653 -1.0772867851271923 -1 0 0
1987 20 66.86539575837361 9.191608152517093 -1.0772867851260217 -1 0 0
1986 16 65.27336252603259 11.949090598271455 -1.0772867851274162 -1 0 0
1997 18 70.04946222305955 9.19160815251654 -1.0772867851273096 -1 0 0
1990 14 68.45742899071624 11.949090598272129 -1.0772867851259509 -1 0 0
2010 16 71.64149545540162 11.94909059827151 -1.0772867851273877 -1 0 0
2011 20 73.23352868774266 9.191608152517063 -1.0772867851258927 -1 0 0
2014 14 74.82556192008524 11.949090598272088 -1.0772867851259351 -1 0 0
2021 18 76.41759515242836 9.191608152516588 -1.077286785127463 -1 0 0
2035 20 79.60166161711177 9.191608152516979 -1.07728678512606 -1 0 0
2034 16 78.00962838477054 11.949090598271539 -1.0772867851274763 -1 0 0
2045 18 82.78572808179737 9.19160815251657 -1.077286785127035 -1 0 0
2038 14 81.19369484945442 11.949090598272134 -1.0772867851258219 -1 0 0
2058 16 84.37776131413948 11.949090598271445 -1.0772867851274892 -1 0 0
2059 20 85.96979454648067 9.19160815251704 -1.0772867851262455 -1 0 0
2062 14 87.56182777882337 11.949090598272184 -1.0772867851257915 -1 0 0
2069 18 89.15386101116641 9.191608152516647 -1.0772867851272119 -1 0 0
2083 20 92.33792747584975 9.19160815251712 -1.077286785126144 -1 0 0
2082 16 90.7458942435086 11.949090598271372 -1.0772867851273216 -1 0 0
2093 18 95.52199394053545 9.191608152516592 -1.077286785127143 -1 0 0
2086 14 93.92996070819238 11.94909059827213 -1.0772867851258028 -1 0 0
2106 16 97.11402717287763 11.949090598271482 -1.077286785127456 -1 0 0
2107 20 98.70606040521861 9.191608152517029 -1.077286785126079 -1 0 0
2110 14 100.29809363756131 11.94909059827215 -1.0772867851259613 -1 0 0
2118 18 3.184066464684912 14.706573044026598 -1.0772867851270593 0 0 0
2156 20 6.368132929368425 14.706573044027031 -1.077286785126206 0 0 0
2142 18 9.552199394053998 14.706573044026598 -1.0772867851271979 0 0 0
2180 20 12.736265858737372 14.706573044027046 -1.0772867851261947 0 0 0
2166 18 15.920332323422993 14.706573044026625 -1.0772867851271606 0 0 0
2204 20 19.104398788106398 14.70657304402704 -1.0772867851261936 0 0 0
2190 18 22.288465252791994 14.706573044026618 -1.0772867851271644 0 0 0
2228 20 25.472531717475366 14.706573044027055 -1.077286785126165 0 0 0
2214 18 28.656598182161 14.706573044026607 -1.0772867851272323 0 0 0
2252 20 31.840664646844402 14.706573044027076 -1.0772867851260874 0 0 0
2238 18 35.02473111152999 14.706573044026658 -1.0772867851271972 0 0 0
2276 20 38.20879757621343 14.706573044026948 -1.0772867851262826 0 0 0
2262 18 41.392864040898935 14.706573044026575 -1.0772867851270067 0 0 0
2300 20 44.576930505582354 14.706573044026973 -1.0772867851261578 0 0 0
2286 18 47.76099697026794 14.706573044026616 -1.0772867851271215 0 0 0
1940 20 50.94506343495138 14.706573044027005 -1.0772867851261596 -1 0 0
1926 18 54.129129899636915 14.706573044026602 -1.0772867851272314 -1 0 0
1964 20 57.31319636432036 14.70657304402709 -1.0772867851261179 -1 0 0
1950 18 60.497262829006054 14.706573044026541 -1.077286785127084 -1 0 0
1988 20 63.6813292936893 14.706573044026994 -1.0772867851262635 -1 0 0
1974 18 66.86539575837506 14.706573044026618 -1.0772867851271293 -1 0 0
2012 20 70.04946222305834 14.706573044027042 -1.077286785126051 -1 0 0
1998 18 73.23352868774397 14.706573044026511 -1.077286785127404 -1 0 0
2036 20 76.41759515242738 14.706573044027152 -1.0772867851259387 -1 0 0
2022 18 79.60166161711298 14.706573044026547 -1.0772867851271308 -1 0 0
2060 20 82.78572808179635 14.706573044027047 -1.0772867851263064 -1 0 0
2046 18 85.96979454648202 14.706573044026582 -1.0772867851270762 -1 0 0
2084 20 89.15386101116522 14.706573044027039 -1.0772867851261894 -1 0 0
2070 18 92.33792747585107 14.706573044026648 -1.0772867851271442 -1 0 0
2108 20 95.52199394053426 14.706573044026962 -1.0772867851263317 -1 0 0
2132 20 101.89012686990333 14.706573044026962 -1.0772867851260275 -1 0 0
2094 18 98.70606040521999 14.7065730440266 -1.0772867851271655 -1 0 0
2517 14 1.5920332323417599 17.464055489782062 -1.0772867851260741 0 0 0
2501 18 3.22364331825965e-13 20.221537935536595 -1.0772867851273742 0 0 0
2515 20 3.184066464683812 20.22153793553707 -1.0772867851261319 0 0 0
2513 16 4.776099697026904 17.46405548978153 -1.077286785127293 0 0 0
2541 14 7.960166161710734 17.464055489782112 -1.0772867851259147 0 0 0
2525 18 6.368132929369342 20.221537935536517 -1.0772867851271692 0 0 0
2537 16 11.1442326263959 17.46405548978153 -1.0772867851273316 0 0 0
2539 20 9.552199394052765 20.221537935537004 -1.0772867851260863 0 0 0
2565 14 14.328299091079758 17.464055489782083 -1.0772867851258954 0 0 0
2549 18 12.736265858738333 20.221537935536595 -1.0772867851271752 0 0 0
2563 20 15.920332323421757 20.22153793553703 -1.0772867851261712 0 0 0
2561 16 17.512365555764877 17.46405548978147 -1.0772867851273424 0 0 0
2589 14 20.69643202044875 17.464055489782133 -1.0772867851259091 0 0 0
2573 18 19.104398788107364 20.2215379355366 -1.0772867851271808 0 0 0
2585 16 23.880498485133916 17.464055489781476 -1.0772867851273515 0 0 0
2587 20 22.288465252790747 20.22153793553703 -1.077286785126162 0 0 0
2613 14 27.064564949817726 17.46405548978212 -1.0772867851258807 0 0 0
2597 18 25.472531717476354 20.22153793553662 -1.0772867851272168 0 0 0
2611 20 28.656598182159712 20.221537935537082 -1.0772867851261225 0 0 0
2609 16 30.248631414502935 17.464055489781455 -1.0772867851273413 0 0 0
2637 14 33.432697879186726 17.464055489782055 -1.0772867851258396 0 0 0
2621 18 31.840664646845358 20.22153793553658 -1.0772867851273393 0 0 0
2633 16 36.61676434387182 17.464055489781536 -1.0772867851274848 0 0 0
2635 20 35.0247311115288 20.221537935537086 -1.0772867851260521 0 0 0
2661 14 39.800830808555816 17.464055489782158 -1.0772867851260097 0 0 0
2645 18 38.20879757621438 20.22153793553655 -1.0772867851271306 0 0 0
2659 20 41.39286404089777 20.221537935537008 -1.0772867851260646 0 0 0
2657 16 42.98489727324084 17.464055489781547 -1.0772867851273384 0 0 0
2685 14 46.16896373792474 17.464055489782105 -1.0772867851260444 0 0 0
2669 18 44.576930505583285 20.221537935536617 -1.0772867851272292 0 0 0
2681 16 49.353030202609894 17.464055489781583 -1.0772867851271966 0 0 0
2683 20 47.76099697026683 20.22153793553703 -1.0772867851261243 0 0 0
2325 14 52.5370966672938 17.464055489782055 -1.0772867851260828 -1 0 0
2309 18 50.94506343495224 20.22153793553658 -1.0772867851270798 -1 0 0
2323 20 54.1291298996358 20.221537935537057 -1.0772867851262997 -1 0 0
2321 16 55.72116313197898 17.46405548978147 -1.0772867851272714 -1 0 0
2349 14 58.9052295966627 17.464055489782094 -1.0772867851258112 -1 0 0
2333 18 57.313196364321406 20.2215379355366 -1.0772867851271504 -1 0 0
2345 16 62.08929606134785 17.464055489781508 -1.0772867851275543 -1 0 0
2347 20 60.49726282900471 20.221537935537057 -1.0772867851261825 -1 0 0
2373 14 65.27336252603185 17.46405548978221 -1.0772867851257981 -1 0 0
2357 18 63.681329293690474 20.22153793553654 -1.0772867851270604 -1 0 0
2371 20 66.86539575837347 20.22153793553713 -1.0772867851261538 -1 0 0
2369 16 68.45742899071688 17.464055489781316 -1.0772867851274648 -1 0 0
2397 14 71.64149545540073 17.464055489782258 -1.0772867851258061 -1 0 0
2381 18 70.04946222305949 20.221537935536542 -1.0772867851273484 -1 0 0
2393 16 74.82556192008607 17.46405548978147 -1.0772867851274368 -1 0 0
2395 20 73.23352868774272 20.221537935537043 -1.077286785125858 -1 0 0
2421 14 78.00962838476957 17.46405548978209 -1.0772867851258388 -1 0 0
2405 18 76.41759515242839 20.221537935536507 -1.077286785127506 -1 0 0
2419 20 79.60166161711172 20.22153793553705 -1.0772867851260999 -1 0 0
2417 16 81.19369484945493 17.46405548978153 -1.077286785127417 -1 0 0
2445 14 84.37776131413877 17.464055489782094 -1.0772867851260073 -1 0 0
2429 18 82.78572808179725 20.22153793553666 -1.077286785126924 -1 0 0
2441 16 87.56182777882383 17.464055489781558 -1.0772867851273056 -1 0 0
2443 20 85.96979454648083 20.22153793553693 -1.077286785126336 -1 0 0
2469 14 90.7458942435078 17.464055489782087 -1.077286785125887 -1 0 0
2453 18 89.15386101116638 20.221537935536574 -1.0772867851270227 -1 0 0
2467 20 92.33792747584978 20.221537935537032 -1.0772867851262535 -1 0 0
2465 16 93.92996070819281 17.4640554897815 -1.0772867851274923 -1 0 0
2493 14 97.1140271728768 17.464055489782215 -1.0772867851258139 -1 0 0
2477 18 95.52199394053545 20.221537935536503 -1.0772867851270957 -1 0 0
2489 16 100.29809363756188 17.464055489781547 -1.0772867851273948 -1 0 0
2491 20 98.70606040521865 20.221537935536983 -1.0772867851258767 -1 0 0
2514 16 1.5920332323425879 22.979020381291612 -1.0772867851271795 0 0 0
2502 18 3.1840664646848613 25.7365028270465 -1.0772867851270425 0 0 0
2518 14 4.776099697026307 22.979020381292116 -1.0772867851259518 0 0 0
2538 16 7.960166161711556 22.97902038129154 -1.0772867851274406 0 0 0
2540 20 6.368132929368411 25.736502827047016 -1.0772867851261436 0 0 0
2542 14 11.144232626395361 22.979020381292123 -1.0772867851259618 0 0 0
2526 18 9.552199394053973 25.73650282704658 -1.0772867851270693 0 0 0
2564 20 12.736265858737381 25.736502827047005 -1.077286785126175 0 0 0
2562 16 14.328299091080543 22.979020381291512 -1.0772867851273846 0 0 0
2550 18 15.920332323423004 25.736502827046564 -1.077286785127147 0 0 0
2566 14 17.51236555576434 22.979020381292123 -1.077286785125882 0 0 0
2586 16 20.696432020449507 22.97902038129148 -1.0772867851274095 0 0 0
2588 20 19.104398788106383 25.736502827047005 -1.0772867851261123 0 0 0
2590 14 23.880498485133373 22.979020381292134 -1.0772867851259202 0 0 0
2574 18 22.288465252791987 25.73650282704656 -1.077286785127153 0 0 0
2612 20 25.472531717475366 25.73650282704702 -1.077286785126142 0 0 0
2610 16 27.064564949818553 22.979020381291495 -1.0772867851273424 0 0 0
2598 18 28.656598182160984 25.73650282704658 -1.0772867851272105 0 0 0
2614 14 30.248631414502334 22.979020381292095 -1.0772867851259074 0 0 0
2634 16 33.43269787918759 22.97902038129143 -1.0772867851273649 0 0 0
2636 20 31.840664646844356 25.736502827047104 -1.0772867851261274 0 0 0
2638 14 36.61676434387127 22.979020381292102 -1.0772867851258392 0 0 0
2622 18 35.02473111153002 25.7365028270466 -1.0772867851272523 0 0 0
2660 20 38.208797576213406 25.736502827047026 -1.0772867851261396 0 0 0
2658 16 39.80083080855653 22.97902038129152 -1.0772867851273995 0 0 0
2646 18 41.39286404089896 25.736502827046536 -1.0772867851272518 0 0 0
2662 14 42.9848972732404 22.979020381292145 -1.077286785125974 0 0 0
2682 16 46.168963737925544 22.979020381291555 -1.0772867851273422 0 0 0
2684 20 44.576930505582396 25.736502827047072 -1.07728678512598 0 0 0
2686 14 49.3530302026094 22.97902038129207 -1.0772867851259587 0 0 0
2670 18 47.76099697026794 25.736502827046497 -1.0772867851273153 0 0 0
2324 20 50.94506343495144 25.736502827047076 -1.0772867851260606 -1 0 0
2322 16 52.53709666729448 22.979020381291548 -1.0772867851272838 -1 0 0
2310 18 54.129129899637 25.73650282704654 -1.0772867851271877 -1 0 0
2326 14 55.72116313197836 22.979020381292116 -1.0772867851259325 -1 0 0
2346 16 58.90522959666349 22.97902038129147 -1.077286785127387 -1 0 0
2348 20 57.31319636432042 25.73650282704702 -1.077286785126142 -1 0 0
2350 14 62.08929606134736 22.979020381292138 -1.077286785125949 -1 0 0
2334 18 60.49726282900602 25.73650282704657 -1.0772867851271652 -1 0 0
2372 20 63.68132929368928 25.73650282704704 -1.0772867851261865 -1 0 0
2370 16 65.27336252603266 22.97902038129141 -1.0772867851274266 -1 0 0
2358 18 66.86539575837492 25.736502827046653 -1.077286785127232 -1 0 0
2374 14 68.45742899071631 22.979020381292138 -1.0772867851258654 -1 0 0
2394 16 71.64149545540165 22.979020381291505 -1.077286785127378 -1 0 0
2396 20 70.04946222305831 25.736502827046966 -1.077286785126206 -1 0 0
2398 14 74.82556192008522 22.979020381292184 -1.0772867851260022 -1 0 0
2382 18 73.233528687744 25.736502827046625 -1.0772867851270287 -1 0 0
2420 20 76.41759515242734 25.73650282704694 -1.0772867851260723 -1 0 0
2418 16 78.00962838477055 22.979020381291633 -1.0772867851274444 -1 0 0
2406 18 79.60166161711281 25.73650282704664 -1.0772867851270576 -1 0 0
2422 14 81.19369484945443 22.97902038129197 -1.0772867851258847 -1 0 0
2442 16 84.37776131413939 22.979020381291487 -1.077286785127323 -1 0 0
2444 20 82.7857280817965 25.736502827047026 -1.077286785126298 -1 0 0
2446 14 87.56182777882348 22.9790203812922 -1.0772867851260473 -1 0 0
2430 18 85.96979454648198 25.736502827046596 -1.0772867851271046 -1 0 0
2468 20 89.15386101116529 25.73650282704694 -1.0772867851260446 -1 0 0
2466 16 90.74589424350847 22.979020381291516 -1.077286785127327 -1 0 0
2454 18 92.33792747585093 25.736502827046593 -1.0772867851270735 -1 0 0
2470 14 93.92996070819235 22.97902038129217 -1.0772867851260097 -1 0 0
2490 16 97.11402717287756 22.979020381291562 -1.077286785127388 -1 0 0
2492 20 95.52199394053441 25.736502827046944 -1.0772867851261558 -1 0 0
2516 20 101.89012686990353 25.736502827046966 -1.0772867851260879 -1 0 0
2494 14 100.2980936375613 22.979020381292095 -1.0772867851260777 -1 0 0
2478 18 98.70606040521993 25.736502827046646 -1.0772867851271897 -1 0 0
2901 14 1.59203323234174 28.49398527280215 -1.0772867851260852 0 0 0
2897 16 4.776099697026909 28.493985272801567 -1.0772867851274677 0 0 0
2925 14 7.960166161710758 28.49398527280212 -1.0772867851259587 0 0 0
2921 16 11.14423262639586 28.49398527280153 -1.0772867851273147 0 0 0
2949 14 14.328299091079735 28.493985272802142 -1.0772867851259875 0 0 0
2945 16 17.51236555576492 28.493985272801503 -1.0772867851273982 0 0 0
2973 14 20.696432020448718 28.493985272802146 -1.0772867851259256 0 0 0
2969 16 23.880498485133913 28.493985272801506 -1.0772867851274313 0 0 0
2997 14 27.064564949817743 28.49398527280213 -1.0772867851259524 0 0 0
2993 16 30.24863141450296 28.493985272801513 -1.077286785127261 0 0 0
3021 14 33.432697879186705 28.49398527280206 -1.0772867851258792 0 0 0
3017 16 36.616764343871886 28.493985272801503 -1.0772867851274044 0 0 0
3045 14 39.8008308085557 28.493985272802174 -1.0772867851259607 0 0 0
3041 16 42.98489727324104 28.493985272801485 -1.0772867851273737 0 0 0
3069 14 46.16896373792464 28.493985272802124 -1.0772867851260115 0 0 0
3065 16 49.35303020261001 28.493985272801556 -1.077286785127376 0 0 0
2709 14 52.537096667293675 28.49398527280211 -1.077286785125958 -1 0 0
2705 16 55.72116313197891 28.493985272801538 -1.077286785127438 -1 0 0
2733 14 58.905229596662736 28.49398527280217 -1.0772867851258756 -1 0 0
2729 16 62.089296061347916 28.49398527280146 -1.077286785127466 -1 0 0
2757 14 65.27336252603173 28.49398527280222 -1.0772867851256192 -1 0 0
2753 16 68.45742899071682 28.49398527280143 -1.077286785127582 -1 0 0
2781 14 71.64149545540084 28.49398527280218 -1.077286785125793 -1 0 0
2777 16 74.82556192008589 28.49398527280143 -1.0772867851275365 -1 0 0
2805 14 78.00962838476978 28.493985272802114 -1.0772867851259087 -1 0 0
2801 16 81.19369484945483 28.493985272801456 -1.077286785127351 -1 0 0
2829 14 84.37776131413865 28.493985272802156 -1.077286785125924 -1 0 0
2825 16 87.56182777882388 28.49398527280155 -1.0772867851274397 -1 0 0
2853 14 90.74589424350769 28.493985272802135 -1.0772867851259107 -1 0 0
2849 16 93.9299607081929 28.493985272801478 -1.0772867851275383 -1 0 0
2877 14 97.11402717287692 28.493985272802203 -1.0772867851259023 -1 0 0
2873 16 100.29809363756195 28.493985272801517 -1.077286785127458 -1 0 0
2885 18 3.300366437380559e-13 31.251467718556594 -1.0772867851271928 0 0 0
2899 20 3.184066464683752 31.251467718557038 -1.0772867851260273 0 0 0
2898 16 1.592033232342533 34.00895016431143 -1.077286785127295 0 0 0
2909 18 6.368132929369327 31.25146771855657 -1.0772867851271997 0 0 0
2902 14 4.776099697026355 34.008950164312125 -1.07728678512593 0 0 0
2922 16 7.960166161711569 34.008950164311514 -1.0772867851274142 0 0 0
2923 20 9.552199394052801 31.251467718557063 -1.0772867851260943 0 0 0
2926 14 11.144232626395326 34.00895016431216 -1.0772867851259977 0 0 0
2933 18 12.736265858738339 31.25146771855656 -1.0772867851271797 0 0 0
2947 20 15.92033232342174 31.251467718557077 -1.0772867851260355 0 0 0
2946 16 14.328299091080574 34.00895016431149 -1.0772867851273982 0 0 0
2957 18 19.104398788107357 31.251467718556537 -1.077286785127223 0 0 0
2950 14 17.512365555764294 34.00895016431209 -1.077286785125944 0 0 0
2970 16 20.696432020449617 34.00895016431152 -1.0772867851273924 0 0 0
2971 20 22.288465252790736 31.251467718557045 -1.0772867851260544 0 0 0
2974 14 23.880498485133316 34.00895016431214 -1.0772867851258388 0 0 0
2981 18 25.472531717476354 31.25146771855655 -1.0772867851272114 0 0 0
2995 20 28.656598182159758 31.251467718557 -1.0772867851261339 0 0 0
2994 16 27.064564949818525 34.00895016431151 -1.0772867851274999 0 0 0
3005 18 31.840664646845322 31.251467718556576 -1.0772867851271823 0 0 0
2998 14 30.248631414502402 34.00895016431216 -1.077286785125895 0 0 0
3018 16 33.43269787918754 34.008950164311436 -1.0772867851274213 0 0 0
3019 20 35.02473111152875 31.251467718557056 -1.0772867851261898 0 0 0
3022 14 36.61676434387138 34.00895016431211 -1.0772867851259504 0 0 0
3029 18 38.20879757621438 31.251467718556565 -1.0772867851270778 0 0 0
3043 20 41.39286404089776 31.251467718557002 -1.077286785126017 0 0 0
3042 16 39.80083080855655 34.00895016431149 -1.0772867851273953 0 0 0
3053 18 44.57693050558334 31.25146771855651 -1.0772867851271986 0 0 0
3046 14 42.984897273240314 34.00895016431218 -1.0772867851259644 0 0 0
3066 16 46.168963737925594 34.008950164311536 -1.0772867851274255 0 0 0
3067 20 47.76099697026679 31.251467718556988 -1.0772867851260957 0 0 0
3070 14 49.35303020260936 34.008950164312054 -1.0772867851260053 0 0 0
2693 18 50.945063434952324 31.251467718556576 -1.0772867851270551 -1 0 0
2707 20 54.12912989963579 31.251467718556988 -1.0772867851262167 -1 0 0
2706 16 52.53709666729448 34.00895016431153 -1.0772867851273698 -1 0 0
2717 18 57.31319636432135 31.25146771855657 -1.0772867851269756 -1 0 0
2710 14 55.721163131978415 34.00895016431212 -1.0772867851260275 -1 0 0
2730 16 58.90522959666347 34.00895016431147 -1.077286785127475 -1 0 0
2731 20 60.49726282900469 31.251467718557027 -1.077286785126236 -1 0 0
2734 14 62.08929606134745 34.008950164312196 -1.0772867851259087 -1 0 0
2741 18 63.681329293690524 31.251467718556533 -1.0772867851271593 -1 0 0
2755 20 66.86539575837361 31.25146771855699 -1.0772867851261638 -1 0 0
2754 16 65.27336252603251 34.00895016431147 -1.0772867851275252 -1 0 0
2765 18 70.0494622230594 31.251467718556498 -1.0772867851272545 -1 0 0
2758 14 68.45742899071637 34.00895016431225 -1.0772867851259431 -1 0 0
2778 16 71.64149545540165 34.00895016431148 -1.0772867851273769 -1 0 0
2779 20 73.2335286877426 31.251467718557084 -1.0772867851259718 -1 0 0
2782 14 74.82556192008529 34.00895016431209 -1.0772867851259385 -1 0 0
2789 18 76.41759515242833 31.251467718556526 -1.0772867851274595 -1 0 0
2803 20 79.60166161711167 31.251467718557194 -1.077286785126001 -1 0 0
2802 16 78.00962838477068 34.00895016431146 -1.077286785127378 -1 0 0
2813 18 82.78572808179744 31.25146771855652 -1.0772867851272694 -1 0 0
2806 14 81.19369484945419 34.00895016431206 -1.0772867851257186 -1 0 0
2826 16 84.37776131413955 34.00895016431148 -1.0772867851274548 -1 0 0
2827 20 85.96979454648077 31.25146771855701 -1.0772867851260655 -1 0 0
2830 14 87.56182777882333 34.00895016431216 -1.0772867851258725 -1 0 0
2837 18 89.15386101116638 31.251467718556572 -1.0772867851271601 -1 0 0
2851 20 92.33792747584972 31.25146771855715 -1.0772867851261114 -1 0 0
2850 16 90.74589424350863 34.00895016431141 -1.0772867851274683 -1 0 0
2861 18 95.52199394053544 31.251467718556558 -1.077286785127102 -1 0 0
2854 14 93.92996070819233 34.00895016431211 -1.0772867851258612 -1 0 0
2874 16 97.11402717287754 34.008950164311486 -1.0772867851273826 -1 0 0
2875 20 98.70606040521868 31.251467718557002 -1.0772867851259413 -1 0 0