LAMMPS data file via write_data, version 2 Aug 2023, timestep = 17, units = metal

6912 atoms
24 atom types

0 101.890126869904 xlo xhi
0 99.26936804718 ylo yhi
-50 50 zlo zhi

Masses

1 95.95
2 95.95
3 95.95
4 95.95
5 95.95
6 95.95
7 95.95
8 95.95
9 32.06
10 32.06
11 32.06
12 32.06
13 32.06
14 32.06
15 32.06
16 32.06
17 32.06
18 32.06
19 32.06
20 32.06
21 32.06
22 32.06
23 32.06
24 32.06

Atoms # atomic

1746 12 1.5920332323421857 0.9191608152513396 -0.5011757734969358 0 0 0
1734 14 3.1840664646852406 3.6766432610068196 -0.5011757734960872 0 0 0
1750 10 4.7760996970265515 0.9191608152523989 -0.5011757734948966 0 0 0
1770 12 7.9601661617112205 0.9191608152513363 -0.5011757734970178 0 0 0
1772 16 6.368132929368062 3.676643261006859 -0.5011757734957235 0 0 0
1774 10 11.144232626395581 0.9191608152523751 -0.5011757734948438 0 0 0
1758 14 9.552199394054236 3.6766432610068147 -0.5011757734961138 0 0 0
1796 16 12.736265858737076 3.6766432610068702 -0.5011757734957105 0 0 0
1794 12 14.328299091080178 0.9191608152513381 -0.5011757734969657 0 0 0
1782 14 15.920332323423237 3.676643261006808 -0.5011757734960925 0 0 0
1798 10 17.512365555764596 0.9191608152523857 -0.5011757734948554 0 0 0
1818 12 20.69643202044918 0.9191608152513424 -0.5011757734969504 0 0 0
1820 16 19.10439878810607 3.6766432610068454 -0.5011757734957617 0 0 0
1822 10 23.88049848513357 0.9191608152523832 -0.5011757734948777 0 0 0
1806 14 22.288465252792218 3.676643261006814 -0.5011757734960168 0 0 0
1844 16 25.47253171747506 3.6766432610068462 -0.5011757734957296 0 0 0
1842 12 27.064564949818212 0.9191608152512982 -0.5011757734969631 0 0 0
1830 14 28.65659818216127 3.6766432610068125 -0.5011757734960713 0 0 0
1846 10 30.248631414502558 0.9191608152524001 -0.5011757734948526 0 0 0
1866 12 33.43269787918722 0.919160815251278 -0.501175773496995 0 0 0
1868 16 31.840664646844026 3.676643261006848 -0.5011757734957603 0 0 0
1870 10 36.616764343871566 0.9191608152524054 -0.5011757734948493 0 0 0
1854 14 35.024731111530286 3.676643261006843 -0.5011757734960418 0 0 0
1892 16 38.20879757621306 3.676643261006856 -0.5011757734957796 0 0 0
1890 12 39.800830808556235 0.9191608152513356 -0.5011757734970569 0 0 0
1878 14 41.39286404089924 3.6766432610068125 -0.5011757734961012 0 0 0
1894 10 42.98489727324054 0.9191608152524258 -0.5011757734948441 0 0 0
1914 12 46.168963737925225 0.9191608152513493 -0.5011757734969937 0 0 0
1916 16 44.576930505582034 3.6766432610068303 -0.5011757734956522 0 0 0
1918 10 49.353030202609496 0.9191608152523814 -0.5011757734948946 0 0 0
1902 14 47.76099697026822 3.676643261006798 -0.501175773496144 0 0 0
1556 16 50.945063434951024 3.676643261006888 -0.5011757734957245 -1 0 0
1554 12 52.53709666729422 0.9191608152513032 -0.501175773497047 -1 0 0
1542 14 54.12912989963728 3.6766432610068174 -0.5011757734960792 -1 0 0
1558 10 55.72116313197852 0.9191608152524311 -0.5011757734948129 -1 0 0
1578 12 58.90522959666323 0.9191608152513003 -0.5011757734970259 -1 0 0
1580 16 57.313196364319985 3.6766432610068436 -0.5011757734957564 -1 0 0
1582 10 62.08929606134749 0.9191608152524323 -0.5011757734948454 -1 0 0
1566 14 60.497262829006274 3.6766432610067983 -0.5011757734960924 -1 0 0
1604 16 63.68132929368898 3.6766432610068756 -0.5011757734956919 -1 0 0
1602 12 65.27336252603224 0.9191608152512809 -0.501175773496946 -1 0 0
1590 14 66.86539575837524 3.6766432610068156 -0.501175773496167 -1 0 0
1606 10 68.45742899071655 0.9191608152523613 -0.5011757734947845 -1 0 0
1626 12 71.64149545540118 0.919160815251365 -0.5011757734970418 -1 0 0
1628 16 70.04946222305807 3.676643261006852 -0.5011757734956683 -1 0 0
1630 10 74.82556192008559 0.9191608152524063 -0.5011757734949173 -1 0 0
1614 14 73.23352868774427 3.6766432610067885 -0.5011757734960588 -1 0 0
1652 16 76.417595152427 3.676643261006891 -0.5011757734959105 -1 0 0
1650 12 78.00962838477005 0.9191608152512977 -0.5011757734969842 -1 0 0
1638 14 79.60166161711324 3.676643261006837 -0.5011757734960344 -1 0 0
1654 10 81.19369484945457 0.9191608152524113 -0.5011757734948303 -1 0 0
1674 12 84.37776131413918 0.9191608152513376 -0.5011757734969826 -1 0 0
1676 16 82.78572808179612 3.676643261006824 -0.5011757734956893 -1 0 0
1678 10 87.56182777882357 0.9191608152524187 -0.5011757734947934 -1 0 0
1662 14 85.96979454648226 3.6766432610068187 -0.501175773496108 -1 0 0
1700 16 89.15386101116498 3.6766432610068733 -0.5011757734957845 -1 0 0
1698 12 90.74589424350816 0.9191608152513342 -0.5011757734971525 -1 0 0
1686 14 92.33792747585123 3.6766432610068094 -0.5011757734960697 -1 0 0
1702 10 93.92996070819258 0.9191608152524128 -0.5011757734948579 -1 0 0
1722 12 97.11402717287726 0.9191608152512897 -0.5011757734969456 -1 0 0
1724 16 95.52199394053406 3.6766432610068596 -0.5011757734956159 -1 0 0
1748 16 101.89012686990306 3.676643261006836 -0.501175773495799 -1 0 0
1726 10 100.29809363756158 0.9191608152523749 -0.5011757734949278 -1 0 0
1710 14 98.70606040522026 3.6766432610068276 -0.5011757734961361 -1 0 0
2133 10 1.5920332323420603 6.434125706762437 -0.5011757734948203 0 0 0
2129 12 4.776099697026563 6.434125706761306 -0.5011757734970294 0 0 0
2157 10 7.960166161711018 6.4341257067623685 -0.5011757734948691 0 0 0
2153 12 11.144232626395578 6.43412570676131 -0.5011757734969912 0 0 0
2181 10 14.32829909108001 6.434125706762372 -0.5011757734948626 0 0 0
2177 12 17.51236555576458 6.434125706761326 -0.5011757734970443 0 0 0
2205 10 20.696432020449027 6.434125706762392 -0.5011757734948934 0 0 0
2201 12 23.880498485133536 6.43412570676133 -0.5011757734969745 0 0 0
2229 10 27.06456494981804 6.434125706762378 -0.5011757734948595 0 0 0
2225 12 30.248631414502572 6.434125706761302 -0.5011757734969995 0 0 0
2253 10 33.43269787918706 6.434125706762378 -0.5011757734948349 0 0 0
2249 12 36.61676434387155 6.434125706761307 -0.5011757734969415 0 0 0
2277 10 39.80083080855602 6.4341257067623845 -0.5011757734949557 0 0 0
2273 12 42.98489727324052 6.434125706761314 -0.5011757734970333 0 0 0
2301 10 46.168963737925004 6.4341257067624 -0.5011757734948834 0 0 0
2297 12 49.35303020260956 6.434125706761307 -0.5011757734969873 0 0 0
1941 10 52.537096667293994 6.434125706762355 -0.5011757734947756 -1 0 0
1937 12 55.72116313197855 6.434125706761311 -0.5011757734969813 -1 0 0
1965 10 58.90522959666301 6.434125706762375 -0.5011757734949286 -1 0 0
1961 12 62.08929606134757 6.4341257067613045 -0.5011757734969855 -1 0 0
1989 10 65.27336252603199 6.4341257067623845 -0.5011757734948272 -1 0 0
1985 12 68.4574289907166 6.434125706761354 -0.5011757734971063 -1 0 0
2013 10 71.641495455401 6.434125706762362 -0.5011757734948579 -1 0 0
2009 12 74.82556192008553 6.434125706761306 -0.5011757734970169 -1 0 0
2037 10 78.00962838477 6.4341257067623285 -0.5011757734948307 -1 0 0
2033 12 81.19369484945452 6.4341257067613284 -0.5011757734969833 -1 0 0
2061 10 84.37776131413904 6.434125706762421 -0.5011757734947953 -1 0 0
2057 12 87.56182777882353 6.434125706761279 -0.5011757734971489 -1 0 0
2085 10 90.74589424350799 6.434125706762373 -0.5011757734948304 -1 0 0
2081 12 93.92996070819258 6.434125706761339 -0.5011757734968584 -1 0 0
2109 10 97.11402717287702 6.4341257067623605 -0.5011757734949149 -1 0 0
2105 12 100.29809363756155 6.4341257067612805 -0.5011757734970217 -1 0 0
2117 14 8.384404281969182e-13 9.19160815251682 -0.5011757734960093 0 0 0
2131 16 3.184066464683543 9.191608152516823 -0.5011757734956624 0 0 0
2130 12 1.5920332323420998 11.949090598271306 -0.501175773496958 0 0 0
2141 14 6.368132929369778 9.191608152516821 -0.5011757734961352 0 0 0
2134 10 4.776099697026615 11.949090598272372 -0.5011757734948605 0 0 0
2154 12 7.960166161711163 11.94909059827131 -0.5011757734969612 0 0 0
2155 16 9.552199394052595 9.191608152516869 -0.5011757734957185 0 0 0
2158 10 11.144232626395604 11.949090598272344 -0.5011757734948344 0 0 0
2165 14 12.736265858738761 9.191608152516823 -0.5011757734960759 0 0 0
2179 16 15.920332323421604 9.191608152516844 -0.5011757734957505 0 0 0
2178 12 14.328299091080142 11.949090598271315 -0.5011757734969713 0 0 0
2189 14 19.104398788107776 9.19160815251683 -0.5011757734960502 0 0 0
2182 10 17.51236555576464 11.949090598272356 -0.501175773494841 0 0 0
2202 12 20.696432020449134 11.949090598271297 -0.5011757734969389 0 0 0
2203 16 22.288465252790587 9.191608152516839 -0.501175773495723 0 0 0
2206 10 23.880498485133625 11.949090598272367 -0.501175773494893 0 0 0
2213 14 25.472531717476762 9.19160815251681 -0.5011757734960968 0 0 0
2227 16 28.656598182159584 9.191608152516878 -0.5011757734957176 0 0 0
2226 12 27.06456494981817 11.94909059827129 -0.5011757734969923 0 0 0
2237 14 31.840664646845813 9.191608152516825 -0.5011757734960625 0 0 0
2230 10 30.248631414502615 11.949090598272372 -0.5011757734947542 0 0 0
2250 12 33.432697879187145 11.94909059827127 -0.5011757734970246 0 0 0
2251 16 35.02473111152861 9.19160815251684 -0.5011757734957524 0 0 0
2254 10 36.616764343871644 11.949090598272388 -0.5011757734948493 0 0 0
2261 14 38.20879757621479 9.191608152516835 -0.5011757734960853 0 0 0
2275 16 41.39286404089756 9.191608152516858 -0.5011757734957591 0 0 0
2274 12 39.80083080855612 11.9490905982713 -0.5011757734970226 0 0 0
2285 14 44.57693050558377 9.191608152516842 -0.5011757734960433 0 0 0
2278 10 42.98489727324062 11.949090598272367 -0.501175773494818 0 0 0
2298 12 46.16896373792508 11.949090598271333 -0.5011757734969252 0 0 0
2299 16 47.76099697026657 9.191608152516837 -0.501175773495743 0 0 0
2302 10 49.35303020260961 11.949090598272376 -0.5011757734948687 0 0 0
1925 14 50.94506343495276 9.191608152516828 -0.501175773496098 -1 0 0
1939 16 54.12912989963558 9.191608152516869 -0.5011757734956759 -1 0 0
1938 12 52.53709666729416 11.949090598271274 -0.5011757734970497 -1 0 0
1949 14 57.31319636432176 9.191608152516817 -0.501175773496123 -1 0 0
1942 10 55.72116313197858 11.949090598272406 -0.5011757734948021 -1 0 0
1962 12 58.90522959666314 11.949090598271287 -0.5011757734970433 -1 0 0
1963 16 60.49726282900459 9.191608152516865 -0.501175773495712 -1 0 0
1966 10 62.089296061347554 11.94909059827239 -0.5011757734947822 -1 0 0
1973 14 63.68132929369077 9.191608152516787 -0.501175773496111 -1 0 0
1987 16 66.8653957583736 9.191608152516887 -0.5011757734956369 -1 0 0
1986 12 65.27336252603219 11.949090598271283 -0.5011757734969884 -1 0 0
1997 14 70.04946222305972 9.19160815251681 -0.5011757734961577 -1 0 0
1990 10 68.45742899071655 11.949090598272328 -0.5011757734947638 -1 0 0
2010 12 71.64149545540114 11.949090598271338 -0.5011757734970319 -1 0 0
2011 16 73.23352868774255 9.19160815251685 -0.5011757734957687 -1 0 0
2014 10 74.8255619200856 11.949090598272342 -0.5011757734947879 -1 0 0
2021 14 76.41759515242869 9.19160815251686 -0.5011757734960233 -1 0 0
2035 16 79.60166161711153 9.191608152516812 -0.501175773495825 -1 0 0
2034 12 78.00962838477004 11.9490905982713 -0.5011757734970114 -1 0 0
2045 14 82.78572808179776 9.191608152516832 -0.5011757734958555 -1 0 0
2038 10 81.19369484945467 11.949090598272338 -0.5011757734948704 -1 0 0
2058 12 84.37776131413912 11.949090598271317 -0.5011757734968979 -1 0 0
2059 16 85.96979454648054 9.191608152516807 -0.5011757734957482 -1 0 0
2062 10 87.56182777882361 11.949090598272432 -0.5011757734948741 -1 0 0
2069 14 89.1538610111668 9.191608152516833 -0.5011757734962271 -1 0 0
2083 16 92.33792747584954 9.19160815251689 -0.5011757734956527 -1 0 0
2082 12 90.74589424350819 11.949090598271258 -0.5011757734970563 -1 0 0
2093 14 95.52199394053572 9.191608152516777 -0.5011757734960459 -1 0 0
2086 10 93.92996070819254 11.949090598272367 -0.5011757734947978 -1 0 0
2106 12 97.11402717287726 11.949090598271274 -0.5011757734969433 -1 0 0
2107 16 98.7060604052186 9.191608152516933 -0.5011757734957943 -1 0 0
2110 10 100.29809363756158 11.94909059827236 -0.501175773494918 -1 0 0
2118 14 3.184066464685238 14.706573044026845 -0.5011757734960833 0 0 0
2156 16 6.368132929368064 14.706573044026872 -0.5011757734957146 0 0 0
2142 14 9.552199394054224 14.706573044026847 -0.5011757734961012 0 0 0
2180 16 12.736265858737077 14.706573044026882 -0.501175773495737 0 0 0
2166 14 15.920332323423235 14.706573044026827 -0.5011757734961034 0 0 0
2204 16 19.104398788106064 14.70657304402685 -0.5011757734957584 0 0 0
2190 14 22.288465252792253 14.706573044026827 -0.5011757734960837 0 0 0
2228 16 25.472531717475057 14.706573044026857 -0.5011757734958237 0 0 0
2214 14 28.65659818216127 14.70657304402686 -0.5011757734960676 0 0 0
2252 16 31.84066464684402 14.706573044026843 -0.5011757734958635 0 0 0
2238 14 35.024731111530286 14.706573044026873 -0.5011757734960575 0 0 0
2276 16 38.208797576213065 14.70657304402685 -0.5011757734958444 0 0 0
2262 14 41.39286404089924 14.706573044026849 -0.5011757734960937 0 0 0
2300 16 44.576930505582055 14.706573044026836 -0.5011757734957918 0 0 0
2286 14 47.76099697026821 14.706573044026815 -0.501175773496073 0 0 0
1940 16 50.945063434951024 14.706573044026902 -0.5011757734957589 -1 0 0
1926 14 54.12912989963728 14.70657304402685 -0.5011757734961407 -1 0 0
1964 16 57.31319636431998 14.706573044026868 -0.5011757734957729 -1 0 0
1950 14 60.497262829006246 14.706573044026833 -0.5011757734961156 -1 0 0
1988 16 63.681329293689025 14.706573044026886 -0.5011757734956314 -1 0 0
1974 14 66.86539575837524 14.70657304402683 -0.5011757734962716 -1 0 0
2012 16 70.04946222305806 14.706573044026904 -0.501175773495703 -1 0 0
1998 14 73.23352868774423 14.706573044026806 -0.5011757734960571 -1 0 0
2036 16 76.41759515242707 14.706573044026916 -0.5011757734958217 -1 0 0
2022 14 79.60166161711317 14.706573044026852 -0.5011757734960937 -1 0 0
2060 16 82.78572808179612 14.706573044026863 -0.5011757734957116 -1 0 0
2046 14 85.96979454648229 14.706573044026815 -0.5011757734961346 -1 0 0
2084 16 89.15386101116495 14.706573044026877 -0.5011757734957495 -1 0 0
2070 14 92.33792747585123 14.706573044026818 -0.5011757734961164 -1 0 0
2108 16 95.52199394053407 14.70657304402687 -0.5011757734956798 -1 0 0
2132 16 101.89012686990303 14.70657304402685 -0.5011757734958294 -1 0 0
2094 14 98.70606040522026 14.706573044026875 -0.5011757734961818 -1 0 0
2517 10 1.5920332323420356 17.46405548978238 -0.5011757734948007 0 0 0
2501 14 8.242295734817162e-13 20.221537935536833 -0.5011757734960955 0 0 0
2515 16 3.184066464683585 20.22153793553686 -0.5011757734957355 0 0 0
2513 12 4.776099697026565 17.464055489781302 -0.5011757734969927 0 0 0
2541 10 7.960166161711021 17.46405548978239 -0.501175773494849 0 0 0
2525 14 6.368132929369782 20.221537935536816 -0.5011757734961221 0 0 0
2537 12 11.14423262639556 17.464055489781316 -0.5011757734970274 0 0 0
2539 16 9.552199394052565 20.22153793553689 -0.5011757734957257 0 0 0
2565 10 14.328299091080023 17.464055489782385 -0.5011757734948236 0 0 0
2549 14 12.73626585873879 20.22153793553684 -0.5011757734960762 0 0 0
2563 16 15.920332323421585 20.22153793553684 -0.501175773495715 0 0 0
2561 12 17.51236555576457 17.464055489781313 -0.5011757734969962 0 0 0
2589 10 20.696432020449045 17.464055489782368 -0.5011757734948442 0 0 0
2573 14 19.10439878810777 20.221537935536848 -0.5011757734960877 0 0 0
2585 12 23.88049848513355 17.46405548978133 -0.5011757734969506 0 0 0
2587 16 22.288465252790633 20.221537935536848 -0.5011757734957552 0 0 0
2613 10 27.06456494981806 17.46405548978236 -0.5011757734948185 0 0 0
2597 14 25.47253171747676 20.221537935536816 -0.5011757734961149 0 0 0
2611 16 28.656598182159605 20.221537935536865 -0.5011757734957248 0 0 0
2609 12 30.248631414502515 17.464055489781323 -0.501175773496967 0 0 0
2637 10 33.43269787918706 17.464055489782382 -0.5011757734948197 0 0 0
2621 14 31.840664646845777 20.22153793553682 -0.5011757734960615 0 0 0
2633 12 36.61676434387155 17.46405548978131 -0.5011757734969031 0 0 0
2635 16 35.02473111152862 20.221537935536844 -0.5011757734957973 0 0 0
2661 10 39.80083080855606 17.464055489782364 -0.5011757734948554 0 0 0
2645 14 38.208797576214764 20.22153793553682 -0.5011757734960962 0 0 0
2659 16 41.39286404089757 20.221537935536862 -0.5011757734957635 0 0 0
2657 12 42.984897273240556 17.4640554897813 -0.5011757734969771 0 0 0
2685 10 46.168963737925026 17.464055489782414 -0.5011757734949169 0 0 0
2669 14 44.57693050558378 20.22153793553683 -0.5011757734960675 0 0 0
2681 12 49.35303020260955 17.46405548978132 -0.501175773496977 0 0 0
2683 16 47.76099697026656 20.22153793553685 -0.5011757734957105 0 0 0
2325 10 52.537096667294016 17.464055489782346 -0.5011757734947657 -1 0 0
2309 14 50.94506343495276 20.221537935536812 -0.5011757734961589 -1 0 0
2323 16 54.129129899635565 20.221537935536873 -0.5011757734957228 -1 0 0
2321 12 55.72116313197855 17.46405548978129 -0.5011757734969593 -1 0 0
2349 10 58.90522959666299 17.46405548978237 -0.5011757734948832 -1 0 0
2333 14 57.313196364321776 20.221537935536812 -0.5011757734961633 -1 0 0
2345 12 62.089296061347575 17.464055489781277 -0.5011757734969475 -1 0 0
2347 16 60.497262829004576 20.22153793553691 -0.5011757734956847 -1 0 0
2373 10 65.273362526032 17.464055489782403 -0.5011757734948208 -1 0 0
2357 14 63.681329293690816 20.2215379355368 -0.5011757734960841 -1 0 0
2371 16 66.86539575837361 20.221537935536865 -0.5011757734956862 -1 0 0
2369 12 68.45742899071665 17.46405548978133 -0.5011757734970568 -1 0 0
2397 10 71.64149545540097 17.46405548978235 -0.5011757734948661 -1 0 0
2381 14 70.0494622230597 20.221537935536833 -0.5011757734961889 -1 0 0
2393 12 74.82556192008556 17.464055489781302 -0.5011757734969534 -1 0 0
2395 16 73.23352868774256 20.221537935536883 -0.5011757734958034 -1 0 0
2421 10 78.00962838477 17.4640554897823 -0.5011757734948108 -1 0 0
2405 14 76.41759515242869 20.22153793553686 -0.5011757734960753 -1 0 0
2419 16 79.60166161711156 20.221537935536844 -0.5011757734958827 -1 0 0
2417 12 81.19369484945453 17.464055489781302 -0.5011757734969422 -1 0 0
2445 10 84.37776131413901 17.46405548978242 -0.5011757734947612 -1 0 0
2429 14 82.78572808179783 20.221537935536784 -0.5011757734958645 -1 0 0
2441 12 87.56182777882356 17.464055489781266 -0.5011757734971963 -1 0 0
2443 16 85.96979454648059 20.221537935536823 -0.5011757734957573 -1 0 0
2469 10 90.74589424350799 17.464055489782382 -0.5011757734947422 -1 0 0
2453 14 89.15386101116687 20.22153793553682 -0.5011757734962032 -1 0 0
2467 16 92.33792747584958 20.221537935536855 -0.5011757734956322 -1 0 0
2465 12 93.92996070819258 17.464055489781302 -0.5011757734968971 -1 0 0
2493 10 97.1140271728771 17.46405548978235 -0.5011757734948197 -1 0 0
2477 14 95.52199394053578 20.2215379355368 -0.5011757734960979 -1 0 0
2489 12 100.29809363756158 17.46405548978128 -0.5011757734970509 -1 0 0
2491 16 98.70606040521858 20.22153793553695 -0.501175773495818 -1 0 0
2514 12 1.5920332323421114 22.979020381291328 -0.5011757734969338 0 0 0
2502 14 3.1840664646852326 25.736502827046817 -0.5011757734960735 0 0 0
2518 10 4.7760996970266145 22.979020381292386 -0.50117577349487 0 0 0
2538 12 7.960166161711182 22.9790203812913 -0.5011757734969705 0 0 0
2540 16 6.368132929368051 25.736502827046873 -0.5011757734957115 0 0 0
2542 10 11.144232626395592 22.979020381292354 -0.5011757734948283 0 0 0
2526 14 9.552199394054254 25.73650282704683 -0.5011757734961366 0 0 0
2564 16 12.736265858737086 25.736502827046852 -0.5011757734957389 0 0 0
2562 12 14.328299091080137 22.979020381291342 -0.5011757734970006 0 0 0
2550 14 15.92033232342324 25.73650282704681 -0.5011757734960787 0 0 0
2566 10 17.512365555764635 22.979020381292393 -0.5011757734948542 0 0 0
2586 12 20.69643202044915 22.97902038129132 -0.5011757734969674 0 0 0
2588 16 19.104398788106057 25.736502827046863 -0.5011757734957296 0 0 0
2590 10 23.880498485133614 22.979020381292354 -0.501175773494893 0 0 0
2574 14 22.288465252792243 25.73650282704681 -0.5011757734961062 0 0 0
2612 16 25.47253171747507 25.73650282704684 -0.5011757734957519 0 0 0
2610 12 27.06456494981815 22.97902038129131 -0.5011757734969644 0 0 0
2598 14 28.65659818216123 25.736502827046817 -0.5011757734960492 0 0 0
2614 10 30.24863141450261 22.979020381292376 -0.5011757734948735 0 0 0
2634 12 33.432697879187145 22.979020381291306 -0.5011757734970136 0 0 0
2636 16 31.84066464684405 25.736502827046852 -0.5011757734957315 0 0 0
2638 10 36.616764343871644 22.979020381292365 -0.5011757734948407 0 0 0
2622 14 35.024731111530265 25.73650282704683 -0.5011757734960356 0 0 0
2660 16 38.208797576213065 25.736502827046852 -0.5011757734958053 0 0 0
2658 12 39.80083080855613 22.979020381291317 -0.5011757734970381 0 0 0
2646 14 41.39286404089921 25.73650282704683 -0.5011757734961086 0 0 0
2662 10 42.984897273240605 22.979020381292365 -0.5011757734948274 0 0 0
2682 12 46.16896373792515 22.979020381291328 -0.5011757734969442 0 0 0
2684 16 44.57693050558206 25.736502827046838 -0.5011757734956859 0 0 0
2686 10 49.3530302026096 22.979020381292372 -0.5011757734948687 0 0 0
2670 14 47.76099697026824 25.736502827046802 -0.501175773496142 0 0 0
2324 16 50.94506343495104 25.736502827046877 -0.5011757734957716 -1 0 0
2322 12 52.53709666729415 22.97902038129129 -0.5011757734969935 -1 0 0
2310 14 54.129129899637256 25.736502827046817 -0.5011757734961099 -1 0 0
2326 10 55.72116313197857 22.979020381292383 -0.5011757734947906 -1 0 0
2346 12 58.905229596663204 22.97902038129129 -0.5011757734970298 -1 0 0
2348 16 57.31319636432001 25.736502827046877 -0.5011757734956857 -1 0 0
2350 10 62.08929606134751 22.979020381292422 -0.5011757734948156 -1 0 0
2334 14 60.49726282900629 25.736502827046785 -0.5011757734961654 -1 0 0
2372 16 63.68132929368898 25.736502827046888 -0.5011757734957377 -1 0 0
2370 12 65.27336252603219 22.979020381291306 -0.5011757734969704 -1 0 0
2358 14 66.86539575837516 25.736502827046802 -0.5011757734961062 -1 0 0
2374 10 68.45742899071662 22.97902038129232 -0.5011757734948264 -1 0 0
2394 12 71.64149545540111 22.97902038129133 -0.5011757734970209 -1 0 0
2396 16 70.04946222305809 25.736502827046856 -0.5011757734957007 -1 0 0
2398 10 74.82556192008558 22.979020381292354 -0.5011757734947624 -1 0 0
2382 14 73.2335286877442 25.73650282704682 -0.5011757734961109 -1 0 0
2420 16 76.41759515242701 25.736502827046877 -0.5011757734957496 -1 0 0
2418 12 78.00962838477005 22.979020381291324 -0.5011757734969453 -1 0 0
2406 14 79.60166161711318 25.73650282704681 -0.5011757734960611 -1 0 0
2422 10 81.19369484945466 22.97902038129236 -0.5011757734948452 -1 0 0
2442 12 84.37776131413918 22.97902038129133 -0.5011757734969025 -1 0 0
2444 16 82.78572808179615 25.736502827046845 -0.501175773495688 -1 0 0
2446 10 87.56182777882366 22.97902038129242 -0.5011757734948786 -1 0 0
2430 14 85.96979454648226 25.736502827046802 -0.5011757734961001 -1 0 0
2468 16 89.15386101116499 25.736502827046856 -0.5011757734957465 -1 0 0
2466 12 90.7458942435082 22.97902038129131 -0.5011757734971024 -1 0 0
2454 14 92.33792747585123 25.736502827046795 -0.5011757734961041 -1 0 0
2470 10 93.92996070819261 22.979020381292372 -0.501175773494808 -1 0 0
2490 12 97.11402717287726 22.97902038129128 -0.5011757734969299 -1 0 0
2492 16 95.52199394053407 25.736502827046863 -0.5011757734956566 -1 0 0
2516 16 101.89012686990304 25.73650282704684 -0.5011757734957702 -1 0 0
2494 10 100.29809363756155 22.979020381292358 -0.5011757734949013 -1 0 0
2478 14 98.70606040522027 25.736502827046838 -0.501175773496156 -1 0 0
2901 10 1.5920332323420445 28.49398527280244 -0.5011757734948108 0 0 0
2897 12 4.776099697026563 28.493985272801318 -0.5011757734970146 0 0 0
2925 10 7.960166161711013 28.493985272802394 -0.5011757734948487 0 0 0
2921 12 11.144232626395585 28.493985272801318 -0.5011757734969849 0 0 0
2949 10 14.328299091080028 28.493985272802384 -0.5011757734948334 0 0 0
2945 12 17.51236555576459 28.493985272801307 -0.5011757734970227 0 0 0
2973 10 20.696432020449013 28.493985272802377 -0.5011757734948493 0 0 0
2969 12 23.880498485133547 28.493985272801314 -0.5011757734970019 0 0 0
2997 10 27.064564949818013 28.493985272802377 -0.5011757734948169 0 0 0
2993 12 30.248631414502576 28.493985272801307 -0.5011757734970071 0 0 0
3021 10 33.43269787918703 28.493985272802384 -0.5011757734948489 0 0 0
3017 12 36.61676434387156 28.4939852728013 -0.5011757734969665 0 0 0
3045 10 39.80083080855602 28.49398527280239 -0.5011757734949035 0 0 0
3041 12 42.984897273240534 28.493985272801304 -0.5011757734969856 0 0 0
3069 10 46.16896373792502 28.493985272802412 -0.501175773494902 0 0 0
3065 12 49.35303020260956 28.493985272801364 -0.5011757734969904 0 0 0
2709 10 52.53709666729399 28.49398527280236 -0.5011757734948928 -1 0 0
2705 12 55.72116313197858 28.49398527280129 -0.5011757734969818 -1 0 0
2733 10 58.90522959666297 28.493985272802394 -0.5011757734948359 -1 0 0
2729 12 62.08929606134762 28.493985272801307 -0.5011757734970541 -1 0 0
2757 10 65.27336252603197 28.493985272802394 -0.5011757734948281 -1 0 0
2753 12 68.45742899071661 28.493985272801357 -0.501175773497063 -1 0 0
2781 10 71.64149545540104 28.493985272802334 -0.5011757734948855 -1 0 0
2777 12 74.82556192008553 28.493985272801325 -0.5011757734970405 -1 0 0
2805 10 78.00962838476997 28.493985272802373 -0.5011757734948489 -1 0 0
2801 12 81.19369484945457 28.493985272801336 -0.5011757734969338 -1 0 0
2829 10 84.377761314139 28.493985272802433 -0.5011757734948246 -1 0 0
2825 12 87.56182777882354 28.49398527280124 -0.5011757734971466 -1 0 0
2853 10 90.74589424350802 28.493985272802448 -0.5011757734947673 -1 0 0
2849 12 93.92996070819257 28.493985272801297 -0.5011757734969687 -1 0 0
2877 10 97.11402717287704 28.49398527280239 -0.5011757734947485 -1 0 0
2873 12 100.29809363756158 28.493985272801268 -0.5011757734971146 -1 0 0
2885 14 8.668621376273222e-13 31.25146771855681 -0.5011757734961121 0 0 0
2899 16 3.1840664646835397 31.251467718556796 -0.5011757734956568 0 0 0
2898 12 1.5920332323421038 34.00895016431134 -0.5011757734969527 0 0 0
2909 14 6.368132929369782 31.251467718556814 -0.5011757734961093 0 0 0
2902 10 4.77609969702662 34.00895016431243 -0.5011757734948851 0 0 0
2922 12 7.960166161711159 34.008950164311365 -0.5011757734970586 0 0 0
2923 16 9.552199394052588 31.251467718556864 -0.5011757734957044 0 0 0
2926 10 11.144232626395604 34.008950164312466 -0.5011757734947956 0 0 0
2933 14 12.736265858738776 31.251467718556803 -0.5011757734960361 0 0 0
2947 16 15.920332323421587 31.251467718556842 -0.5011757734957141 0 0 0
2946 12 14.328299091080162 34.00895016431136 -0.5011757734970688 0 0 0
2957 14 19.104398788107787 31.251467718556803 -0.5011757734960971 0 0 0
2950 10 17.512365555764607 34.00895016431244 -0.5011757734948452 0 0 0
2970 12 20.69643202044916 34.00895016431132 -0.501175773496978 0 0 0
2971 16 22.28846525279058 31.25146771855685 -0.5011757734957163 0 0 0
2974 10 23.880498485133597 34.0089501643124 -0.5011757734948588 0 0 0
2981 14 25.47253171747678 31.251467718556814 -0.5011757734961015 0 0 0
2995 16 28.656598182159573 31.251467718556874 -0.5011757734956821 0 0 0
2994 12 27.06456494981818 34.00895016431132 -0.5011757734971026 0 0 0
3005 14 31.840664646845806 31.251467718556825 -0.5011757734960606 0 0 0
2998 10 30.24863141450262 34.00895016431241 -0.5011757734948084 0 0 0
3018 12 33.432697879187124 34.008950164311294 -0.501175773497037 0 0 0
3019 16 35.02473111152859 31.251467718556857 -0.501175773495746 0 0 0
3022 10 36.616764343871644 34.008950164312374 -0.5011757734948148 0 0 0
3029 14 38.208797576214806 31.25146771855682 -0.5011757734960538 0 0 0
3043 16 41.39286404089755 31.251467718556842 -0.5011757734957001 0 0 0
3042 12 39.80083080855613 34.008950164311315 -0.5011757734970845 0 0 0
3053 14 44.5769305055838 31.251467718556796 -0.501175773496038 0 0 0
3046 10 42.98489727324059 34.00895016431246 -0.5011757734947934 0 0 0
3066 12 46.16896373792516 34.008950164311315 -0.5011757734970415 0 0 0
3067 16 47.76099697026661 31.25146771855681 -0.5011757734956944 0 0 0
3070 10 49.35303020260958 34.008950164312374 -0.5011757734948655 0 0 0
2693 14 50.94506343495271 31.251467718556768 -0.5011757734960749 -1 0 0
2707 16 54.12912989963557 31.25146771855685 -0.5011757734957231 -1 0 0
2706 12 52.53709666729416 34.00895016431132 -0.5011757734969594 -1 0 0
2717 14 57.3131963643218 31.251467718556803 -0.5011757734960909 -1 0 0
2710 10 55.72116313197861 34.008950164312395 -0.5011757734948089 -1 0 0
2730 12 58.90522959666322 34.008950164311315 -0.5011757734970277 -1 0 0
2731 16 60.49726282900459 31.251467718556878 -0.5011757734956436 -1 0 0
2734 10 62.089296061347525 34.00895016431241 -0.5011757734948795 -1 0 0
2741 14 63.681329293690766 31.251467718556746 -0.5011757734961476 -1 0 0
2755 16 66.86539575837355 31.25146771855688 -0.5011757734955966 -1 0 0
2754 12 65.27336252603219 34.008950164311315 -0.5011757734970494 -1 0 0
2765 14 70.04946222305976 31.2514677185568 -0.5011757734960072 -1 0 0
2758 10 68.45742899071658 34.00895016431237 -0.501175773494735 -1 0 0
2778 12 71.64149545540121 34.0089501643114 -0.5011757734969493 -1 0 0
2779 16 73.23352868774266 31.25146771855685 -0.5011757734958603 -1 0 0
2782 10 74.82556192008563 34.00895016431242 -0.5011757734949799 -1 0 0
2789 14 76.41759515242869 31.251467718556814 -0.5011757734960752 -1 0 0
2803 16 79.6016616171115 31.251467718556825 -0.5011757734957007 -1 0 0
2802 12 78.00962838477008 34.008950164311365 -0.501175773496932 -1 0 0
2813 14 82.78572808179779 31.251467718556757 -0.5011757734959471 -1 0 0
2806 10 81.19369484945462 34.0089501643124 -0.501175773494923 -1 0 0
2826 12 84.37776131413922 34.00895016431137 -0.5011757734970446 -1 0 0
2827 16 85.96979454648053 31.251467718556864 -0.5011757734957217 -1 0 0
2830 10 87.5618277788236 34.00895016431244 -0.5011757734947893 -1 0 0
2837 14 89.15386101116688 31.251467718556864 -0.5011757734961119 -1 0 0
2851 16 92.3379274758495 31.2514677185568 -0.5011757734956936 -1 0 0
2850 12 90.74589424350808 34.00895016431133 -0.5011757734970301 -1 0 0
2861 14 95.52199394053584 31.25146771855677 -0.5011757734960697 -1 0 0
2854 10 93.92996070819265 34.00895016431239 -0.501175773494845 -1 0 0
2874 12 97.1140271728773 34.008950164311344 -0.5011757734968306 -1 0 0
2875 16 98.70606040521857 31.251467718556917 -0.5011757734958933 -1 0 0