LAMMPS data file via write_data, version 2 Aug 2023, timestep = 28, units = metal

10368 atoms
36 atom types

0 101.890126869904 xlo xhi
0 99.26936804718 ylo yhi
-50 50 zlo zhi

Masses

1 95.95
2 95.95
3 95.95
4 95.95
5 95.95
6 95.95
7 95.95
8 95.95
9 95.95
10 95.95
11 95.95
12 95.95
13 32.06
14 32.06
15 32.06
16 32.06
17 32.06
18 32.06
19 32.06
20 32.06
21 32.06
22 32.06
23 32.06
24 32.06
25 32.06
26 32.06
27 32.06
28 32.06
29 32.06
30 32.06
31 32.06
32 32.06
33 32.06
34 32.06
35 32.06
36 32.06

Atoms # atomic

1752 16 1.5920332323425543 0.9191608152514914 -1.0772867851266426 0 0 0
1736 18 3.1840664646849697 3.6766432610066055 -1.0772867851264374 0 0 0
1746 14 4.77609969702635 0.9191608152520913 -1.0772867851252366 0 0 0
1776 16 7.960166161711539 0.9191608152515622 -1.077286785126729 0 0 0
1758 20 6.368132929368398 3.6766432610070416 -1.0772867851253505 0 0 0
1770 14 11.14423262639541 0.9191608152521238 -1.0772867851252252 0 0 0
1760 18 9.552199394053964 3.6766432610065585 -1.0772867851264925 0 0 0
1782 20 12.73626585873738 3.6766432610070265 -1.0772867851254353 0 0 0
1800 16 14.328299091080497 0.9191608152514961 -1.0772867851266277 0 0 0
1784 18 15.920332323423025 3.6766432610065714 -1.077286785126378 0 0 0
1794 14 17.512365555764323 0.9191608152521669 -1.0772867851252743 0 0 0
1824 16 20.696432020449574 0.9191608152515456 -1.0772867851267338 0 0 0
1806 20 19.104398788106376 3.67664326100701 -1.0772867851253325 0 0 0
1818 14 23.88049848513344 0.919160815252077 -1.07728678512516 0 0 0
1808 18 22.288465252791966 3.6766432610065767 -1.0772867851264518 0 0 0
1830 20 25.47253171747534 3.676643261007051 -1.0772867851255146 0 0 0
1848 16 27.0645649498185 0.919160815251428 -1.0772867851265926 0 0 0
1832 18 28.656598182161055 3.6766432610065953 -1.0772867851265022 0 0 0
1842 14 30.248631414502295 0.9191608152521413 -1.0772867851251906 0 0 0
1872 16 33.43269787918761 0.9191608152514957 -1.077286785126629 0 0 0
1854 20 31.840664646844374 3.6766432610069657 -1.0772867851254158 0 0 0
1866 14 36.61676434387126 0.9191608152520859 -1.0772867851251746 0 0 0
1856 18 35.02473111152998 3.6766432610066344 -1.077286785126408 0 0 0
1878 20 38.20879757621338 3.6766432610069986 -1.077286785125503 0 0 0
1896 16 39.80083080855656 0.9191608152515215 -1.0772867851265653 0 0 0
1880 18 41.392864040898985 3.6766432610066078 -1.0772867851262768 0 0 0
1890 14 42.98489727324027 0.9191608152521394 -1.0772867851251562 0 0 0
1920 16 46.16896373792557 0.9191608152515264 -1.0772867851268066 0 0 0
1902 20 44.57693050558239 3.676643261006993 -1.077286785125382 0 0 0
1914 14 49.35303020260936 0.9191608152521648 -1.0772867851252343 0 0 0
1904 18 47.76099697026799 3.6766432610065567 -1.0772867851263306 0 0 0
1542 20 50.94506343495137 3.676643261006983 -1.077286785125341 -1 0 0
1560 16 52.53709666729455 0.9191608152515286 -1.077286785126593 -1 0 0
1544 18 54.129129899637014 3.676643261006542 -1.077286785126423 -1 0 0
1554 14 55.721163131978244 0.9191608152521404 -1.0772867851253127 -1 0 0
1584 16 58.905229596663624 0.9191608152515274 -1.0772867851267425 -1 0 0
1566 20 57.31319636432036 3.676643261007081 -1.0772867851253556 -1 0 0
1578 14 62.08929606134732 0.9191608152522035 -1.0772867851250467 -1 0 0
1568 18 60.49726282900603 3.6766432610065007 -1.0772867851264174 -1 0 0
1590 20 63.68132929368926 3.6766432610069937 -1.0772867851253758 -1 0 0
1608 16 65.27336252603264 0.91916081525147 -1.0772867851267849 -1 0 0
1592 18 66.86539575837503 3.67664326100658 -1.0772867851263015 -1 0 0
1602 14 68.45742899071624 0.9191608152522629 -1.0772867851252685 -1 0 0
1632 16 71.64149545540185 0.9191608152514721 -1.0772867851266608 -1 0 0
1614 20 70.04946222305828 3.676643261006962 -1.0772867851253283 -1 0 0
1626 14 74.82556192008514 0.9191608152522127 -1.0772867851252146 -1 0 0
1616 18 73.23352868774411 3.6766432610065225 -1.0772867851264327 -1 0 0
1638 20 76.41759515242744 3.676643261007044 -1.0772867851253065 -1 0 0
1656 16 78.00962838477064 0.9191608152516306 -1.0772867851269203 -1 0 0
1640 18 79.60166161711301 3.676643261006543 -1.0772867851262498 -1 0 0
1650 14 81.19369484945435 0.9191608152521945 -1.0772867851251462 -1 0 0
1680 16 84.37776131413949 0.9191608152515083 -1.077286785126794 -1 0 0
1662 20 82.7857280817964 3.6766432610068804 -1.0772867851255745 -1 0 0
1674 14 87.5618277788234 0.9191608152521543 -1.0772867851251275 -1 0 0
1664 18 85.96979454648196 3.676643261006629 -1.0772867851262304 -1 0 0
1686 20 89.15386101116526 3.676643261007084 -1.077286785125517 -1 0 0
1704 16 90.7458942435086 0.9191608152514117 -1.077286785126576 -1 0 0
1688 18 92.33792747585117 3.676643261006626 -1.0772867851264196 -1 0 0
1698 14 93.9299607081923 0.9191608152521384 -1.0772867851250332 -1 0 0
1728 16 97.1140271728776 0.9191608152514396 -1.0772867851267427 -1 0 0
1710 20 95.52199394053433 3.6766432610069577 -1.0772867851255001 -1 0 0
1734 20 101.89012686990336 3.6766432610069724 -1.0772867851254744 -1 0 0
1722 14 100.29809363756125 0.9191608152520294 -1.0772867851251988 -1 0 0
1712 18 98.70606040522006 3.6766432610067383 -1.0772867851264871 -1 0 0
2129 14 1.592033232341775 6.434125706762132 -1.077286785125185 0 0 0
2135 16 4.776099697026955 6.434125706761484 -1.0772867851265562 0 0 0
2153 14 7.960166161710677 6.4341257067621145 -1.077286785125194 0 0 0
2159 16 11.144232626395917 6.434125706761538 -1.077286785126687 0 0 0
2177 14 14.328299091079733 6.434125706762138 -1.0772867851251973 0 0 0
2183 16 17.512365555764937 6.434125706761487 -1.0772867851266743 0 0 0
2201 14 20.696432020448732 6.434125706762144 -1.0772867851251533 0 0 0
2207 16 23.88049848513391 6.434125706761508 -1.0772867851266614 0 0 0
2225 14 27.06456494981774 6.43412570676214 -1.0772867851251207 0 0 0
2231 16 30.248631414502892 6.434125706761483 -1.077286785126743 0 0 0
2249 14 33.43269787918675 6.434125706762163 -1.07728678512504 0 0 0
2255 16 36.6167643438718 6.434125706761469 -1.0772867851267605 0 0 0
2273 14 39.80083080855582 6.434125706762106 -1.0772867851252181 0 0 0
2279 16 42.98489727324083 6.43412570676154 -1.0772867851265893 0 0 0
2297 14 46.16896373792476 6.434125706762098 -1.0772867851253358 0 0 0
2303 16 49.353030202609894 6.434125706761586 -1.0772867851265158 0 0 0
1937 14 52.53709666729377 6.434125706762046 -1.0772867851253831 -1 0 0
1943 16 55.72116313197895 6.4341257067614706 -1.0772867851265153 -1 0 0
1961 14 58.90522959666265 6.434125706762109 -1.077286785125192 -1 0 0
1967 16 62.08929606134793 6.43412570676154 -1.0772867851268022 -1 0 0
1985 14 65.27336252603175 6.434125706762177 -1.0772867851250174 -1 0 0
1991 16 68.4574289907168 6.434125706761389 -1.077286785126905 -1 0 0
2009 14 71.64149545540074 6.434125706762231 -1.077286785125033 -1 0 0
2015 16 74.82556192008587 6.43412570676147 -1.0772867851268129 -1 0 0
2033 14 78.00962838476968 6.434125706762099 -1.077286785125098 -1 0 0
2039 16 81.19369484945486 6.43412570676157 -1.077286785126735 -1 0 0
2057 14 84.37776131413892 6.434125706762187 -1.0772867851252945 -1 0 0
2063 16 87.56182777882385 6.43412570676144 -1.0772867851266 -1 0 0
2081 14 90.74589424350776 6.4341257067621 -1.0772867851251833 -1 0 0
2087 16 93.92996070819285 6.434125706761473 -1.0772867851267505 -1 0 0
2105 14 97.11402717287687 6.434125706762167 -1.0772867851250463 -1 0 0
2111 16 100.2980936375618 6.434125706761465 -1.0772867851265902 -1 0 0
2119 18 3.666169163305734e-13 9.191608152516551 -1.0772867851265928 0 0 0
2117 20 3.184066464683735 9.191608152517068 -1.0772867851252887 0 0 0
2136 16 1.5920332323426118 11.94909059827151 -1.0772867851266115 0 0 0
2143 18 6.3681329293693665 9.191608152516542 -1.077286785126494 0 0 0
2130 14 4.7760996970263205 11.9490905982721 -1.0772867851251815 0 0 0
2160 16 7.960166161711607 11.949090598271503 -1.0772867851266597 0 0 0
2141 20 9.552199394052757 9.191608152517068 -1.077286785125265 0 0 0
2154 14 11.144232626395306 11.949090598272084 -1.0772867851251833 0 0 0
2167 18 12.736265858738346 9.191608152516551 -1.0772867851264156 0 0 0
2165 20 15.920332323421716 9.191608152517066 -1.077286785125369 0 0 0
2184 16 14.328299091080588 11.94909059827147 -1.0772867851266912 0 0 0
2191 18 19.10439878810737 9.191608152516581 -1.0772867851264305 0 0 0
2178 14 17.512365555764354 11.94909059827212 -1.0772867851251196 0 0 0
2208 16 20.696432020449535 11.9490905982715 -1.0772867851266854 0 0 0
2189 20 22.28846525279071 9.191608152517013 -1.077286785125358 0 0 0
2202 14 23.88049848513336 11.949090598272097 -1.077286785125234 0 0 0
2215 18 25.472531717476386 9.191608152516569 -1.077286785126377 0 0 0
2213 20 28.656598182159698 9.191608152517066 -1.0772867851253127 0 0 0
2232 16 27.064564949818553 11.949090598271475 -1.0772867851266361 0 0 0
2239 18 31.840664646845397 9.191608152516565 -1.0772867851264303 0 0 0
2226 14 30.248631414502324 11.949090598272134 -1.0772867851251715 0 0 0
2256 16 33.43269787918756 11.94909059827149 -1.0772867851267014 0 0 0
2237 20 35.02473111152868 9.191608152517007 -1.0772867851253476 0 0 0
2250 14 36.61676434387143 11.949090598272083 -1.07728678512514 0 0 0
2263 18 38.2087975762144 9.19160815251665 -1.0772867851263879 0 0 0
2261 20 41.392864040897805 9.191608152517027 -1.0772867851254173 0 0 0
2280 16 39.800830808556476 11.949090598271502 -1.077286785126585 0 0 0
2287 18 44.576930505583285 9.191608152516569 -1.0772867851264833 0 0 0
2274 14 42.98489727324036 11.949090598272123 -1.077286785125215 0 0 0
2304 16 46.168963737925516 11.949090598271551 -1.0772867851266292 0 0 0
2285 20 47.7609969702668 9.191608152517023 -1.0772867851253347 0 0 0
2298 14 49.353030202609325 11.9490905982721 -1.0772867851252148 0 0 0
1927 18 50.94506343495218 9.191608152516583 -1.0772867851264367 -1 0 0
1925 20 54.1291298996358 9.191608152517093 -1.0772867851254548 -1 0 0
1944 16 52.537096667294556 11.949090598271514 -1.0772867851265524 -1 0 0
1951 18 57.31319636432133 9.191608152516556 -1.0772867851263823 -1 0 0
1938 14 55.72116313197831 11.949090598272068 -1.0772867851251497 -1 0 0
1968 16 58.905229596663574 11.94909059827148 -1.0772867851266534 -1 0 0
1949 20 60.49726282900475 9.191608152517036 -1.0772867851253753 -1 0 0
1962 14 62.08929606134731 11.949090598272132 -1.0772867851251475 -1 0 0
1975 18 63.681329293690446 9.191608152516558 -1.0772867851263401 -1 0 0
1973 20 66.86539575837357 9.19160815251712 -1.077286785125442 -1 0 0
1992 16 65.2733625260326 11.949090598271479 -1.0772867851266221 -1 0 0
1999 18 70.04946222305954 9.191608152516622 -1.0772867851264367 -1 0 0
1986 14 68.45742899071637 11.949090598272049 -1.0772867851250685 -1 0 0
2016 16 71.6414954554016 11.9490905982715 -1.0772867851266743 -1 0 0
1997 20 73.2335286877426 9.191608152517022 -1.0772867851252534 -1 0 0
2010 14 74.82556192008532 11.949090598272127 -1.0772867851252457 -1 0 0
2023 18 76.41759515242845 9.19160815251658 -1.07728678512661 -1 0 0
2021 20 79.60166161711177 9.191608152516977 -1.077286785125267 -1 0 0
2040 16 78.00962838477052 11.94909059827158 -1.0772867851266363 -1 0 0
2047 18 82.78572808179742 9.191608152516526 -1.0772867851262535 -1 0 0
2034 14 81.19369484945443 11.949090598272129 -1.0772867851251424 -1 0 0
2064 16 84.37776131413952 11.949090598271424 -1.0772867851267418 -1 0 0
2045 20 85.9697945464808 9.191608152517027 -1.0772867851254928 -1 0 0
2058 14 87.56182777882336 11.949090598272191 -1.0772867851250567 -1 0 0
2071 18 89.15386101116641 9.191608152516581 -1.0772867851264498 -1 0 0
2069 20 92.33792747584971 9.191608152517086 -1.0772867851254204 -1 0 0
2088 16 90.74589424350857 11.949090598271436 -1.077286785126677 -1 0 0
2095 18 95.5219939405354 9.191608152516595 -1.0772867851263874 -1 0 0
2082 14 93.92996070819238 11.949090598272159 -1.0772867851250587 -1 0 0
2112 16 97.11402717287763 11.949090598271406 -1.077286785126707 -1 0 0
2093 20 98.70606040521865 9.191608152517016 -1.0772867851252705 -1 0 0
2106 14 100.29809363756132 11.94909059827212 -1.0772867851252403 -1 0 0
2120 18 3.1840664646849586 14.706573044026609 -1.0772867851263568 0 0 0
2142 20 6.368132929368378 14.706573044027062 -1.0772867851254457 0 0 0
2144 18 9.552199394054 14.70657304402661 -1.0772867851264742 0 0 0
2166 20 12.736265858737363 14.706573044027081 -1.0772867851254275 0 0 0
2168 18 15.92033232342301 14.706573044026612 -1.0772867851264478 0 0 0
2190 20 19.104398788106362 14.706573044027053 -1.077286785125371 0 0 0
2192 18 22.288465252792 14.706573044026603 -1.0772867851264782 0 0 0
2214 20 25.472531717475366 14.706573044027092 -1.07728678512545 0 0 0
2216 18 28.656598182161005 14.706573044026586 -1.0772867851264825 0 0 0
2238 20 31.84066464684436 14.70657304402708 -1.07728678512538 0 0 0
2240 18 35.02473111152998 14.706573044026634 -1.0772867851264196 0 0 0
2262 20 38.20879757621339 14.706573044027024 -1.0772867851255359 0 0 0
2264 18 41.392864040899006 14.706573044026635 -1.0772867851263357 0 0 0
2286 20 44.576930505582425 14.706573044026989 -1.0772867851254415 0 0 0
2288 18 47.76099697026797 14.706573044026554 -1.077286785126421 0 0 0
1926 20 50.94506343495136 14.70657304402706 -1.0772867851253092 -1 0 0
1928 18 54.12912989963694 14.706573044026557 -1.0772867851265338 -1 0 0
1950 20 57.31319636432039 14.706573044027136 -1.077286785125367 -1 0 0
1952 18 60.497262829006054 14.706573044026573 -1.077286785126517 -1 0 0
1974 20 63.68132929368938 14.70657304402701 -1.077286785125366 -1 0 0
1976 18 66.865395758375 14.706573044026605 -1.077286785126536 -1 0 0
1998 20 70.04946222305843 14.70657304402703 -1.0772867851253636 -1 0 0
2000 18 73.233528687744 14.706573044026609 -1.077286785126553 -1 0 0
2022 20 76.41759515242732 14.706573044027035 -1.0772867851253136 -1 0 0
2024 18 79.60166161711291 14.706573044026577 -1.0772867851263057 -1 0 0
2046 20 82.78572808179631 14.70657304402706 -1.0772867851255714 -1 0 0
2048 18 85.96979454648202 14.706573044026609 -1.077286785126363 -1 0 0
2070 20 89.15386101116528 14.70657304402699 -1.077286785125438 -1 0 0
2072 18 92.33792747585106 14.70657304402662 -1.0772867851262888 -1 0 0
2094 20 95.52199394053429 14.706573044026964 -1.0772867851256405 -1 0 0
2118 20 101.89012686990336 14.706573044026964 -1.0772867851254047 -1 0 0
2096 18 98.70606040522 14.706573044026706 -1.0772867851263808 -1 0 0
2513 14 1.592033232341807 17.464055489782115 -1.077286785125205 0 0 0
2503 18 3.786743685963384e-13 20.221537935536603 -1.07728678512659 0 0 0
2501 20 3.1840664646837644 20.221537935536997 -1.0772867851253516 0 0 0
2519 16 4.776099697026887 17.464055489781526 -1.077286785126547 0 0 0
2537 14 7.960166161710732 17.464055489782105 -1.0772867851251648 0 0 0
2527 18 6.368132929369326 20.221537935536542 -1.077286785126495 0 0 0
2543 16 11.144232626395928 17.46405548978145 -1.0772867851265557 0 0 0
2525 20 9.552199394052748 20.221537935537047 -1.077286785125374 0 0 0
2561 14 14.328299091079728 17.464055489782094 -1.0772867851251255 0 0 0
2551 18 12.736265858738346 20.221537935536563 -1.077286785126526 0 0 0
2549 20 15.920332323421754 20.221537935537086 -1.0772867851254055 0 0 0
2567 16 17.51236555576493 17.464055489781476 -1.0772867851266208 0 0 0
2585 14 20.696432020448736 17.46405548978211 -1.077286785125142 0 0 0
2575 18 19.10439878810734 20.22153793553657 -1.077286785126497 0 0 0
2591 16 23.88049848513392 17.46405548978149 -1.0772867851266041 0 0 0
2573 20 22.288465252790743 20.221537935537057 -1.0772867851253647 0 0 0
2609 14 27.06456494981771 17.464055489782105 -1.0772867851251235 0 0 0
2599 18 25.47253171747637 20.221537935536563 -1.077286785126473 0 0 0
2597 20 28.65659818215972 20.221537935537068 -1.0772867851253496 0 0 0
2615 16 30.24863141450293 17.46405548978147 -1.0772867851266263 0 0 0
2633 14 33.43269787918675 17.464055489782076 -1.0772867851250434 0 0 0
2623 18 31.84066464684538 20.22153793553658 -1.0772867851265315 0 0 0
2639 16 36.61676434387185 17.464055489781504 -1.077286785126711 0 0 0
2621 20 35.02473111152874 20.221537935537043 -1.0772867851254115 0 0 0
2657 14 39.80083080855579 17.464055489782126 -1.077286785125077 0 0 0
2647 18 38.20879757621441 20.221537935536617 -1.0772867851263428 0 0 0
2645 20 41.392864040897706 20.221537935537025 -1.077286785125482 0 0 0
2663 16 42.984897273240826 17.46405548978143 -1.0772867851267167 0 0 0
2681 14 46.16896373792478 17.464055489782172 -1.0772867851252 0 0 0
2671 18 44.57693050558343 20.22153793553659 -1.077286785126417 0 0 0
2687 16 49.35303020260996 17.464055489781494 -1.0772867851266341 0 0 0
2669 20 47.76099697026669 20.22153793553704 -1.0772867851253567 0 0 0
2321 14 52.537096667293696 17.46405548978208 -1.0772867851252497 -1 0 0
2311 18 50.94506343495239 20.221537935536638 -1.0772867851264676 -1 0 0
2309 20 54.12912989963578 20.22153793553705 -1.0772867851254337 -1 0 0
2327 16 55.72116313197902 17.464055489781497 -1.077286785126588 -1 0 0
2345 14 58.905229596662664 17.464055489782158 -1.0772867851250505 -1 0 0
2335 18 57.31319636432138 20.221537935536524 -1.077286785126389 -1 0 0
2351 16 62.08929606134791 17.464055489781437 -1.0772867851267705 -1 0 0
2333 20 60.49726282900466 20.221537935537032 -1.077286785125431 -1 0 0
2369 14 65.27336252603166 17.464055489782243 -1.0772867851250114 -1 0 0
2359 18 63.68132929369052 20.221537935536542 -1.0772867851263443 -1 0 0
2357 20 66.86539575837361 20.221537935537068 -1.0772867851253147 -1 0 0
2375 16 68.45742899071692 17.46405548978138 -1.0772867851268093 -1 0 0
2393 14 71.6414954554007 17.46405548978218 -1.0772867851249996 -1 0 0
2383 18 70.04946222305958 20.22153793553655 -1.0772867851265133 -1 0 0
2399 16 74.825561920086 17.464055489781444 -1.0772867851268122 -1 0 0
2381 20 73.2335286877427 20.22153793553704 -1.0772867851252839 -1 0 0
2417 14 78.0096283847697 17.464055489782137 -1.077286785125025 -1 0 0
2407 18 76.41759515242846 20.221537935536613 -1.0772867851265993 -1 0 0
2405 20 79.60166161711169 20.221537935536954 -1.0772867851254597 -1 0 0
2423 16 81.19369484945483 17.464055489781497 -1.0772867851267318 -1 0 0
2441 14 84.37776131413872 17.464055489782133 -1.0772867851251715 -1 0 0
2431 18 82.78572808179739 20.221537935536652 -1.0772867851261894 -1 0 0
2447 16 87.5618277788239 17.46405548978155 -1.077286785126558 -1 0 0
2429 20 85.96979454648074 20.221537935536897 -1.077286785125573 -1 0 0
2465 14 90.74589424350788 17.464055489782066 -1.0772867851252057 -1 0 0
2455 18 89.15386101116624 20.22153793553664 -1.0772867851262886 -1 0 0
2453 20 92.33792747584981 20.221537935537082 -1.0772867851254497 -1 0 0
2471 16 93.92996070819278 17.46405548978153 -1.0772867851267063 -1 0 0
2489 14 97.11402717287685 17.464055489782194 -1.0772867851251204 -1 0 0
2479 18 95.52199394053537 20.22153793553649 -1.0772867851263759 -1 0 0
2495 16 100.29809363756183 17.464055489781448 -1.0772867851265724 -1 0 0
2477 20 98.70606040521865 20.22153793553702 -1.077286785125255 -1 0 0
2520 16 1.592033232342566 22.979020381291566 -1.0772867851266124 0 0 0
2504 18 3.184066464685024 25.73650282704651 -1.0772867851263077 0 0 0
2514 14 4.776099697026326 22.979020381292155 -1.0772867851251995 0 0 0
2544 16 7.960166161711612 22.97902038129156 -1.0772867851266628 0 0 0
2526 20 6.3681329293683575 25.736502827046955 -1.0772867851253578 0 0 0
2538 14 11.144232626395324 22.979020381292123 -1.0772867851251604 0 0 0
2528 18 9.55219939405399 25.736502827046557 -1.0772867851263708 0 0 0
2550 20 12.736265858737355 25.736502827047012 -1.0772867851253833 0 0 0
2568 16 14.328299091080579 22.97902038129151 -1.0772867851266101 0 0 0
2552 18 15.920332323422999 25.736502827046575 -1.0772867851264118 0 0 0
2562 14 17.512365555764326 22.979020381292123 -1.0772867851251509 0 0 0
2592 16 20.69643202044958 22.97902038129151 -1.0772867851266248 0 0 0
2574 20 19.10439878810639 25.736502827046973 -1.0772867851254007 0 0 0
2586 14 23.880498485133334 22.979020381292116 -1.0772867851252044 0 0 0
2576 18 22.28846525279199 25.736502827046603 -1.077286785126397 0 0 0
2598 20 25.47253171747534 25.73650282704704 -1.077286785125392 0 0 0
2616 16 27.064564949818575 22.979020381291487 -1.0772867851266688 0 0 0
2600 18 28.656598182161005 25.736502827046586 -1.0772867851264745 0 0 0
2610 14 30.24863141450232 22.979020381292123 -1.0772867851251595 0 0 0
2640 16 33.43269787918755 22.979020381291505 -1.0772867851267216 0 0 0
2622 20 31.840664646844335 25.73650282704706 -1.0772867851253443 0 0 0
2634 14 36.61676434387138 22.97902038129211 -1.0772867851251215 0 0 0
2624 18 35.024731111529995 25.736502827046614 -1.0772867851264172 0 0 0
2646 20 38.208797576213385 25.73650282704698 -1.0772867851254873 0 0 0
2664 16 39.800830808556476 22.979020381291498 -1.0772867851266006 0 0 0
2648 18 41.39286404089899 25.73650282704661 -1.0772867851263728 0 0 0
2658 14 42.984897273240435 22.979020381292173 -1.0772867851251613 0 0 0
2688 16 46.168963737925544 22.979020381291495 -1.0772867851266053 0 0 0
2670 20 44.57693050558239 25.736502827046984 -1.0772867851254038 0 0 0
2682 14 49.35303020260933 22.979020381292056 -1.077286785125182 0 0 0
2672 18 47.760996970267946 25.736502827046614 -1.0772867851264998 0 0 0
2310 20 50.94506343495144 25.73650282704707 -1.0772867851253616 -1 0 0
2328 16 52.537096667294506 22.979020381291512 -1.0772867851265335 -1 0 0
2312 18 54.129129899636965 25.73650282704651 -1.0772867851264467 -1 0 0
2322 14 55.72116313197834 22.979020381292113 -1.077286785125209 -1 0 0
2352 16 58.905229596663595 22.97902038129148 -1.0772867851267287 -1 0 0
2334 20 57.31319636432036 25.73650282704705 -1.0772867851253027 -1 0 0
2346 14 62.08929606134739 22.9790203812922 -1.0772867851251378 -1 0 0
2336 18 60.49726282900608 25.736502827046547 -1.07728678512645 -1 0 0
2358 20 63.68132929368926 25.73650282704701 -1.0772867851253296 -1 0 0
2376 16 65.27336252603261 22.979020381291427 -1.0772867851267431 -1 0 0
2360 18 66.86539575837492 25.736502827046603 -1.0772867851264862 -1 0 0
2370 14 68.4574289907163 22.979020381292127 -1.0772867851251653 -1 0 0
2400 16 71.64149545540167 22.97902038129152 -1.0772867851266072 -1 0 0
2382 20 70.04946222305831 25.73650282704701 -1.0772867851253982 -1 0 0
2394 14 74.8255619200853 22.979020381292116 -1.077286785125183 -1 0 0
2384 18 73.23352868774401 25.736502827046614 -1.0772867851264216 -1 0 0
2406 20 76.41759515242742 25.736502827046984 -1.0772867851253478 -1 0 0
2424 16 78.00962838477045 22.979020381291626 -1.0772867851267267 -1 0 0
2408 18 79.60166161711287 25.736502827046635 -1.0772867851263064 -1 0 0
2418 14 81.19369484945449 22.979020381292028 -1.0772867851251238 -1 0 0
2448 16 84.37776131413929 22.979020381291466 -1.0772867851266534 -1 0 0
2430 20 82.78572808179644 25.736502827047037 -1.077286785125565 -1 0 0
2442 14 87.56182777882353 22.979020381292212 -1.0772867851252668 -1 0 0
2432 18 85.969794546482 25.736502827046582 -1.077286785126411 -1 0 0
2454 20 89.15386101116529 25.736502827047016 -1.0772867851252241 -1 0 0
2472 16 90.74589424350853 22.97902038129146 -1.0772867851265242 -1 0 0
2456 18 92.33792747585096 25.73650282704656 -1.0772867851264794 -1 0 0
2466 14 93.92996070819231 22.979020381292163 -1.0772867851253434 -1 0 0
2496 16 97.11402717287764 22.979020381291598 -1.077286785126588 -1 0 0
2478 20 95.52199394053446 25.73650282704701 -1.0772867851252894 -1 0 0
2502 20 101.8901268699035 25.73650282704705 -1.0772867851252783 -1 0 0
2490 14 100.2980936375612 22.97902038129214 -1.077286785125291 -1 0 0
2480 18 98.70606040521994 25.73650282704647 -1.0772867851265115 -1 0 0
2897 14 1.5920332323416604 28.493985272802117 -1.0772867851252084 0 0 0
2903 16 4.776099697026922 28.493985272801567 -1.0772867851267658 0 0 0
2921 14 7.960166161710763 28.493985272802185 -1.0772867851252395 0 0 0
2927 16 11.144232626395903 28.493985272801538 -1.0772867851266887 0 0 0
2945 14 14.328299091079758 28.49398527280215 -1.0772867851252161 0 0 0
2951 16 17.51236555576491 28.49398527280153 -1.077286785126654 0 0 0
2969 14 20.696432020448746 28.493985272802142 -1.0772867851252277 0 0 0
2975 16 23.880498485133923 28.49398527280148 -1.0772867851266443 0 0 0
2993 14 27.06456494981773 28.49398527280213 -1.0772867851251564 0 0 0
2999 16 30.24863141450295 28.493985272801503 -1.0772867851265968 0 0 0
3017 14 33.432697879186755 28.493985272802064 -1.077286785125096 0 0 0
3023 16 36.61676434387184 28.49398527280152 -1.0772867851267003 0 0 0
3041 14 39.800830808555766 28.493985272802146 -1.0772867851252188 0 0 0
3047 16 42.984897273240875 28.493985272801524 -1.0772867851266086 0 0 0
3065 14 46.16896373792476 28.49398527280211 -1.0772867851253038 0 0 0
3071 16 49.35303020260992 28.493985272801503 -1.0772867851265355 0 0 0
2705 14 52.537096667293646 28.493985272802096 -1.0772867851252308 -1 0 0
2711 16 55.721163131979 28.493985272801527 -1.0772867851266466 -1 0 0
2729 14 58.9052295966627 28.493985272802153 -1.0772867851251224 -1 0 0
2735 16 62.089296061347945 28.493985272801478 -1.0772867851268215 -1 0 0
2753 14 65.27336252603176 28.493985272802156 -1.0772867851249328 -1 0 0
2759 16 68.4574289907169 28.493985272801417 -1.0772867851268253 -1 0 0
2777 14 71.64149545540077 28.49398527280215 -1.0772867851250263 -1 0 0
2783 16 74.82556192008595 28.49398527280147 -1.0772867851267576 -1 0 0
2801 14 78.00962838476977 28.493985272802103 -1.077286785125174 -1 0 0
2807 16 81.19369484945483 28.4939852728015 -1.077286785126675 -1 0 0
2825 14 84.3777613141387 28.493985272802178 -1.0772867851251917 -1 0 0
2831 16 87.56182777882388 28.49398527280143 -1.077286785126677 -1 0 0
2849 14 90.74589424350764 28.49398527280209 -1.0772867851251136 -1 0 0
2855 16 93.92996070819298 28.493985272801464 -1.0772867851267243 -1 0 0
2873 14 97.1140271728768 28.4939852728022 -1.077286785125214 -1 0 0
2879 16 100.29809363756202 28.493985272801556 -1.0772867851267942 -1 0 0
2887 18 3.358964918115586e-13 31.251467718556523 -1.077286785126475 0 0 0
2885 20 3.18406646468375 31.251467718557056 -1.0772867851252823 0 0 0
2904 16 1.5920332323425697 34.00895016431156 -1.0772867851265557 0 0 0
2911 18 6.368132929369355 31.251467718556537 -1.0772867851264423 0 0 0
2898 14 4.77609969702632 34.00895016431216 -1.077286785125222 0 0 0
2928 16 7.960166161711576 34.00895016431154 -1.0772867851266452 0 0 0
2909 20 9.552199394052744 31.251467718557038 -1.077286785125302 0 0 0
2922 14 11.14423262639534 34.0089501643121 -1.0772867851252392 0 0 0
2935 18 12.736265858738358 31.251467718556555 -1.0772867851264196 0 0 0
2933 20 15.920332323421777 31.251467718557016 -1.0772867851253003 0 0 0
2952 16 14.328299091080538 34.008950164311464 -1.07728678512666 0 0 0
2959 18 19.104398788107325 31.251467718556544 -1.0772867851264216 0 0 0
2946 14 17.512365555764326 34.00895016431211 -1.077286785125299 0 0 0
2976 16 20.69643202044959 34.00895016431149 -1.0772867851265837 0 0 0
2957 20 22.288465252790747 31.25146771855703 -1.077286785125371 0 0 0
2970 14 23.88049848513335 34.00895016431215 -1.0772867851251693 0 0 0
2983 18 25.47253171747637 31.25146771855658 -1.077286785126445 0 0 0
2981 20 28.65659818215973 31.25146771855699 -1.0772867851253713 0 0 0
3000 16 27.064564949818553 34.00895016431152 -1.0772867851266756 0 0 0
3007 18 31.840664646845337 31.251467718556572 -1.077286785126497 0 0 0
2994 14 30.24863141450238 34.00895016431216 -1.0772867851251582 0 0 0
3024 16 33.43269787918759 34.00895016431148 -1.0772867851266714 0 0 0
3005 20 35.024731111528766 31.251467718557077 -1.077286785125426 0 0 0
3018 14 36.616764343871374 34.0089501643121 -1.0772867851251444 0 0 0
3031 18 38.20879757621438 31.251467718556576 -1.077286785126382 0 0 0
3029 20 41.39286404089779 31.251467718556988 -1.0772867851253196 0 0 0
3048 16 39.80083080855655 34.00895016431148 -1.0772867851265866 0 0 0
3055 18 44.57693050558332 31.25146771855652 -1.0772867851264663 0 0 0
3042 14 42.98489727324029 34.00895016431215 -1.0772867851252903 0 0 0
3072 16 46.16896373792564 34.008950164311536 -1.0772867851266 0 0 0
3053 20 47.76099697026679 31.25146771855709 -1.0772867851253147 0 0 0
3066 14 49.353030202609325 34.008950164312054 -1.077286785125275 0 0 0
2695 18 50.94506343495231 31.251467718556576 -1.0772867851264414 -1 0 0
2693 20 54.129129899635814 31.251467718557013 -1.0772867851254961 -1 0 0
2712 16 52.53709666729452 34.00895016431158 -1.0772867851265409 -1 0 0
2719 18 57.31319636432141 31.251467718556608 -1.0772867851262484 -1 0 0
2706 14 55.7211631319784 34.00895016431208 -1.0772867851252725 -1 0 0
2736 16 58.90522959666342 34.0089501643115 -1.0772867851266692 -1 0 0
2717 20 60.49726282900467 31.251467718556988 -1.077286785125484 -1 0 0
2730 14 62.0892960613474 34.008950164312154 -1.0772867851251617 -1 0 0
2743 18 63.681329293690446 31.25146771855656 -1.0772867851263839 -1 0 0
2741 20 66.86539575837358 31.251467718557073 -1.0772867851253602 -1 0 0
2760 16 65.27336252603253 34.00895016431143 -1.0772867851267616 -1 0 0
2767 18 70.04946222305942 31.251467718556615 -1.0772867851265286 -1 0 0
2754 14 68.45742899071631 34.0089501643122 -1.0772867851251648 -1 0 0
2784 16 71.64149545540167 34.008950164311486 -1.077286785126526 -1 0 0
2765 20 73.23352868774263 31.251467718557034 -1.0772867851252061 -1 0 0
2778 14 74.82556192008532 34.008950164312104 -1.0772867851252519 -1 0 0
2791 18 76.41759515242842 31.251467718556533 -1.077286785126628 -1 0 0
2789 20 79.6016616171117 31.25146771855709 -1.0772867851253596 -1 0 0
2808 16 78.00962838477061 34.008950164311464 -1.0772867851266255 -1 0 0
2815 18 82.78572808179742 31.251467718556537 -1.0772867851264578 -1 0 0
2802 14 81.19369484945429 34.00895016431211 -1.0772867851250656 -1 0 0
2832 16 84.37776131413958 34.00895016431142 -1.0772867851266261 -1 0 0
2813 20 85.96979454648068 31.251467718557052 -1.0772867851253989 -1 0 0
2826 14 87.5618277788233 34.00895016431216 -1.0772867851250962 -1 0 0
2839 18 89.15386101116643 31.251467718556555 -1.0772867851265773 -1 0 0
2837 20 92.33792747584974 31.251467718557098 -1.0772867851252856 -1 0 0
2856 16 90.74589424350862 34.00895016431141 -1.077286785126734 -1 0 0
2863 18 95.52199394053542 31.25146771855647 -1.0772867851264085 -1 0 0
2850 14 93.92996070819223 34.00895016431222 -1.0772867851250643 -1 0 0
2880 16 97.1140271728776 34.008950164311436 -1.0772867851266938 -1 0 0
2861 20 98.70606040521866 31.251467718557063 -1.0772867851251857 -1 0 0