LAMMPS data file via write_data, version 2 Aug 2023, timestep = 0, units = metal

3456 atoms
12 atom types

0 101.890126869904 xlo xhi
0 99.26936804718 ylo yhi
0 18.127112646352 zlo zhi

Masses

1 95.95999999999999
2 95.95999999999999
3 95.95999999999999
4 95.95
5 32.06
6 32.06
7 32.06
8 32.06
9 32.06
10 32.06
11 32.06
12 32.06

Atoms # atomic

1748 8 1.5920332323420041 0.919160815251999 0 0 0 0
1730 1 0 0 1.563556323176 0 0 0
1752 2 3.184066464684001 0 1.563556323176 0 0 0
1750 6 4.776099697026005 0.919160815251999 0 0 0 0
1754 1 6.368132929369004 0 1.563556323176 0 0 0
1772 8 7.960166161711001 0.919160815251999 0 0 0 0
1776 2 9.552199394053005 0 1.563556323176 0 0 0
1774 6 11.144232626395002 0.919160815251999 0 0 0 0
1778 1 12.736265858738001 0 1.563556323176 0 0 0
1796 8 14.328299091080005 0.919160815251999 0 0 0 0
1798 6 17.512365555764 0.919160815251999 0 0 0 0
1800 2 15.92033232342201 0 1.563556323176 0 0 0
1802 1 19.104398788106998 0 1.563556323176 0 0 0
1820 8 20.696432020449002 0.919160815251999 0 0 0 0
1824 2 22.288465252791006 0 1.563556323176 0 0 0
1822 6 23.880498485132996 0.919160815251999 0 0 0 0
1826 1 25.47253171747601 0 1.563556323176 0 0 0
1844 8 27.064564949818 0.919160815251999 0 0 0 0
1848 2 28.656598182160003 0 1.563556323176 0 0 0
1846 6 30.248631414502007 0.919160815251999 0 0 0 0
1850 1 31.840664646845006 0 1.563556323176 0 0 0
1868 8 33.432697879186996 0.919160815251999 0 0 0 0
1872 2 35.024731111529 0 1.563556323176 0 0 0
1870 6 36.616764343871004 0.919160815251999 0 0 0 0
1874 1 38.208797576214 0 1.563556323176 0 0 0
1892 8 39.80083080855601 0.919160815251999 0 0 0 0
1896 2 41.392864040898 0 1.563556323176 0 0 0
1894 6 42.98489727324 0.919160815251999 0 0 0 0
1898 1 44.576930505583 0 1.563556323176 0 0 0
1916 8 46.168963737925004 0.919160815251999 0 0 0 0
1920 2 47.76099697026701 0 1.563556323176 0 0 0
1918 6 49.353030202609 0.919160815251999 0 0 0 0
1556 8 52.537096667293994 0.919160815251999 0 -1 0 0
1538 1 50.945063434952 0 1.563556323176 -1 0 0
1560 2 54.129129899636 0 1.563556323176 -1 0 0
1558 6 55.721163131977995 0.919160815251999 0 -1 0 0
1562 1 57.313196364320994 0 1.563556323176 -1 0 0
1580 8 58.905229596663 0.919160815251999 0 -1 0 0
1584 2 60.497262829004995 0 1.563556323176 -1 0 0
1582 6 62.089296061347 0.919160815251999 0 -1 0 0
1586 1 63.68132929369 0 1.563556323176 -1 0 0
1604 8 65.273362526032 0.919160815251999 0 -1 0 0
1606 6 68.457428990716 0.919160815251999 0 -1 0 0
1608 2 66.865395758374 0 1.563556323176 -1 0 0
1610 1 70.049462223059 0 1.563556323176 -1 0 0
1628 8 71.641495455401 0.919160815251999 0 -1 0 0
1632 2 73.23352868774299 0 1.563556323176 -1 0 0
1630 6 74.825561920085 0.919160815251999 0 -1 0 0
1634 1 76.41759515242799 0 1.563556323176 -1 0 0
1652 8 78.00962838477 0.919160815251999 0 -1 0 0
1656 2 79.601661617112 0 1.563556323176 -1 0 0
1654 6 81.193694849454 0.919160815251999 0 -1 0 0
1658 1 82.785728081797 0 1.563556323176 -1 0 0
1676 8 84.37776131413901 0.919160815251999 0 -1 0 0
1680 2 85.969794546481 0 1.563556323176 -1 0 0
1678 6 87.56182777882299 0.919160815251999 0 -1 0 0
1682 1 89.153861011166 0 1.563556323176 -1 0 0
1700 8 90.74589424350799 0.919160815251999 0 -1 0 0
1704 2 92.33792747585 0 1.563556323176 -1 0 0
1702 6 93.929960708192 0.919160815251999 0 -1 0 0
1706 1 95.521993940535 0 1.563556323176 -1 0 0
1724 8 97.114027172877 0.919160815251999 0 -1 0 0
1728 2 98.706060405219 0 1.563556323176 -1 0 0
1726 6 100.298093637561 0.919160815251999 0 -1 0 0
1740 4 1.5920332323420041 2.7574824457550022 1.563556323176 0 0 0
1739 3 4.776099697026005 2.7574824457550022 1.563556323176 0 0 0
1764 4 7.960166161711001 2.7574824457550022 1.563556323176 0 0 0
1763 3 11.144232626395002 2.7574824457550022 1.563556323176 0 0 0
1788 4 14.328299091080005 2.7574824457550022 1.563556323176 0 0 0
1787 3 17.512365555764 2.7574824457550022 1.563556323176 0 0 0
1812 4 20.696432020449002 2.7574824457550022 1.563556323176 0 0 0
1811 3 23.880498485132996 2.7574824457550022 1.563556323176 0 0 0
1836 4 27.064564949818 2.7574824457550022 1.563556323176 0 0 0
1835 3 30.248631414502007 2.7574824457550022 1.563556323176 0 0 0
1860 4 33.432697879186996 2.7574824457550022 1.563556323176 0 0 0
1859 3 36.616764343871004 2.7574824457550022 1.563556323176 0 0 0
1884 4 39.80083080855601 2.7574824457550022 1.563556323176 0 0 0
1883 3 42.98489727324 2.7574824457550022 1.563556323176 0 0 0
1908 4 46.168963737925004 2.7574824457550022 1.563556323176 0 0 0
1907 3 49.353030202609 2.7574824457550022 1.563556323176 0 0 0
1548 4 52.537096667293994 2.7574824457550022 1.563556323176 -1 0 0
1547 3 55.721163131977995 2.7574824457550022 1.563556323176 -1 0 0
1572 4 58.905229596663 2.7574824457550022 1.563556323176 -1 0 0
1571 3 62.089296061347 2.7574824457550022 1.563556323176 -1 0 0
1596 4 65.273362526032 2.7574824457550022 1.563556323176 -1 0 0
1595 3 68.457428990716 2.7574824457550022 1.563556323176 -1 0 0
1620 4 71.641495455401 2.7574824457550022 1.563556323176 -1 0 0
1619 3 74.825561920085 2.7574824457550022 1.563556323176 -1 0 0
1644 4 78.00962838477 2.7574824457550022 1.563556323176 -1 0 0
1643 3 81.193694849454 2.7574824457550022 1.563556323176 -1 0 0
1668 4 84.37776131413901 2.7574824457550022 1.563556323176 -1 0 0
1667 3 87.56182777882299 2.7574824457550022 1.563556323176 -1 0 0
1692 4 90.74589424350799 2.7574824457550022 1.563556323176 -1 0 0
1691 3 93.929960708192 2.7574824457550022 1.563556323176 -1 0 0
1716 4 97.114027172877 2.7574824457550022 1.563556323176 -1 0 0
1715 3 100.298093637561 2.7574824457550022 1.563556323176 -1 0 0
1737 12 0 3.6766432610070012 0 0 0 0
1744 10 3.184066464684001 3.6766432610070012 0 0 0 0
1761 12 6.368132929369004 3.6766432610070012 0 0 0 0
1768 10 9.552199394053005 3.6766432610070012 0 0 0 0
1785 12 12.736265858738001 3.6766432610070012 0 0 0 0
1792 10 15.92033232342201 3.6766432610070012 0 0 0 0
1809 12 19.104398788106998 3.6766432610070012 0 0 0 0
1816 10 22.288465252791006 3.6766432610070012 0 0 0 0
1833 12 25.47253171747601 3.6766432610070012 0 0 0 0
1840 10 28.656598182160003 3.6766432610070012 0 0 0 0
1857 12 31.840664646845006 3.6766432610070012 0 0 0 0
1864 10 35.024731111529 3.6766432610070012 0 0 0 0
1881 12 38.208797576214 3.6766432610070012 0 0 0 0
1888 10 41.392864040898 3.6766432610070012 0 0 0 0
1905 12 44.576930505583 3.6766432610070012 0 0 0 0
1912 10 47.76099697026701 3.6766432610070012 0 0 0 0
1545 12 50.945063434952 3.6766432610070012 0 -1 0 0
1552 10 54.129129899636 3.6766432610070012 0 -1 0 0
1569 12 57.313196364320994 3.6766432610070012 0 -1 0 0
1576 10 60.497262829004995 3.6766432610070012 0 -1 0 0
1593 12 63.68132929369 3.6766432610070012 0 -1 0 0
1600 10 66.865395758374 3.6766432610070012 0 -1 0 0
1617 12 70.049462223059 3.6766432610070012 0 -1 0 0
1624 10 73.23352868774299 3.6766432610070012 0 -1 0 0
1641 12 76.41759515242799 3.6766432610070012 0 -1 0 0
1648 10 79.601661617112 3.6766432610070012 0 -1 0 0
1665 12 82.785728081797 3.6766432610070012 0 -1 0 0
1672 10 85.969794546481 3.6766432610070012 0 -1 0 0
1689 12 89.153861011166 3.6766432610070012 0 -1 0 0
1696 10 92.33792747585 3.6766432610070012 0 -1 0 0
1713 12 95.521993940535 3.6766432610070012 0 -1 0 0
1720 10 98.706060405219 3.6766432610070012 0 -1 0 0
2133 6 1.5920332323420041 6.4341257067620035 0 0 0 0
2135 2 0 5.5149648915100045 1.563556323176 0 0 0
2113 1 3.184066464685003 5.5149648915100045 1.563556323176 0 0 0
2131 8 4.776099697027 6.4341257067620035 0 0 0 0
2159 2 6.368132929369004 5.5149648915100045 1.563556323176 0 0 0
2157 6 7.960166161711001 6.4341257067620035 0 0 0 0
2137 1 9.552199394054 5.5149648915100045 1.563556323176 0 0 0
2155 8 11.144232626396004 6.4341257067620035 0 0 0 0
2183 2 12.736265858738001 5.5149648915100045 1.563556323176 0 0 0
2181 6 14.328299091080005 6.4341257067620035 0 0 0 0
2179 8 17.512365555765008 6.4341257067620035 0 0 0 0
2161 1 15.920332323423004 5.5149648915100045 1.563556323176 0 0 0
2207 2 19.104398788106998 5.5149648915100045 1.563556323176 0 0 0
2205 6 20.696432020449002 6.4341257067620035 0 0 0 0
2185 1 22.288465252792 5.5149648915100045 1.563556323176 0 0 0
2203 8 23.880498485134005 6.4341257067620035 0 0 0 0
2231 2 25.47253171747601 5.5149648915100045 1.563556323176 0 0 0
2229 6 27.064564949818 6.4341257067620035 0 0 0 0
2209 1 28.656598182160998 5.5149648915100045 1.563556323176 0 0 0
2227 8 30.248631414503002 6.4341257067620035 0 0 0 0
2255 2 31.840664646845006 5.5149648915100045 1.563556323176 0 0 0
2253 6 33.432697879186996 6.4341257067620035 0 0 0 0
2233 1 35.02473111153001 5.5149648915100045 1.563556323176 0 0 0
2251 8 36.616764343872 6.4341257067620035 0 0 0 0
2279 2 38.208797576214 5.5149648915100045 1.563556323176 0 0 0
2277 6 39.80083080855601 6.4341257067620035 0 0 0 0
2257 1 41.392864040899006 5.5149648915100045 1.563556323176 0 0 0
2275 8 42.984897273240996 6.4341257067620035 0 0 0 0
2303 2 44.576930505583 5.5149648915100045 1.563556323176 0 0 0
2301 6 46.168963737925004 6.4341257067620035 0 0 0 0
2281 1 47.760996970268 5.5149648915100045 1.563556323176 0 0 0
2299 8 49.35303020261001 6.4341257067620035 0 0 0 0
1941 6 52.537096667293994 6.4341257067620035 0 -1 0 0
1943 2 50.945063434952 5.5149648915100045 1.563556323176 -1 0 0
1921 1 54.129129899637 5.5149648915100045 1.563556323176 -1 0 0
1939 8 55.721163131979 6.4341257067620035 0 -1 0 0
1967 2 57.313196364320994 5.5149648915100045 1.563556323176 -1 0 0
1965 6 58.905229596663 6.4341257067620035 0 -1 0 0
1945 1 60.497262829006 5.5149648915100045 1.563556323176 -1 0 0
1963 8 62.089296061347994 6.4341257067620035 0 -1 0 0
1991 2 63.68132929369 5.5149648915100045 1.563556323176 -1 0 0
1989 6 65.273362526032 6.4341257067620035 0 -1 0 0
1987 8 68.457428990717 6.4341257067620035 0 -1 0 0
1969 1 66.865395758375 5.5149648915100045 1.563556323176 -1 0 0
2015 2 70.049462223059 5.5149648915100045 1.563556323176 -1 0 0
2013 6 71.641495455401 6.4341257067620035 0 -1 0 0
1993 1 73.233528687744 5.5149648915100045 1.563556323176 -1 0 0
2011 8 74.825561920086 6.4341257067620035 0 -1 0 0
2039 2 76.41759515242799 5.5149648915100045 1.563556323176 -1 0 0
2037 6 78.00962838477 6.4341257067620035 0 -1 0 0
2017 1 79.601661617113 5.5149648915100045 1.563556323176 -1 0 0
2035 8 81.193694849455 6.4341257067620035 0 -1 0 0
2063 2 82.785728081797 5.5149648915100045 1.563556323176 -1 0 0
2061 6 84.37776131413901 6.4341257067620035 0 -1 0 0
2041 1 85.969794546482 5.5149648915100045 1.563556323176 -1 0 0
2059 8 87.561827778824 6.4341257067620035 0 -1 0 0
2087 2 89.153861011166 5.5149648915100045 1.563556323176 -1 0 0
2085 6 90.74589424350799 6.4341257067620035 0 -1 0 0
2065 1 92.33792747585099 5.5149648915100045 1.563556323176 -1 0 0
2083 8 93.929960708193 6.4341257067620035 0 -1 0 0
2111 2 95.521993940535 5.5149648915100045 1.563556323176 -1 0 0
2109 6 97.114027172877 6.4341257067620035 0 -1 0 0
2089 1 98.70606040522 5.5149648915100045 1.563556323176 -1 0 0
2107 8 100.298093637562 6.4341257067620035 0 -1 0 0
2117 3 1.5920332323420041 8.272447337265 1.563556323176 0 0 0
2120 4 4.776099697027 8.272447337265 1.563556323176 0 0 0
2141 3 7.960166161711001 8.272447337265 1.563556323176 0 0 0
2144 4 11.144232626396004 8.272447337265 1.563556323176 0 0 0
2165 3 14.328299091080005 8.272447337265 1.563556323176 0 0 0
2168 4 17.512365555765008 8.272447337265 1.563556323176 0 0 0
2189 3 20.696432020449002 8.272447337265 1.563556323176 0 0 0
2192 4 23.880498485134005 8.272447337265 1.563556323176 0 0 0
2213 3 27.064564949818 8.272447337265 1.563556323176 0 0 0
2216 4 30.248631414503002 8.272447337265 1.563556323176 0 0 0
2237 3 33.432697879186996 8.272447337265 1.563556323176 0 0 0
2240 4 36.616764343872 8.272447337265 1.563556323176 0 0 0
2261 3 39.80083080855601 8.272447337265 1.563556323176 0 0 0
2264 4 42.984897273240996 8.272447337265 1.563556323176 0 0 0
2285 3 46.168963737925004 8.272447337265 1.563556323176 0 0 0
2288 4 49.35303020261001 8.272447337265 1.563556323176 0 0 0
1925 3 52.537096667293994 8.272447337265 1.563556323176 -1 0 0
1928 4 55.721163131979 8.272447337265 1.563556323176 -1 0 0
1949 3 58.905229596663 8.272447337265 1.563556323176 -1 0 0
1952 4 62.089296061347994 8.272447337265 1.563556323176 -1 0 0
1973 3 65.273362526032 8.272447337265 1.563556323176 -1 0 0
1976 4 68.457428990717 8.272447337265 1.563556323176 -1 0 0
1997 3 71.641495455401 8.272447337265 1.563556323176 -1 0 0
2000 4 74.825561920086 8.272447337265 1.563556323176 -1 0 0
2021 3 78.00962838477 8.272447337265 1.563556323176 -1 0 0
2024 4 81.193694849455 8.272447337265 1.563556323176 -1 0 0
2045 3 84.37776131413901 8.272447337265 1.563556323176 -1 0 0
2048 4 87.561827778824 8.272447337265 1.563556323176 -1 0 0
2069 3 90.74589424350799 8.272447337265 1.563556323176 -1 0 0
2072 4 93.929960708193 8.272447337265 1.563556323176 -1 0 0
2093 3 97.114027172877 8.272447337265 1.563556323176 -1 0 0
2096 4 100.298093637562 8.272447337265 1.563556323176 -1 0 0
2127 10 0 9.191608152517006 0 0 0 0
2118 12 3.184066464685003 9.191608152517006 0 0 0 0
2151 10 6.368132929369004 9.191608152517006 0 0 0 0
2142 12 9.552199394054 9.191608152517006 0 0 0 0
2175 10 12.736265858738001 9.191608152517006 0 0 0 0
2166 12 15.920332323423004 9.191608152517006 0 0 0 0
2199 10 19.104398788106998 9.191608152517006 0 0 0 0
2190 12 22.288465252792 9.191608152517006 0 0 0 0
2223 10 25.47253171747601 9.191608152517006 0 0 0 0
2214 12 28.656598182160998 9.191608152517006 0 0 0 0
2247 10 31.840664646845006 9.191608152517006 0 0 0 0
2238 12 35.02473111153001 9.191608152517006 0 0 0 0
2271 10 38.208797576214 9.191608152517006 0 0 0 0
2262 12 41.392864040899006 9.191608152517006 0 0 0 0
2295 10 44.576930505583 9.191608152517006 0 0 0 0
2286 12 47.760996970268 9.191608152517006 0 0 0 0
1935 10 50.945063434952 9.191608152517006 0 -1 0 0
1926 12 54.129129899637 9.191608152517006 0 -1 0 0
1959 10 57.313196364320994 9.191608152517006 0 -1 0 0
1950 12 60.497262829006 9.191608152517006 0 -1 0 0
1983 10 63.68132929369 9.191608152517006 0 -1 0 0
1974 12 66.865395758375 9.191608152517006 0 -1 0 0
2007 10 70.049462223059 9.191608152517006 0 -1 0 0
1998 12 73.233528687744 9.191608152517006 0 -1 0 0
2031 10 76.41759515242799 9.191608152517006 0 -1 0 0
2022 12 79.601661617113 9.191608152517006 0 -1 0 0
2055 10 82.785728081797 9.191608152517006 0 -1 0 0
2046 12 85.969794546482 9.191608152517006 0 -1 0 0
2079 10 89.153861011166 9.191608152517006 0 -1 0 0
2070 12 92.33792747585099 9.191608152517006 0 -1 0 0
2103 10 95.521993940535 9.191608152517006 0 -1 0 0
2094 12 98.70606040522 9.191608152517006 0 -1 0 0
2132 8 1.5920332323420041 11.949090598272 0 0 0 0
2114 1 0 11.029929783020002 1.563556323176 0 0 0
2136 2 3.184066464684001 11.029929783020002 1.563556323176 0 0 0
2134 6 4.776099697026005 11.949090598272 0 0 0 0
2138 1 6.368132929369004 11.029929783020002 1.563556323176 0 0 0
2156 8 7.960166161711001 11.949090598272 0 0 0 0
2160 2 9.552199394053005 11.029929783020002 1.563556323176 0 0 0
2158 6 11.144232626395002 11.949090598272 0 0 0 0
2162 1 12.736265858738001 11.029929783020002 1.563556323176 0 0 0
2180 8 14.328299091080005 11.949090598272 0 0 0 0
2182 6 17.512365555764 11.949090598272 0 0 0 0
2184 2 15.92033232342201 11.029929783020002 1.563556323176 0 0 0
2186 1 19.104398788106998 11.029929783020002 1.563556323176 0 0 0
2204 8 20.696432020449002 11.949090598272 0 0 0 0
2208 2 22.288465252791006 11.029929783020002 1.563556323176 0 0 0
2206 6 23.880498485132996 11.949090598272 0 0 0 0
2210 1 25.47253171747601 11.029929783020002 1.563556323176 0 0 0
2228 8 27.064564949818 11.949090598272 0 0 0 0
2232 2 28.656598182160003 11.029929783020002 1.563556323176 0 0 0
2230 6 30.248631414502007 11.949090598272 0 0 0 0
2234 1 31.840664646845006 11.029929783020002 1.563556323176 0 0 0
2252 8 33.432697879186996 11.949090598272 0 0 0 0
2256 2 35.024731111529 11.029929783020002 1.563556323176 0 0 0
2254 6 36.616764343871004 11.949090598272 0 0 0 0
2258 1 38.208797576214 11.029929783020002 1.563556323176 0 0 0
2276 8 39.80083080855601 11.949090598272 0 0 0 0
2280 2 41.392864040898 11.029929783020002 1.563556323176 0 0 0
2278 6 42.98489727324 11.949090598272 0 0 0 0
2282 1 44.576930505583 11.029929783020002 1.563556323176 0 0 0
2300 8 46.168963737925004 11.949090598272 0 0 0 0
2304 2 47.76099697026701 11.029929783020002 1.563556323176 0 0 0
2302 6 49.353030202609 11.949090598272 0 0 0 0
1940 8 52.537096667293994 11.949090598272 0 -1 0 0
1922 1 50.945063434952 11.029929783020002 1.563556323176 -1 0 0
1944 2 54.129129899636 11.029929783020002 1.563556323176 -1 0 0
1942 6 55.721163131977995 11.949090598272 0 -1 0 0
1946 1 57.313196364320994 11.029929783020002 1.563556323176 -1 0 0
1964 8 58.905229596663 11.949090598272 0 -1 0 0
1968 2 60.497262829004995 11.029929783020002 1.563556323176 -1 0 0
1966 6 62.089296061347 11.949090598272 0 -1 0 0
1970 1 63.68132929369 11.029929783020002 1.563556323176 -1 0 0
1988 8 65.273362526032 11.949090598272 0 -1 0 0
1990 6 68.457428990716 11.949090598272 0 -1 0 0
1992 2 66.865395758374 11.029929783020002 1.563556323176 -1 0 0
1994 1 70.049462223059 11.029929783020002 1.563556323176 -1 0 0
2012 8 71.641495455401 11.949090598272 0 -1 0 0
2016 2 73.23352868774299 11.029929783020002 1.563556323176 -1 0 0
2014 6 74.825561920085 11.949090598272 0 -1 0 0
2018 1 76.41759515242799 11.029929783020002 1.563556323176 -1 0 0
2036 8 78.00962838477 11.949090598272 0 -1 0 0
2040 2 79.601661617112 11.029929783020002 1.563556323176 -1 0 0
2038 6 81.193694849454 11.949090598272 0 -1 0 0
2042 1 82.785728081797 11.029929783020002 1.563556323176 -1 0 0
2060 8 84.37776131413901 11.949090598272 0 -1 0 0
2064 2 85.969794546481 11.029929783020002 1.563556323176 -1 0 0
2062 6 87.56182777882299 11.949090598272 0 -1 0 0
2066 1 89.153861011166 11.029929783020002 1.563556323176 -1 0 0
2084 8 90.74589424350799 11.949090598272 0 -1 0 0
2088 2 92.33792747585 11.029929783020002 1.563556323176 -1 0 0
2086 6 93.929960708192 11.949090598272 0 -1 0 0
2090 1 95.521993940535 11.029929783020002 1.563556323176 -1 0 0
2108 8 97.114027172877 11.949090598272 0 -1 0 0
2112 2 98.706060405219 11.029929783020002 1.563556323176 -1 0 0
2110 6 100.298093637561 11.949090598272 0 -1 0 0
2124 4 1.5920332323420041 13.787412228775004 1.563556323176 0 0 0
2123 3 4.776099697026005 13.787412228775004 1.563556323176 0 0 0
2148 4 7.960166161711001 13.787412228775004 1.563556323176 0 0 0
2147 3 11.144232626395002 13.787412228775004 1.563556323176 0 0 0
2172 4 14.328299091080005 13.787412228775004 1.563556323176 0 0 0
2171 3 17.512365555764 13.787412228775004 1.563556323176 0 0 0
2196 4 20.696432020449002 13.787412228775004 1.563556323176 0 0 0
2195 3 23.880498485132996 13.787412228775004 1.563556323176 0 0 0
2220 4 27.064564949818 13.787412228775004 1.563556323176 0 0 0
2219 3 30.248631414502007 13.787412228775004 1.563556323176 0 0 0
2244 4 33.432697879186996 13.787412228775004 1.563556323176 0 0 0
2243 3 36.616764343871004 13.787412228775004 1.563556323176 0 0 0
2268 4 39.80083080855601 13.787412228775004 1.563556323176 0 0 0
2267 3 42.98489727324 13.787412228775004 1.563556323176 0 0 0
2292 4 46.168963737925004 13.787412228775004 1.563556323176 0 0 0
2291 3 49.353030202609 13.787412228775004 1.563556323176 0 0 0
1932 4 52.537096667293994 13.787412228775004 1.563556323176 -1 0 0
1931 3 55.721163131977995 13.787412228775004 1.563556323176 -1 0 0
1956 4 58.905229596663 13.787412228775004 1.563556323176 -1 0 0
1955 3 62.089296061347 13.787412228775004 1.563556323176 -1 0 0
1980 4 65.273362526032 13.787412228775004 1.563556323176 -1 0 0
1979 3 68.457428990716 13.787412228775004 1.563556323176 -1 0 0
2004 4 71.641495455401 13.787412228775004 1.563556323176 -1 0 0
2003 3 74.825561920085 13.787412228775004 1.563556323176 -1 0 0
2028 4 78.00962838477 13.787412228775004 1.563556323176 -1 0 0
2027 3 81.193694849454 13.787412228775004 1.563556323176 -1 0 0
2052 4 84.37776131413901 13.787412228775004 1.563556323176 -1 0 0
2051 3 87.56182777882299 13.787412228775004 1.563556323176 -1 0 0
2076 4 90.74589424350799 13.787412228775004 1.563556323176 -1 0 0
2075 3 93.929960708192 13.787412228775004 1.563556323176 -1 0 0
2100 4 97.114027172877 13.787412228775004 1.563556323176 -1 0 0
2099 3 100.298093637561 13.787412228775004 1.563556323176 -1 0 0
2121 12 0 14.706573044026996 0 0 0 0
2128 10 3.184066464684001 14.706573044026996 0 0 0 0
2145 12 6.368132929369004 14.706573044026996 0 0 0 0
2152 10 9.552199394053005 14.706573044026996 0 0 0 0
2169 12 12.736265858738001 14.706573044026996 0 0 0 0
2176 10 15.92033232342201 14.706573044026996 0 0 0 0
2193 12 19.104398788106998 14.706573044026996 0 0 0 0
2200 10 22.288465252791006 14.706573044026996 0 0 0 0
2217 12 25.47253171747601 14.706573044026996 0 0 0 0
2224 10 28.656598182160003 14.706573044026996 0 0 0 0
2241 12 31.840664646845006 14.706573044026996 0 0 0 0
2248 10 35.024731111529 14.706573044026996 0 0 0 0
2265 12 38.208797576214 14.706573044026996 0 0 0 0
2272 10 41.392864040898 14.706573044026996 0 0 0 0
2289 12 44.576930505583 14.706573044026996 0 0 0 0
2296 10 47.76099697026701 14.706573044026996 0 0 0 0
1929 12 50.945063434952 14.706573044026996 0 -1 0 0
1936 10 54.129129899636 14.706573044026996 0 -1 0 0
1953 12 57.313196364320994 14.706573044026996 0 -1 0 0
1960 10 60.497262829004995 14.706573044026996 0 -1 0 0
1977 12 63.68132929369 14.706573044026996 0 -1 0 0
1984 10 66.865395758374 14.706573044026996 0 -1 0 0
2001 12 70.049462223059 14.706573044026996 0 -1 0 0
2008 10 73.23352868774299 14.706573044026996 0 -1 0 0
2025 12 76.41759515242799 14.706573044026996 0 -1 0 0
2032 10 79.601661617112 14.706573044026996 0 -1 0 0
2049 12 82.785728081797 14.706573044026996 0 -1 0 0
2056 10 85.969794546481 14.706573044026996 0 -1 0 0
2073 12 89.153861011166 14.706573044026996 0 -1 0 0
2080 10 92.33792747585 14.706573044026996 0 -1 0 0
2097 12 95.521993940535 14.706573044026996 0 -1 0 0
2104 10 98.706060405219 14.706573044026996 0 -1 0 0
2519 2 0 16.54489467453 1.563556323176 0 0 0
2497 1 3.184066464685003 16.54489467453 1.563556323176 0 0 0
2543 2 6.368132929369004 16.54489467453 1.563556323176 0 0 0
2521 1 9.552199394054 16.54489467453 1.563556323176 0 0 0
2567 2 12.736265858738001 16.54489467453 1.563556323176 0 0 0
2545 1 15.920332323423004 16.54489467453 1.563556323176 0 0 0
2591 2 19.104398788106998 16.54489467453 1.563556323176 0 0 0
2569 1 22.288465252792 16.54489467453 1.563556323176 0 0 0
2615 2 25.47253171747601 16.54489467453 1.563556323176 0 0 0
2593 1 28.656598182160998 16.54489467453 1.563556323176 0 0 0
2639 2 31.840664646845006 16.54489467453 1.563556323176 0 0 0
2617 1 35.02473111153001 16.54489467453 1.563556323176 0 0 0
2663 2 38.208797576214 16.54489467453 1.563556323176 0 0 0
2641 1 41.392864040899006 16.54489467453 1.563556323176 0 0 0
2687 2 44.576930505583 16.54489467453 1.563556323176 0 0 0
2665 1 47.760996970268 16.54489467453 1.563556323176 0 0 0
2327 2 50.945063434952 16.54489467453 1.563556323176 -1 0 0
2305 1 54.129129899637 16.54489467453 1.563556323176 -1 0 0
2351 2 57.313196364320994 16.54489467453 1.563556323176 -1 0 0
2329 1 60.497262829006 16.54489467453 1.563556323176 -1 0 0
2375 2 63.68132929369 16.54489467453 1.563556323176 -1 0 0
2353 1 66.865395758375 16.54489467453 1.563556323176 -1 0 0
2399 2 70.049462223059 16.54489467453 1.563556323176 -1 0 0
2377 1 73.233528687744 16.54489467453 1.563556323176 -1 0 0
2423 2 76.41759515242799 16.54489467453 1.563556323176 -1 0 0
2401 1 79.601661617113 16.54489467453 1.563556323176 -1 0 0
2447 2 82.785728081797 16.54489467453 1.563556323176 -1 0 0
2425 1 85.969794546482 16.54489467453 1.563556323176 -1 0 0
2471 2 89.153861011166 16.54489467453 1.563556323176 -1 0 0
2449 1 92.33792747585099 16.54489467453 1.563556323176 -1 0 0
2495 2 95.521993940535 16.54489467453 1.563556323176 -1 0 0
2473 1 98.70606040522 16.54489467453 1.563556323176 -1 0 0
2517 6 1.5920332323420041 17.464055489781998 0 0 0 0
2515 8 4.776099697027 17.464055489781998 0 0 0 0
2541 6 7.960166161711001 17.464055489781998 0 0 0 0
2539 8 11.144232626396004 17.464055489781998 0 0 0 0
2565 6 14.328299091080005 17.464055489781998 0 0 0 0
2563 8 17.512365555765008 17.464055489781998 0 0 0 0
2589 6 20.696432020449002 17.464055489781998 0 0 0 0
2587 8 23.880498485134005 17.464055489781998 0 0 0 0
2613 6 27.064564949818 17.464055489781998 0 0 0 0
2611 8 30.248631414503002 17.464055489781998 0 0 0 0
2637 6 33.432697879186996 17.464055489781998 0 0 0 0
2635 8 36.616764343872 17.464055489781998 0 0 0 0
2661 6 39.80083080855601 17.464055489781998 0 0 0 0
2659 8 42.984897273240996 17.464055489781998 0 0 0 0
2685 6 46.168963737925004 17.464055489781998 0 0 0 0
2683 8 49.35303020261001 17.464055489781998 0 0 0 0
2325 6 52.537096667293994 17.464055489781998 0 -1 0 0
2323 8 55.721163131979 17.464055489781998 0 -1 0 0
2349 6 58.905229596663 17.464055489781998 0 -1 0 0
2347 8 62.089296061347994 17.464055489781998 0 -1 0 0
2373 6 65.273362526032 17.464055489781998 0 -1 0 0
2371 8 68.457428990717 17.464055489781998 0 -1 0 0
2397 6 71.641495455401 17.464055489781998 0 -1 0 0
2395 8 74.825561920086 17.464055489781998 0 -1 0 0
2421 6 78.00962838477 17.464055489781998 0 -1 0 0
2419 8 81.193694849455 17.464055489781998 0 -1 0 0
2445 6 84.37776131413901 17.464055489781998 0 -1 0 0
2443 8 87.561827778824 17.464055489781998 0 -1 0 0
2469 6 90.74589424350799 17.464055489781998 0 -1 0 0
2467 8 93.929960708193 17.464055489781998 0 -1 0 0
2493 6 97.114027172877 17.464055489781998 0 -1 0 0
2491 8 100.298093637562 17.464055489781998 0 -1 0 0
2511 10 0 20.221537935537 0 0 0 0
2501 3 1.5920332323420041 19.302377120285 1.563556323176 0 0 0
2502 12 3.184066464685003 20.221537935537 0 0 0 0
2504 4 4.776099697027 19.302377120285 1.563556323176 0 0 0
2535 10 6.368132929369004 20.221537935537 0 0 0 0
2525 3 7.960166161711001 19.302377120285 1.563556323176 0 0 0
2526 12 9.552199394054 20.221537935537 0 0 0 0
2528 4 11.144232626396004 19.302377120285 1.563556323176 0 0 0
2559 10 12.736265858738001 20.221537935537 0 0 0 0
2549 3 14.328299091080005 19.302377120285 1.563556323176 0 0 0
2550 12 15.920332323423004 20.221537935537 0 0 0 0
2552 4 17.512365555765008 19.302377120285 1.563556323176 0 0 0
2583 10 19.104398788106998 20.221537935537 0 0 0 0
2573 3 20.696432020449002 19.302377120285 1.563556323176 0 0 0
2574 12 22.288465252792 20.221537935537 0 0 0 0
2576 4 23.880498485134005 19.302377120285 1.563556323176 0 0 0
2607 10 25.47253171747601 20.221537935537 0 0 0 0
2597 3 27.064564949818 19.302377120285 1.563556323176 0 0 0
2598 12 28.656598182160998 20.221537935537 0 0 0 0
2600 4 30.248631414503002 19.302377120285 1.563556323176 0 0 0
2631 10 31.840664646845006 20.221537935537 0 0 0 0
2622 12 35.02473111153001 20.221537935537 0 0 0 0
2621 3 33.432697879186996 19.302377120285 1.563556323176 0 0 0
2624 4 36.616764343872 19.302377120285 1.563556323176 0 0 0
2655 10 38.208797576214 20.221537935537 0 0 0 0
2645 3 39.80083080855601 19.302377120285 1.563556323176 0 0 0
2646 12 41.392864040899006 20.221537935537 0 0 0 0
2648 4 42.984897273240996 19.302377120285 1.563556323176 0 0 0
2679 10 44.576930505583 20.221537935537 0 0 0 0
2669 3 46.168963737925004 19.302377120285 1.563556323176 0 0 0
2670 12 47.760996970268 20.221537935537 0 0 0 0
2672 4 49.35303020261001 19.302377120285 1.563556323176 0 0 0
2319 10 50.945063434952 20.221537935537 0 -1 0 0
2309 3 52.537096667293994 19.302377120285 1.563556323176 -1 0 0
2310 12 54.129129899637 20.221537935537 0 -1 0 0
2312 4 55.721163131979 19.302377120285 1.563556323176 -1 0 0
2343 10 57.313196364320994 20.221537935537 0 -1 0 0
2333 3 58.905229596663 19.302377120285 1.563556323176 -1 0 0
2334 12 60.497262829006 20.221537935537 0 -1 0 0
2336 4 62.089296061347994 19.302377120285 1.563556323176 -1 0 0
2367 10 63.68132929369 20.221537935537 0 -1 0 0
2357 3 65.273362526032 19.302377120285 1.563556323176 -1 0 0
2358 12 66.865395758375 20.221537935537 0 -1 0 0
2360 4 68.457428990717 19.302377120285 1.563556323176 -1 0 0
2391 10 70.049462223059 20.221537935537 0 -1 0 0
2381 3 71.641495455401 19.302377120285 1.563556323176 -1 0 0
2382 12 73.233528687744 20.221537935537 0 -1 0 0
2384 4 74.825561920086 19.302377120285 1.563556323176 -1 0 0
2415 10 76.41759515242799 20.221537935537 0 -1 0 0
2405 3 78.00962838477 19.302377120285 1.563556323176 -1 0 0
2406 12 79.601661617113 20.221537935537 0 -1 0 0
2408 4 81.193694849455 19.302377120285 1.563556323176 -1 0 0
2439 10 82.785728081797 20.221537935537 0 -1 0 0
2430 12 85.969794546482 20.221537935537 0 -1 0 0
2429 3 84.37776131413901 19.302377120285 1.563556323176 -1 0 0
2432 4 87.561827778824 19.302377120285 1.563556323176 -1 0 0
2463 10 89.153861011166 20.221537935537 0 -1 0 0
2453 3 90.74589424350799 19.302377120285 1.563556323176 -1 0 0
2454 12 92.33792747585099 20.221537935537 0 -1 0 0
2456 4 93.929960708193 19.302377120285 1.563556323176 -1 0 0
2487 10 95.521993940535 20.221537935537 0 -1 0 0
2477 3 97.114027172877 19.302377120285 1.563556323176 -1 0 0
2478 12 98.70606040522 20.221537935537 0 -1 0 0
2480 4 100.298093637562 19.302377120285 1.563556323176 -1 0 0
2498 1 0 22.059859566040004 1.563556323176 0 0 0
2520 2 3.184066464684001 22.059859566040004 1.563556323176 0 0 0
2522 1 6.368132929369004 22.059859566040004 1.563556323176 0 0 0
2544 2 9.552199394053005 22.059859566040004 1.563556323176 0 0 0
2546 1 12.736265858738001 22.059859566040004 1.563556323176 0 0 0
2568 2 15.92033232342201 22.059859566040004 1.563556323176 0 0 0
2570 1 19.104398788106998 22.059859566040004 1.563556323176 0 0 0
2592 2 22.288465252791006 22.059859566040004 1.563556323176 0 0 0
2594 1 25.47253171747601 22.059859566040004 1.563556323176 0 0 0
2616 2 28.656598182160003 22.059859566040004 1.563556323176 0 0 0
2618 1 31.840664646845006 22.059859566040004 1.563556323176 0 0 0
2640 2 35.024731111529 22.059859566040004 1.563556323176 0 0 0
2642 1 38.208797576214 22.059859566040004 1.563556323176 0 0 0
2664 2 41.392864040898 22.059859566040004 1.563556323176 0 0 0
2666 1 44.576930505583 22.059859566040004 1.563556323176 0 0 0