LAMMPS data file via write_data, version 2 Aug 2023, timestep = 17, units = metal

6912 atoms
24 atom types

0 101.890126869904 xlo xhi
0 99.26936804718 ylo yhi
-50 50 zlo zhi

Masses

1 95.95
2 95.95
3 95.95
4 95.95
5 95.95
6 95.95
7 95.95
8 95.95
9 32.06
10 32.06
11 32.06
12 32.06
13 32.06
14 32.06
15 32.06
16 32.06
17 32.06
18 32.06
19 32.06
20 32.06
21 32.06
22 32.06
23 32.06
24 32.06

Atoms # atomic

1752 12 1.5920332323422037 0.9191608152513525 -0.5011757734969504 0 0 0
1736 14 3.1840664646852312 3.6766432610068107 -0.5011757734960698 0 0 0
1746 10 4.776099697026573 0.9191608152523828 -0.5011757734948523 0 0 0
1776 12 7.960166161711196 0.9191608152513128 -0.5011757734969977 0 0 0
1758 16 6.368132929368064 3.6766432610068516 -0.501175773495748 0 0 0
1770 10 11.144232626395578 0.9191608152523809 -0.5011757734948813 0 0 0
1760 14 9.552199394054238 3.676643261006819 -0.5011757734961405 0 0 0
1782 16 12.736265858737092 3.676643261006864 -0.5011757734957001 0 0 0
1800 12 14.328299091080183 0.9191608152513443 -0.5011757734969383 0 0 0
1784 14 15.920332323423228 3.6766432610068005 -0.5011757734960762 0 0 0
1794 10 17.512365555764557 0.9191608152524012 -0.5011757734949195 0 0 0
1824 12 20.696432020449233 0.9191608152513566 -0.5011757734969717 0 0 0
1806 16 19.104398788106085 3.6766432610068462 -0.5011757734956991 0 0 0
1818 10 23.88049848513355 0.9191608152523957 -0.5011757734948658 0 0 0
1808 14 22.288465252792246 3.676643261006799 -0.5011757734960299 0 0 0
1830 16 25.472531717475064 3.676643261006853 -0.5011757734956799 0 0 0
1848 12 27.064564949818227 0.9191608152513205 -0.5011757734969927 0 0 0
1832 14 28.656598182161243 3.6766432610068094 -0.5011757734960919 0 0 0
1842 10 30.248631414502565 0.9191608152523866 -0.5011757734948212 0 0 0
1872 12 33.4326978791872 0.9191608152512805 -0.5011757734970043 0 0 0
1854 16 31.840664646844036 3.676643261006852 -0.5011757734957627 0 0 0
1866 10 36.61676434387157 0.9191608152523923 -0.5011757734948175 0 0 0
1856 14 35.02473111153029 3.6766432610068502 -0.50117577349605 0 0 0
1878 16 38.20879757621305 3.676643261006855 -0.5011757734957848 0 0 0
1896 12 39.800830808556235 0.9191608152513148 -0.5011757734969865 0 0 0
1880 14 41.392864040899255 3.6766432610068063 -0.5011757734960888 0 0 0
1890 10 42.9848972732405 0.919160815252427 -0.5011757734948524 0 0 0
1920 12 46.168963737925274 0.9191608152513328 -0.5011757734969577 0 0 0
1902 16 44.576930505582034 3.676643261006843 -0.5011757734956341 0 0 0
1914 10 49.35303020260952 0.9191608152524258 -0.5011757734949118 0 0 0
1904 14 47.76099697026825 3.676643261006785 -0.5011757734960657 0 0 0
1542 16 50.945063434951 3.6766432610068547 -0.5011757734957054 -1 0 0
1560 12 52.53709666729428 0.9191608152513143 -0.5011757734970891 -1 0 0
1544 14 54.12912989963726 3.6766432610068285 -0.5011757734960893 -1 0 0
1554 10 55.72116313197852 0.9191608152523995 -0.5011757734947493 -1 0 0
1584 12 58.9052295966632 0.9191608152512873 -0.50117577349701 -1 0 0
1566 16 57.31319636432 3.6766432610068382 -0.5011757734957344 -1 0 0
1578 10 62.08929606134748 0.9191608152524128 -0.5011757734947985 -1 0 0
1568 14 60.49726282900628 3.6766432610068067 -0.5011757734961001 -1 0 0
1590 16 63.681329293688954 3.6766432610068858 -0.5011757734957459 -1 0 0
1608 12 65.27336252603226 0.9191608152512787 -0.5011757734969456 -1 0 0
1592 14 66.86539575837519 3.676643261006799 -0.5011757734961042 -1 0 0
1602 10 68.4574289907165 0.9191608152523643 -0.5011757734947878 -1 0 0
1632 12 71.64149545540124 0.9191608152513621 -0.5011757734970625 -1 0 0
1614 16 70.04946222305804 3.676643261006858 -0.5011757734956035 -1 0 0
1626 10 74.82556192008559 0.9191608152523738 -0.501175773494862 -1 0 0
1616 14 73.23352868774424 3.6766432610067517 -0.5011757734960822 -1 0 0
1638 16 76.41759515242703 3.6766432610068973 -0.5011757734957807 -1 0 0
1656 12 78.00962838477004 0.9191608152513163 -0.501175773496934 -1 0 0
1640 14 79.60166161711318 3.676643261006866 -0.5011757734960476 -1 0 0
1650 10 81.19369484945462 0.9191608152523818 -0.5011757734948672 -1 0 0
1680 12 84.37776131413922 0.919160815251321 -0.5011757734969264 -1 0 0
1662 16 82.78572808179612 3.6766432610068502 -0.5011757734956964 -1 0 0
1674 10 87.56182777882353 0.919160815252426 -0.501175773494786 -1 0 0
1664 14 85.96979454648229 3.6766432610068085 -0.5011757734961312 -1 0 0
1686 16 89.15386101116499 3.676643261006848 -0.5011757734956516 -1 0 0
1704 12 90.74589424350825 0.9191608152513419 -0.5011757734971533 -1 0 0
1688 14 92.33792747585125 3.676643261006809 -0.5011757734960687 -1 0 0
1698 10 93.92996070819258 0.9191608152524053 -0.5011757734948699 -1 0 0
1728 12 97.11402717287729 0.9191608152512942 -0.5011757734968908 -1 0 0
1710 16 95.5219939405341 3.676643261006867 -0.5011757734956804 -1 0 0
1734 16 101.89012686990306 3.6766432610068254 -0.5011757734957365 -1 0 0
1722 10 100.29809363756155 0.919160815252392 -0.5011757734949863 -1 0 0
1712 14 98.70606040522026 3.676643261006817 -0.5011757734961517 -1 0 0
2129 10 1.5920332323420556 6.43412570676243 -0.5011757734947978 0 0 0
2135 12 4.776099697026564 6.434125706761316 -0.5011757734970076 0 0 0
2153 10 7.960166161711028 6.434125706762372 -0.5011757734948747 0 0 0
2159 12 11.144232626395578 6.434125706761313 -0.5011757734969674 0 0 0
2177 10 14.328299091080005 6.434125706762369 -0.5011757734948582 0 0 0
2183 12 17.51236555576458 6.4341257067613205 -0.5011757734970242 0 0 0
2201 10 20.696432020449024 6.434125706762394 -0.5011757734948968 0 0 0
2207 12 23.880498485133554 6.434125706761322 -0.5011757734969808 0 0 0
2225 10 27.064564949818017 6.434125706762363 -0.501175773494854 0 0 0
2231 12 30.248631414502558 6.434125706761322 -0.5011757734969925 0 0 0
2249 10 33.43269787918706 6.434125706762404 -0.5011757734947995 0 0 0
2255 12 36.61676434387155 6.434125706761288 -0.501175773496974 0 0 0
2273 10 39.80083080855602 6.434125706762395 -0.5011757734949404 0 0 0
2279 12 42.98489727324052 6.43412570676131 -0.5011757734970244 0 0 0
2297 10 46.168963737925004 6.434125706762395 -0.5011757734948582 0 0 0
2303 12 49.353030202609546 6.434125706761318 -0.5011757734970146 0 0 0
1937 10 52.53709666729402 6.434125706762375 -0.5011757734947613 -1 0 0
1943 12 55.72116313197856 6.434125706761309 -0.5011757734969977 -1 0 0
1961 10 58.90522959666302 6.434125706762378 -0.501175773494919 -1 0 0
1967 12 62.08929606134757 6.434125706761297 -0.5011757734969849 -1 0 0
1985 10 65.27336252603197 6.434125706762395 -0.5011757734948296 -1 0 0
1991 12 68.45742899071656 6.43412570676134 -0.5011757734970823 -1 0 0
2009 10 71.64149545540099 6.434125706762367 -0.5011757734947927 -1 0 0
2015 12 74.82556192008566 6.434125706761313 -0.5011757734969844 -1 0 0
2033 10 78.00962838477002 6.43412570676233 -0.5011757734948914 -1 0 0
2039 12 81.1936948494545 6.434125706761305 -0.5011757734969592 -1 0 0
2057 10 84.37776131413901 6.434125706762407 -0.50117577349481 -1 0 0
2063 12 87.56182777882356 6.434125706761306 -0.5011757734971054 -1 0 0
2081 10 90.74589424350798 6.434125706762371 -0.5011757734948336 -1 0 0
2087 12 93.92996070819258 6.43412570676133 -0.5011757734968387 -1 0 0
2105 10 97.11402717287702 6.434125706762359 -0.5011757734949118 -1 0 0
2111 12 100.29809363756155 6.434125706761277 -0.5011757734970177 -1 0 0
2119 14 8.242295734817162e-13 9.191608152516817 -0.5011757734960393 0 0 0
2117 16 3.184066464683556 9.19160815251682 -0.5011757734956471 0 0 0
2136 12 1.5920332323421251 11.949090598271324 -0.5011757734969376 0 0 0
2143 14 6.368132929369775 9.191608152516814 -0.501175773496135 0 0 0
2130 10 4.776099697026606 11.949090598272376 -0.5011757734948752 0 0 0
2160 12 7.960166161711166 11.949090598271319 -0.5011757734969569 0 0 0
2141 16 9.552199394052595 9.191608152516858 -0.5011757734957145 0 0 0
2154 10 11.144232626395604 11.949090598272345 -0.5011757734948263 0 0 0
2167 14 12.736265858738763 9.191608152516821 -0.5011757734960711 0 0 0
2165 16 15.920332323421604 9.191608152516856 -0.5011757734957321 0 0 0
2184 12 14.328299091080165 11.949090598271315 -0.5011757734969492 0 0 0
2191 14 19.104398788107783 9.191608152516825 -0.5011757734960617 0 0 0
2178 10 17.51236555576463 11.949090598272372 -0.5011757734948165 0 0 0
2208 12 20.696432020449148 11.949090598271301 -0.5011757734969732 0 0 0
2189 16 22.288465252790584 9.191608152516837 -0.501175773495709 0 0 0
2202 10 23.88049848513363 11.94909059827237 -0.5011757734948449 0 0 0
2215 14 25.47253171747676 9.19160815251682 -0.5011757734961084 0 0 0
2213 16 28.6565981821596 9.191608152516869 -0.5011757734957181 0 0 0
2232 12 27.06456494981816 11.949090598271287 -0.5011757734969827 0 0 0
2239 14 31.840664646845813 9.191608152516823 -0.5011757734959967 0 0 0
2226 10 30.248631414502622 11.949090598272367 -0.5011757734947576 0 0 0
2256 12 33.43269787918713 11.949090598271267 -0.5011757734970201 0 0 0
2237 16 35.024731111528546 9.191608152516846 -0.5011757734957717 0 0 0
2250 10 36.61676434387165 11.949090598272386 -0.5011757734948172 0 0 0
2263 14 38.208797576214785 9.19160815251683 -0.5011757734960889 0 0 0
2261 16 41.39286404089755 9.191608152516842 -0.5011757734957619 0 0 0
2280 12 39.800830808556114 11.949090598271303 -0.5011757734970008 0 0 0
2287 14 44.576930505583775 9.191608152516835 -0.5011757734960479 0 0 0
2274 10 42.98489727324062 11.949090598272356 -0.5011757734948249 0 0 0
2304 12 46.16896373792514 11.949090598271342 -0.5011757734968904 0 0 0
2285 16 47.76099697026657 9.191608152516844 -0.5011757734957278 0 0 0
2298 10 49.353030202609624 11.94909059827238 -0.5011757734948926 0 0 0
1927 14 50.94506343495277 9.191608152516835 -0.5011757734960818 -1 0 0
1925 16 54.129129899635565 9.191608152516867 -0.5011757734956714 -1 0 0
1944 12 52.53709666729413 11.949090598271283 -0.5011757734970308 -1 0 0
1951 14 57.31319636432175 9.191608152516796 -0.501175773496119 -1 0 0
1938 10 55.721163131978585 11.949090598272397 -0.501175773494749 -1 0 0
1968 12 58.90522959666317 11.9490905982713 -0.5011757734970672 -1 0 0
1949 16 60.4972628290046 9.191608152516869 -0.5011757734957238 -1 0 0
1962 10 62.08929606134754 11.949090598272395 -0.5011757734947723 -1 0 0
1975 14 63.68132929369079 9.191608152516782 -0.5011757734960723 -1 0 0
1973 16 66.86539575837358 9.1916081525169 -0.5011757734956517 -1 0 0
1992 12 65.27336252603219 11.949090598271274 -0.5011757734969793 -1 0 0
1999 14 70.04946222305972 9.191608152516814 -0.5011757734961251 -1 0 0
1986 10 68.45742899071658 11.949090598272324 -0.5011757734947377 -1 0 0
2016 12 71.64149545540113 11.949090598271331 -0.5011757734970411 -1 0 0
1997 16 73.23352868774262 9.191608152516848 -0.5011757734956704 -1 0 0
2010 10 74.82556192008562 11.949090598272358 -0.5011757734948126 -1 0 0
2023 14 76.41759515242876 9.191608152516855 -0.5011757734961454 -1 0 0
2021 16 79.60166161711152 9.191608152516848 -0.5011757734958033 -1 0 0
2040 12 78.00962838477005 11.949090598271262 -0.5011757734970388 -1 0 0
2047 14 82.78572808179777 9.191608152516787 -0.5011757734959792 -1 0 0
2034 10 81.19369484945462 11.949090598272374 -0.5011757734947969 -1 0 0
2064 12 84.37776131413919 11.949090598271331 -0.5011757734969673 -1 0 0
2045 16 85.96979454648059 9.191608152516848 -0.5011757734956656 -1 0 0
2058 10 87.56182777882358 11.949090598272399 -0.5011757734948054 -1 0 0
2071 14 89.15386101116678 9.191608152516805 -0.5011757734962241 -1 0 0
2069 16 92.33792747584954 9.191608152516899 -0.501175773495664 -1 0 0
2088 12 90.7458942435082 11.949090598271262 -0.5011757734970914 -1 0 0
2095 14 95.52199394053572 9.191608152516784 -0.5011757734960121 -1 0 0
2082 10 93.92996070819255 11.949090598272367 -0.5011757734947898 -1 0 0
2112 12 97.11402717287726 11.949090598271273 -0.5011757734969301 -1 0 0
2093 16 98.70606040521858 9.191608152516933 -0.5011757734958056 -1 0 0
2106 10 100.29809363756159 11.949090598272367 -0.501175773494915 -1 0 0
2120 14 3.184066464685229 14.706573044026818 -0.5011757734960877 0 0 0
2142 16 6.368132929368066 14.706573044026856 -0.5011757734957029 0 0 0
2144 14 9.552199394054218 14.706573044026843 -0.5011757734960846 0 0 0
2166 16 12.736265858737081 14.706573044026886 -0.5011757734957306 0 0 0
2168 14 15.920332323423251 14.706573044026825 -0.5011757734960931 0 0 0
2190 16 19.104398788106067 14.706573044026861 -0.5011757734957517 0 0 0
2192 14 22.288465252792264 14.706573044026829 -0.5011757734960914 0 0 0
2214 16 25.472531717475057 14.706573044026856 -0.5011757734957923 0 0 0
2216 14 28.656598182161265 14.706573044026856 -0.5011757734960697 0 0 0
2238 16 31.840664646844015 14.706573044026849 -0.50117577349587 0 0 0
2240 14 35.02473111153029 14.706573044026877 -0.5011757734960354 0 0 0
2262 16 38.208797576213065 14.706573044026849 -0.5011757734958228 0 0 0
2264 14 41.39286404089923 14.706573044026854 -0.5011757734960762 0 0 0
2286 16 44.576930505582105 14.70657304402683 -0.5011757734957388 0 0 0
2288 14 47.76099697026822 14.706573044026824 -0.5011757734961205 0 0 0
1926 16 50.945063434951024 14.706573044026909 -0.5011757734957745 -1 0 0
1928 14 54.12912989963727 14.706573044026879 -0.5011757734960846 -1 0 0
1950 16 57.31319636431998 14.706573044026872 -0.5011757734957485 -1 0 0
1952 14 60.497262829006246 14.70657304402682 -0.5011757734960923 -1 0 0
1974 16 63.68132929368904 14.706573044026879 -0.5011757734956437 -1 0 0
1976 14 66.86539575837527 14.706573044026833 -0.5011757734962586 -1 0 0
1998 16 70.04946222305806 14.706573044026912 -0.501175773495696 -1 0 0
2000 14 73.23352868774427 14.706573044026777 -0.5011757734960521 -1 0 0
2022 16 76.41759515242705 14.70657304402694 -0.501175773495889 -1 0 0
2024 14 79.60166161711322 14.706573044026843 -0.5011757734960609 -1 0 0
2046 16 82.78572808179612 14.706573044026856 -0.5011757734956603 -1 0 0
2048 14 85.96979454648226 14.706573044026802 -0.5011757734961657 -1 0 0
2070 16 89.15386101116496 14.706573044026872 -0.5011757734957467 -1 0 0
2072 14 92.33792747585122 14.706573044026827 -0.5011757734961155 -1 0 0
2094 16 95.52199394053407 14.70657304402687 -0.5011757734956791 -1 0 0
2118 16 101.89012686990304 14.70657304402686 -0.5011757734957983 -1 0 0
2096 14 98.7060604052203 14.70657304402686 -0.5011757734961634 -1 0 0
2513 10 1.5920332323420183 17.464055489782403 -0.5011757734947656 0 0 0
2503 14 8.384404281969182e-13 20.22153793553683 -0.5011757734960866 0 0 0
2501 16 3.184066464683558 20.221537935536826 -0.5011757734956562 0 0 0
2519 12 4.776099697026563 17.46405548978132 -0.5011757734970116 0 0 0
2537 10 7.960166161711029 17.46405548978239 -0.5011757734948563 0 0 0
2527 14 6.368132929369787 20.221537935536805 -0.5011757734961204 0 0 0
2543 12 11.144232626395565 17.464055489781313 -0.5011757734970221 0 0 0
2525 16 9.552199394052566 20.221537935536883 -0.5011757734957145 0 0 0
2561 10 14.328299091080023 17.464055489782396 -0.5011757734948177 0 0 0
2551 14 12.736265858738793 20.22153793553682 -0.5011757734960968 0 0 0
2549 16 15.920332323421587 20.221537935536833 -0.501175773495711 0 0 0
2567 12 17.512365555764575 17.464055489781323 -0.5011757734969865 0 0 0
2585 10 20.696432020449034 17.46405548978236 -0.5011757734948571 0 0 0
2575 14 19.104398788107765 20.22153793553684 -0.5011757734960939 0 0 0
2591 12 23.880498485133558 17.46405548978134 -0.5011757734969443 0 0 0
2573 16 22.28846525279063 20.221537935536855 -0.5011757734957338 0 0 0
2609 10 27.064564949818056 17.464055489782364 -0.5011757734948247 0 0 0
2599 14 25.472531717476755 20.221537935536816 -0.5011757734961068 0 0 0
2597 16 28.656598182159605 20.221537935536862 -0.501175773495739 0 0 0
2615 12 30.24863141450252 17.464055489781323 -0.5011757734969653 0 0 0
2633 10 33.432697879187046 17.464055489782382 -0.5011757734948171 0 0 0
2623 14 31.8406646468458 20.221537935536823 -0.5011757734960745 0 0 0
2639 12 36.61676434387152 17.464055489781305 -0.5011757734969012 0 0 0
2621 16 35.0247311115286 20.22153793553688 -0.5011757734957665 0 0 0
2657 10 39.800830808556064 17.464055489782357 -0.5011757734948259 0 0 0
2647 14 38.20879757621476 20.221537935536837 -0.5011757734960921 0 0 0
2645 16 41.39286404089758 20.22153793553686 -0.5011757734957523 0 0 0
2663 12 42.98489727324053 17.464055489781305 -0.5011757734969492 0 0 0
2681 10 46.16896373792503 17.46405548978241 -0.5011757734949132 0 0 0
2671 14 44.57693050558378 20.22153793553682 -0.5011757734960596 0 0 0
2687 12 49.35303020260956 17.464055489781305 -0.5011757734970048 0 0 0
2669 16 47.760996970266554 20.221537935536855 -0.5011757734956777 0 0 0
2321 10 52.537096667293994 17.464055489782357 -0.5011757734948198 -1 0 0
2311 14 50.94506343495275 20.221537935536805 -0.5011757734961649 -1 0 0
2309 16 54.12912989963556 20.221537935536862 -0.5011757734957056 -1 0 0
2327 12 55.721163131978514 17.464055489781284 -0.501175773496939 -1 0 0
2345 10 58.905229596662984 17.464055489782375 -0.501175773494908 -1 0 0
2335 14 57.313196364321755 20.221537935536805 -0.5011757734961326 -1 0 0
2351 12 62.08929606134757 17.464055489781288 -0.5011757734969652 -1 0 0
2333 16 60.49726282900456 20.221537935536904 -0.501175773495665 -1 0 0
2369 10 65.27336252603199 17.464055489782407 -0.5011757734948098 -1 0 0
2359 14 63.68132929369081 20.221537935536798 -0.5011757734960823 -1 0 0
2357 16 66.86539575837361 20.221537935536876 -0.5011757734956566 -1 0 0
2375 12 68.45742899071662 17.46405548978134 -0.5011757734970398 -1 0 0
2393 10 71.64149545540099 17.46405548978231 -0.5011757734947874 -1 0 0
2383 14 70.04946222305968 20.22153793553685 -0.5011757734962144 -1 0 0
2399 12 74.82556192008569 17.464055489781284 -0.5011757734968961 -1 0 0
2381 16 73.2335286877426 20.221537935536887 -0.5011757734956778 -1 0 0
2417 10 78.00962838477001 17.464055489782314 -0.501175773494886 -1 0 0
2407 14 76.41759515242873 20.22153793553684 -0.5011757734961878 -1 0 0
2405 16 79.60166161711153 20.221537935536826 -0.5011757734958855 -1 0 0
2423 12 81.19369484945454 17.46405548978131 -0.5011757734969049 -1 0 0
2441 10 84.37776131413904 17.464055489782403 -0.5011757734947753 -1 0 0
2431 14 82.78572808179781 20.221537935536787 -0.501175773495872 -1 0 0
2447 12 87.56182777882356 17.464055489781266 -0.5011757734971566 -1 0 0
2429 16 85.96979454648061 20.221537935536833 -0.5011757734957671 -1 0 0
2465 10 90.74589424350799 17.464055489782368 -0.5011757734947317 -1 0 0
2455 14 89.15386101116685 20.221537935536812 -0.5011757734962166 -1 0 0
2453 16 92.33792747584957 20.221537935536862 -0.5011757734956372 -1 0 0
2471 12 93.92996070819255 17.4640554897813 -0.5011757734969026 -1 0 0
2489 10 97.11402717287707 17.464055489782336 -0.5011757734947866 -1 0 0
2479 14 95.52199394053576 20.221537935536812 -0.5011757734960927 -1 0 0
2495 12 100.29809363756155 17.464055489781213 -0.5011757734970796 -1 0 0
2477 16 98.70606040521854 20.22153793553696 -0.5011757734958767 -1 0 0
2520 12 1.5920332323421182 22.979020381291328 -0.5011757734969443 0 0 0
2504 14 3.184066464685241 25.736502827046813 -0.5011757734960831 0 0 0
2514 10 4.776099697026615 22.979020381292386 -0.5011757734948593 0 0 0
2544 12 7.960166161711185 22.97902038129128 -0.5011757734969399 0 0 0
2526 16 6.368132929368054 25.73650282704688 -0.5011757734956899 0 0 0
2538 10 11.144232626395583 22.979020381292337 -0.5011757734948034 0 0 0
2528 14 9.552199394054247 25.736502827046824 -0.5011757734961534 0 0 0
2550 16 12.73626585873708 25.736502827046873 -0.5011757734957 0 0 0
2568 12 14.32829909108014 22.979020381291328 -0.501175773496975 0 0 0
2552 14 15.92033232342325 25.73650282704681 -0.5011757734960687 0 0 0
2562 10 17.51236555576463 22.979020381292393 -0.501175773494866 0 0 0
2592 12 20.696432020449148 22.97902038129132 -0.5011757734969682 0 0 0
2574 16 19.10439878810605 25.73650282704686 -0.5011757734957413 0 0 0
2586 10 23.880498485133614 22.97902038129236 -0.5011757734948684 0 0 0
2576 14 22.288465252792246 25.736502827046817 -0.5011757734960375 0 0 0
2598 16 25.472531717475075 25.73650282704683 -0.5011757734957497 0 0 0
2616 12 27.06456494981815 22.979020381291306 -0.501175773496958 0 0 0
2600 14 28.656598182161233 25.736502827046824 -0.5011757734960197 0 0 0
2610 10 30.248631414502636 22.979020381292354 -0.501175773494837 0 0 0
2640 12 33.43269787918717 22.979020381291303 -0.5011757734970407 0 0 0
2622 16 31.84066464684408 25.73650282704684 -0.5011757734957366 0 0 0
2634 10 36.6167643438716 22.97902038129238 -0.5011757734948642 0 0 0
2624 14 35.02473111153024 25.736502827046824 -0.501175773496085 0 0 0
2646 16 38.20879757621306 25.736502827046834 -0.5011757734957231 0 0 0
2664 12 39.80083080855614 22.979020381291335 -0.5011757734970413 0 0 0
2648 14 41.39286404089922 25.736502827046806 -0.5011757734960969 0 0 0
2658 10 42.9848972732406 22.979020381292383 -0.5011757734948682 0 0 0
2688 12 46.16896373792516 22.979020381291317 -0.5011757734969412 0 0 0
2670 16 44.576930505582055 25.736502827046824 -0.5011757734956688 0 0 0
2682 10 49.353030202609574 22.979020381292354 -0.5011757734948283 0 0 0
2672 14 47.76099697026825 25.736502827046813 -0.5011757734961582 0 0 0
2310 16 50.94506343495104 25.736502827046884 -0.5011757734957689 -1 0 0
2328 12 52.53709666729414 22.97902038129129 -0.5011757734970015 -1 0 0
2312 14 54.129129899637256 25.736502827046817 -0.5011757734961044 -1 0 0
2322 10 55.721163131978564 22.97902038129239 -0.501175773494776 -1 0 0
2352 12 58.9052295966632 22.979020381291292 -0.5011757734970198 -1 0 0
2334 16 57.31319636432001 25.73650282704688 -0.5011757734956566 -1 0 0
2346 10 62.08929606134751 22.979020381292425 -0.5011757734948133 -1 0 0
2336 14 60.497262829006296 25.73650282704678 -0.5011757734961612 -1 0 0
2358 16 63.681329293689 25.736502827046888 -0.5011757734957314 -1 0 0
2376 12 65.2733625260322 22.979020381291303 -0.5011757734969552 -1 0 0
2360 14 66.86539575837517 25.73650282704679 -0.5011757734961118 -1 0 0
2370 10 68.45742899071662 22.979020381292322 -0.5011757734948158 -1 0 0
2400 12 71.64149545540111 22.979020381291328 -0.5011757734970052 -1 0 0
2382 16 70.04946222305807 25.736502827046852 -0.5011757734957161 -1 0 0
2394 10 74.82556192008558 22.97902038129234 -0.5011757734947965 -1 0 0
2384 14 73.2335286877442 25.736502827046806 -0.5011757734960991 -1 0 0
2406 16 76.41759515242701 25.73650282704685 -0.5011757734957327 -1 0 0
2424 12 78.00962838477007 22.979020381291306 -0.5011757734969152 -1 0 0
2408 14 79.60166161711318 25.73650282704679 -0.5011757734960394 -1 0 0
2418 10 81.19369484945467 22.979020381292365 -0.5011757734948282 -1 0 0
2448 12 84.37776131413918 22.979020381291317 -0.5011757734969101 -1 0 0
2430 16 82.78572808179612 25.736502827046856 -0.5011757734956794 -1 0 0
2442 10 87.56182777882366 22.979020381292404 -0.5011757734948332 -1 0 0
2432 14 85.96979454648229 25.73650282704681 -0.501175773496127 -1 0 0
2454 16 89.153861011165 25.736502827046845 -0.5011757734957034 -1 0 0
2472 12 90.74589424350818 22.979020381291317 -0.5011757734970688 -1 0 0
2456 14 92.33792747585123 25.736502827046806 -0.5011757734960921 -1 0 0
2466 10 93.92996070819258 22.979020381292372 -0.5011757734948125 -1 0 0
2496 12 97.11402717287724 22.97902038129128 -0.5011757734968838 -1 0 0
2478 16 95.52199394053406 25.736502827046856 -0.50117577349563 -1 0 0
2502 16 101.89012686990306 25.736502827046852 -0.5011757734957877 -1 0 0
2490 10 100.29809363756155 22.97902038129234 -0.5011757734948554 -1 0 0
2480 14 98.70606040522028 25.736502827046824 -0.5011757734961542 -1 0 0
2897 10 1.5920332323420472 28.493985272802433 -0.50117577349478 0 0 0
2903 12 4.776099697026566 28.493985272801325 -0.5011757734970174 0 0 0
2921 10 7.960166161711003 28.4939852728024 -0.5011757734948656 0 0 0
2927 12 11.144232626395597 28.49398527280132 -0.5011757734969682 0 0 0
2945 10 14.328299091080016 28.49398527280237 -0.5011757734948274 0 0 0
2951 12 17.512365555764585 28.49398527280131 -0.5011757734970381 0 0 0
2969 10 20.696432020449016 28.49398527280237 -0.5011757734948662 0 0 0
2975 12 23.88049848513355 28.493985272801325 -0.5011757734969825 0 0 0
2993 10 27.064564949818045 28.493985272802387 -0.501175773494839 0 0 0
2999 12 30.24863141450255 28.493985272801314 -0.5011757734969547 0 0 0
3017 10 33.43269787918704 28.49398527280237 -0.5011757734948626 0 0 0
3023 12 36.616764343871566 28.493985272801304 -0.5011757734969722 0 0 0
3041 10 39.800830808556036 28.493985272802384 -0.501175773494907 0 0 0
3047 12 42.984897273240534 28.4939852728013 -0.5011757734969442 0 0 0
3065 10 46.16896373792502 28.49398527280241 -0.5011757734948792 0 0 0
3071 12 49.35303020260955 28.493985272801353 -0.5011757734969667 0 0 0
2705 10 52.53709666729398 28.493985272802366 -0.501175773494915 -1 0 0
2711 12 55.72116313197857 28.493985272801297 -0.501175773496959 -1 0 0
2729 10 58.90522959666296 28.4939852728024 -0.5011757734948269 -1 0 0
2735 12 62.08929606134761 28.49398527280132 -0.5011757734970508 -1 0 0
2753 10 65.27336252603196 28.4939852728024 -0.5011757734948341 -1 0 0
2759 12 68.4574289907166 28.49398527280137 -0.5011757734970704 -1 0 0
2777 10 71.64149545540101 28.49398527280236 -0.5011757734948562 -1 0 0
2783 12 74.82556192008553 28.49398527280133 -0.5011757734969754 -1 0 0
2801 10 78.00962838476998 28.49398527280237 -0.5011757734948767 -1 0 0
2807 12 81.1936948494546 28.49398527280134 -0.501175773496874 -1 0 0
2825 10 84.37776131413902 28.49398527280242 -0.5011757734948562 -1 0 0
2831 12 87.56182777882354 28.493985272801275 -0.5011757734970979 -1 0 0
2849 10 90.74589424350802 28.493985272802448 -0.5011757734948386 -1 0 0
2855 12 93.92996070819257 28.493985272801336 -0.5011757734969212 -1 0 0
2873 10 97.11402717287707 28.493985272802405 -0.5011757734948448 -1 0 0
2879 12 100.29809363756154 28.49398527280125 -0.5011757734970622 -1 0 0
2887 14 8.526512829121202e-13 31.251467718556803 -0.5011757734961195 0 0 0
2885 16 3.18406646468354 31.251467718556807 -0.5011757734956453 0 0 0
2904 12 1.5920332323421165 34.008950164311315 -0.5011757734969781 0 0 0
2911 14 6.368132929369786 31.251467718556803 -0.5011757734961204 0 0 0
2898 10 4.776099697026618 34.00895016431243 -0.5011757734948673 0 0 0
2928 12 7.9601661617111805 34.00895016431135 -0.5011757734970353 0 0 0
2909 16 9.552199394052593 31.25146771855687 -0.5011757734956906 0 0 0
2922 10 11.144232626395597 34.008950164312395 -0.5011757734948488 0 0 0
2935 14 12.736265858738765 31.251467718556803 -0.5011757734960671 0 0 0
2933 16 15.920332323421595 31.251467718556864 -0.5011757734956984 0 0 0
2952 12 14.32829909108016 34.00895016431132 -0.5011757734970089 0 0 0
2959 14 19.104398788107787 31.25146771855682 -0.5011757734960982 0 0 0
2946 10 17.512365555764607 34.008950164312424 -0.5011757734948078 0 0 0
2976 12 20.69643202044916 34.008950164311315 -0.5011757734969823 0 0 0
2957 16 22.288465252790587 31.251467718556842 -0.5011757734957187 0 0 0
2970 10 23.880498485133593 34.00895016431239 -0.5011757734948359 0 0 0
2983 14 25.472531717476784 31.25146771855681 -0.5011757734961112 0 0 0
2981 16 28.656598182159566 31.251467718556857 -0.5011757734957653 0 0 0
3000 12 27.064564949818184 34.00895016431129 -0.5011757734970612 0 0 0
3007 14 31.8406646468458 31.25146771855682 -0.5011757734960951 0 0 0
2994 10 30.248631414502597 34.008950164312374 -0.5011757734947635 0 0 0
3024 12 33.432697879187124 34.0089501643113 -0.5011757734970054 0 0 0
3005 16 35.0247311115286 31.251467718556853 -0.501175773495711 0 0 0
3018 10 36.61676434387162 34.008950164312374 -0.5011757734947836 0 0 0
3031 14 38.20879757621478 31.251467718556814 -0.5011757734960156 0 0 0
3029 16 41.39286404089755 31.251467718556817 -0.5011757734957679 0 0 0
3048 12 39.80083080855612 34.00895016431131 -0.5011757734970426 0 0 0
3055 14 44.57693050558382 31.251467718556796 -0.501175773496042 0 0 0
3042 10 42.9848972732406 34.008950164312445 -0.501175773494748 0 0 0
3072 12 46.16896373792518 34.00895016431133 -0.5011757734970406 0 0 0
3053 16 47.760996970266596 31.251467718556817 -0.5011757734956881 0 0 0
3066 10 49.353030202609595 34.00895016431239 -0.5011757734948724 0 0 0
2695 14 50.945063434952694 31.25146771855678 -0.501175773496079 -1 0 0
2693 16 54.12912989963558 31.251467718556878 -0.5011757734956959 -1 0 0
2712 12 52.53709666729417 34.00895016431132 -0.5011757734969418 -1 0 0
2719 14 57.31319636432178 31.251467718556757 -0.5011757734961096 -1 0 0
2706 10 55.72116313197856 34.0089501643124 -0.5011757734947653 -1 0 0
2736 12 58.90522959666321 34.008950164311294 -0.5011757734970058 -1 0 0
2717 16 60.4972628290046 31.251467718556857 -0.5011757734956539 -1 0 0
2730 10 62.08929606134752 34.0089501643124 -0.501175773494904 -1 0 0
2743 14 63.681329293690794 31.25146771855671 -0.5011757734961196 -1 0 0
2741 16 66.86539575837361 31.251467718556857 -0.5011757734956251 -1 0 0
2760 12 65.27336252603224 34.0089501643113 -0.5011757734969933 -1 0 0
2767 14 70.04946222305976 31.251467718556817 -0.5011757734960314 -1 0 0
2754 10 68.45742899071662 34.00895016431238 -0.5011757734947827 -1 0 0
2784 12 71.64149545540118 34.00895016431137 -0.5011757734969764 -1 0 0
2765 16 73.23352868774263 31.25146771855686 -0.501175773495832 -1 0 0
2778 10 74.82556192008559 34.0089501643124 -0.5011757734949794 -1 0 0
2791 14 76.41759515242867 31.251467718556807 -0.5011757734960608 -1 0 0
2789 16 79.60166161711152 31.25146771855683 -0.5011757734957002 -1 0 0
2808 12 78.00962838477007 34.008950164311365 -0.5011757734969299 -1 0 0
2815 14 82.78572808179774 31.251467718556764 -0.5011757734959694 -1 0 0
2802 10 81.1936948494546 34.0089501643124 -0.5011757734949038 -1 0 0
2832 12 84.37776131413916 34.00895016431136 -0.5011757734970439 -1 0 0
2813 16 85.96979454648054 31.25146771855685 -0.5011757734957215 -1 0 0
2826 10 87.56182777882358 34.00895016431243 -0.5011757734948058 -1 0 0
2839 14 89.15386101116685 31.25146771855682 -0.5011757734961132 -1 0 0
2837 16 92.3379274758495 31.2514677185568 -0.5011757734956839 -1 0 0
2856 12 90.7458942435081 34.008950164311315 -0.5011757734970247 -1 0 0
2863 14 95.52199394053578 31.251467718556743 -0.5011757734960635 -1 0 0
2850 10 93.92996070819264 34.00895016431236 -0.501175773494899 -1 0 0
2880 12 97.11402717287731 34.00895016431133 -0.5011757734968351 -1 0 0
2861 16 98.70606040521854 31.251467718556913 -0.5011757734958908 -1 0 0
2874 10 100.29809363756159 34.00895016431235 -0.5011757734948538 -1 0 0