LAMMPS data file via write_data, version 2 Aug 2023, timestep = 17, units = metal

6912 atoms
24 atom types

0 101.890126869904 xlo xhi
0 99.26936804718 ylo yhi
-50 50 zlo zhi

Masses

1 95.95
2 95.95
3 95.95
4 95.95
5 95.95
6 95.95
7 95.95
8 95.95
9 32.06
10 32.06
11 32.06
12 32.06
13 32.06
14 32.06
15 32.06
16 32.06
17 32.06
18 32.06
19 32.06
20 32.06
21 32.06
22 32.06
23 32.06
24 32.06

Atoms # atomic

1748 12 1.5920332323421675 0.9191608152513224 -0.5011757734969572 0 0 0
1744 14 3.184066464685235 3.6766432610068165 -0.5011757734961277 0 0 0
1750 10 4.776099697026555 0.919160815252388 -0.5011757734949304 0 0 0
1772 12 7.960166161711231 0.91916081525132 -0.5011757734970117 0 0 0
1761 16 6.368132929368063 3.6766432610068636 -0.5011757734957787 0 0 0
1774 10 11.144232626395553 0.9191608152523719 -0.5011757734948439 0 0 0
1768 14 9.552199394054245 3.676643261006817 -0.5011757734961575 0 0 0
1785 16 12.736265858737081 3.676643261006861 -0.5011757734957486 0 0 0
1796 12 14.328299091080206 0.9191608152513373 -0.5011757734969854 0 0 0
1792 14 15.92033232342323 3.6766432610068156 -0.5011757734961367 0 0 0
1798 10 17.51236555576459 0.9191608152523694 -0.5011757734948851 0 0 0
1820 12 20.69643202044919 0.9191608152513254 -0.50117577349696 0 0 0
1809 16 19.10439878810609 3.6766432610068502 -0.5011757734957991 0 0 0
1822 10 23.880498485133565 0.9191608152523764 -0.5011757734948933 0 0 0
1816 14 22.288465252792246 3.676643261006822 -0.5011757734960923 0 0 0
1833 16 25.47253171747506 3.676643261006841 -0.5011757734957896 0 0 0
1844 12 27.064564949818223 0.9191608152512952 -0.5011757734969968 0 0 0
1840 14 28.656598182161265 3.6766432610068067 -0.50117577349613 0 0 0
1846 10 30.24863141450251 0.9191608152523918 -0.5011757734948398 0 0 0
1868 12 33.432697879187245 0.9191608152512803 -0.5011757734969999 0 0 0
1857 16 31.84066464684404 3.6766432610068533 -0.5011757734957847 0 0 0
1870 10 36.61676434387155 0.9191608152523828 -0.5011757734948616 0 0 0
1864 14 35.0247311115303 3.676643261006857 -0.5011757734961205 0 0 0
1881 16 38.208797576213065 3.6766432610068542 -0.5011757734958262 0 0 0
1892 12 39.80083080855621 0.9191608152513306 -0.5011757734970789 0 0 0
1888 14 41.39286404089925 3.6766432610068236 -0.5011757734961375 0 0 0
1894 10 42.984897273240534 0.9191608152524227 -0.5011757734949134 0 0 0
1916 12 46.16896373792521 0.9191608152513278 -0.5011757734970042 0 0 0
1905 16 44.57693050558201 3.676643261006844 -0.5011757734957294 0 0 0
1918 10 49.3530302026095 0.9191608152523726 -0.501175773494896 0 0 0
1912 14 47.760996970268216 3.6766432610067956 -0.5011757734961482 0 0 0
1545 16 50.94506343495104 3.6766432610068747 -0.501175773495775 -1 0 0
1556 12 52.537096667294236 0.9191608152512842 -0.5011757734970204 -1 0 0
1552 14 54.12912989963728 3.6766432610068236 -0.5011757734961113 -1 0 0
1558 10 55.72116313197851 0.9191608152524146 -0.5011757734948468 -1 0 0
1580 12 58.90522959666324 0.9191608152513072 -0.5011757734970916 -1 0 0
1569 16 57.31319636432001 3.6766432610068516 -0.5011757734958118 -1 0 0
1582 10 62.0892960613475 0.9191608152524263 -0.5011757734948555 -1 0 0
1576 14 60.49726282900626 3.676643261006798 -0.5011757734961378 -1 0 0
1593 16 63.681329293688975 3.6766432610068858 -0.5011757734957344 -1 0 0
1604 12 65.27336252603223 0.9191608152513006 -0.5011757734969676 -1 0 0
1600 14 66.86539575837523 3.6766432610068085 -0.5011757734961924 -1 0 0
1606 10 68.4574289907166 0.9191608152523596 -0.501175773494838 -1 0 0
1628 12 71.64149545540123 0.919160815251346 -0.5011757734970684 -1 0 0
1617 16 70.04946222305806 3.6766432610068582 -0.5011757734957127 -1 0 0
1630 10 74.82556192008553 0.9191608152524069 -0.5011757734949653 -1 0 0
1624 14 73.23352868774424 3.6766432610068045 -0.5011757734961505 -1 0 0
1641 16 76.41759515242698 3.676643261006912 -0.5011757734959463 -1 0 0
1652 12 78.00962838477014 0.9191608152512678 -0.5011757734969732 -1 0 0
1648 14 79.60166161711321 3.6766432610068343 -0.501175773496108 -1 0 0
1654 10 81.19369484945456 0.9191608152523542 -0.5011757734948138 -1 0 0
1676 12 84.37776131413915 0.9191608152513058 -0.5011757734969453 -1 0 0
1665 16 82.78572808179611 3.6766432610068325 -0.5011757734957492 -1 0 0
1678 10 87.56182777882353 0.9191608152523789 -0.5011757734947284 -1 0 0
1672 14 85.96979454648223 3.6766432610068236 -0.5011757734962162 -1 0 0
1689 16 89.15386101116498 3.67664326100687 -0.5011757734957176 -1 0 0
1700 12 90.74589424350823 0.9191608152512879 -0.5011757734970668 -1 0 0
1696 14 92.33792747585127 3.676643261006813 -0.5011757734961608 -1 0 0
1702 10 93.92996070819258 0.9191608152524313 -0.5011757734949441 -1 0 0
1724 12 97.11402717287726 0.9191608152513129 -0.50117577349704 -1 0 0
1713 16 95.52199394053403 3.676643261006863 -0.5011757734958181 -1 0 0
1737 16 101.89012686990304 3.676643261006833 -0.5011757734958026 -1 0 0
1726 10 100.29809363756156 0.9191608152523779 -0.5011757734949308 -1 0 0
1720 14 98.70606040522024 3.676643261006809 -0.5011757734960802 -1 0 0
2133 10 1.592033232342032 6.434125706762407 -0.5011757734948661 0 0 0
2131 12 4.776099697026567 6.434125706761306 -0.5011757734970377 0 0 0
2157 10 7.960166161711016 6.434125706762371 -0.5011757734949053 0 0 0
2155 12 11.144232626395574 6.434125706761319 -0.5011757734970269 0 0 0
2181 10 14.328299091080023 6.4341257067623685 -0.5011757734948944 0 0 0
2179 12 17.51236555576457 6.434125706761325 -0.5011757734970589 0 0 0
2205 10 20.696432020449038 6.434125706762387 -0.5011757734949143 0 0 0
2203 12 23.88049848513354 6.434125706761322 -0.5011757734970193 0 0 0
2229 10 27.06456494981803 6.434125706762377 -0.5011757734948878 0 0 0
2227 12 30.248631414502572 6.434125706761314 -0.5011757734969994 0 0 0
2253 10 33.43269787918707 6.434125706762367 -0.5011757734948625 0 0 0
2251 12 36.61676434387156 6.4341257067612965 -0.5011757734969907 0 0 0
2277 10 39.80083080855604 6.434125706762382 -0.5011757734949703 0 0 0
2275 12 42.984897273240506 6.434125706761303 -0.501175773497052 0 0 0
2301 10 46.16896373792499 6.434125706762394 -0.501175773494891 0 0 0
2299 12 49.353030202609546 6.434125706761319 -0.5011757734970277 0 0 0
1941 10 52.537096667294016 6.434125706762368 -0.5011757734948078 -1 0 0
1939 12 55.72116313197856 6.434125706761306 -0.5011757734969918 -1 0 0
1965 10 58.90522959666301 6.434125706762368 -0.5011757734949688 -1 0 0
1963 12 62.08929606134757 6.434125706761309 -0.501175773497003 -1 0 0
1989 10 65.27336252603197 6.4341257067623845 -0.5011757734948621 -1 0 0
1987 12 68.4574289907166 6.434125706761359 -0.5011757734971324 -1 0 0
2013 10 71.641495455401 6.4341257067623845 -0.5011757734948671 -1 0 0
2011 12 74.82556192008555 6.434125706761286 -0.5011757734970221 -1 0 0
2037 10 78.00962838477002 6.434125706762328 -0.5011757734948561 -1 0 0
2035 12 81.19369484945453 6.434125706761334 -0.5011757734970127 -1 0 0
2061 10 84.377761314139 6.434125706762429 -0.5011757734948636 -1 0 0
2059 12 87.56182777882354 6.4341257067612805 -0.5011757734971595 -1 0 0
2085 10 90.74589424350799 6.4341257067623765 -0.501175773494845 -1 0 0
2083 12 93.92996070819257 6.434125706761321 -0.5011757734969478 -1 0 0
2109 10 97.11402717287703 6.434125706762351 -0.5011757734948646 -1 0 0
2107 12 100.29809363756158 6.434125706761319 -0.5011757734971031 -1 0 0
2127 14 7.958078640513122e-13 9.191608152516832 -0.5011757734961038 0 0 0
2118 16 3.1840664646835664 9.19160815251683 -0.5011757734957152 0 0 0
2132 12 1.5920332323420912 11.949090598271303 -0.5011757734969493 0 0 0
2151 14 6.368132929369775 9.191608152516828 -0.5011757734961415 0 0 0
2134 10 4.776099697026628 11.949090598272374 -0.501175773494903 0 0 0
2156 12 7.9601661617111565 11.949090598271306 -0.5011757734969781 0 0 0
2142 16 9.552199394052595 9.191608152516869 -0.501175773495737 0 0 0
2158 10 11.14423262639561 11.949090598272347 -0.5011757734948711 0 0 0
2175 14 12.736265858738761 9.191608152516828 -0.5011757734960944 0 0 0
2166 16 15.920332323421611 9.191608152516835 -0.5011757734957856 0 0 0
2180 12 14.328299091080133 11.949090598271315 -0.5011757734970027 0 0 0
2199 14 19.104398788107783 9.191608152516825 -0.501175773496106 0 0 0
2182 10 17.512365555764642 11.949090598272356 -0.5011757734948822 0 0 0
2204 12 20.69643202044914 11.949090598271301 -0.5011757734969831 0 0 0
2190 16 22.288465252790584 9.191608152516837 -0.501175773495764 0 0 0
2206 10 23.88049848513363 11.949090598272372 -0.5011757734949043 0 0 0
2223 14 25.472531717476766 9.19160815251681 -0.5011757734961315 0 0 0
2214 16 28.656598182159595 9.191608152516864 -0.5011757734957352 0 0 0
2228 12 27.06456494981816 11.949090598271292 -0.5011757734970346 0 0 0
2247 14 31.8406646468458 9.191608152516835 -0.5011757734960756 0 0 0
2230 10 30.24863141450262 11.94909059827238 -0.5011757734948243 0 0 0
2252 12 33.432697879187145 11.949090598271276 -0.5011757734970503 0 0 0
2238 16 35.02473111152861 9.191608152516858 -0.501175773495786 0 0 0
2254 10 36.616764343871644 11.949090598272393 -0.5011757734948592 0 0 0
2271 14 38.2087975762148 9.191608152516835 -0.5011757734961246 0 0 0
2262 16 41.39286404089756 9.191608152516856 -0.501175773495793 0 0 0
2276 12 39.80083080855612 11.9490905982713 -0.5011757734970609 0 0 0
2295 14 44.576930505583775 9.191608152516825 -0.5011757734960848 0 0 0
2278 10 42.98489727324061 11.949090598272376 -0.5011757734948301 0 0 0
2300 12 46.16896373792513 11.949090598271326 -0.5011757734969559 0 0 0
2286 16 47.760996970266575 9.191608152516846 -0.5011757734957465 0 0 0
2302 10 49.35303020260961 11.949090598272377 -0.5011757734949432 0 0 0
1935 14 50.945063434952765 9.191608152516835 -0.5011757734961422 -1 0 0
1926 16 54.129129899635565 9.191608152516881 -0.501175773495703 -1 0 0
1940 12 52.53709666729414 11.94909059827129 -0.5011757734970861 -1 0 0
1959 14 57.313196364321755 9.191608152516817 -0.5011757734961549 -1 0 0
1942 10 55.721163131978585 11.949090598272404 -0.5011757734947978 -1 0 0
1964 12 58.90522959666317 11.94909059827129 -0.5011757734970813 -1 0 0
1950 16 60.497262829004605 9.191608152516874 -0.5011757734957515 -1 0 0
1966 10 62.089296061347554 11.949090598272397 -0.5011757734948107 -1 0 0
1983 14 63.68132929369078 9.191608152516777 -0.5011757734961313 -1 0 0
1974 16 66.8653957583736 9.191608152516876 -0.5011757734956821 -1 0 0
1988 12 65.27336252603222 11.949090598271292 -0.501175773496975 -1 0 0
2007 14 70.04946222305973 9.19160815251682 -0.5011757734961557 -1 0 0
1990 10 68.4574289907166 11.949090598272342 -0.501175773494872 -1 0 0
2012 12 71.64149545540111 11.949090598271335 -0.501175773497065 -1 0 0
1998 16 73.23352868774255 9.191608152516839 -0.5011757734957851 -1 0 0
2014 10 74.82556192008562 11.949090598272344 -0.5011757734948459 -1 0 0
2031 14 76.41759515242873 9.191608152516869 -0.5011757734960752 -1 0 0
2022 16 79.60166161711155 9.191608152516816 -0.5011757734958624 -1 0 0
2036 12 78.00962838477005 11.949090598271313 -0.501175773497024 -1 0 0
2055 14 82.78572808179776 9.191608152516816 -0.5011757734958985 -1 0 0
2038 10 81.19369484945464 11.949090598272337 -0.5011757734948967 -1 0 0
2060 12 84.37776131413911 11.949090598271301 -0.501175773496924 -1 0 0
2046 16 85.96979454648056 9.191608152516807 -0.5011757734957586 -1 0 0
2062 10 87.56182777882363 11.949090598272429 -0.5011757734949 -1 0 0
2079 14 89.15386101116681 9.191608152516816 -0.501175773496251 -1 0 0
2070 16 92.33792747584954 9.19160815251688 -0.5011757734956702 -1 0 0
2084 12 90.7458942435082 11.949090598271273 -0.5011757734971182 -1 0 0
2103 14 95.52199394053571 9.191608152516778 -0.5011757734960648 -1 0 0
2086 10 93.92996070819255 11.949090598272365 -0.5011757734948384 -1 0 0
2108 12 97.11402717287726 11.94909059827129 -0.5011757734969775 -1 0 0
2094 16 98.70606040521862 9.191608152516917 -0.5011757734958177 -1 0 0
2110 10 100.29809363756159 11.949090598272342 -0.5011757734949245 -1 0 0
2128 14 3.1840664646852352 14.706573044026836 -0.5011757734961715 0 0 0
2145 16 6.368132929368067 14.706573044026868 -0.5011757734957567 0 0 0
2152 14 9.552199394054222 14.70657304402686 -0.5011757734961281 0 0 0
2169 16 12.736265858737081 14.706573044026877 -0.5011757734957761 0 0 0
2176 14 15.920332323423237 14.706573044026822 -0.5011757734960984 0 0 0
2193 16 19.104398788106074 14.706573044026836 -0.5011757734957795 0 0 0
2200 14 22.288465252792243 14.706573044026822 -0.5011757734961331 0 0 0
2217 16 25.472531717475043 14.706573044026836 -0.5011757734958067 0 0 0
2224 14 28.656598182161265 14.70657304402686 -0.5011757734960961 0 0 0
2241 16 31.84066464684401 14.706573044026845 -0.5011757734959149 0 0 0
2248 14 35.024731111530286 14.706573044026863 -0.5011757734960829 0 0 0
2265 16 38.20879757621304 14.70657304402684 -0.5011757734958651 0 0 0
2272 14 41.392864040899255 14.70657304402683 -0.5011757734961062 0 0 0
2289 16 44.57693050558205 14.70657304402683 -0.501175773495786 0 0 0
2296 14 47.76099697026822 14.706573044026815 -0.501175773496167 0 0 0
1929 16 50.94506343495103 14.706573044026895 -0.5011757734957952 -1 0 0
1936 14 54.12912989963728 14.706573044026852 -0.5011757734961421 -1 0 0
1953 16 57.313196364319985 14.706573044026875 -0.5011757734958161 -1 0 0
1960 14 60.497262829006246 14.706573044026829 -0.5011757734961334 -1 0 0
1977 16 63.681329293689046 14.706573044026888 -0.5011757734956631 -1 0 0
1984 14 66.86539575837527 14.706573044026841 -0.5011757734962836 -1 0 0
2001 16 70.04946222305807 14.70657304402689 -0.501175773495752 -1 0 0
2008 14 73.23352868774423 14.706573044026815 -0.5011757734961009 -1 0 0
2025 16 76.41759515242704 14.706573044026928 -0.5011757734958422 -1 0 0
2032 14 79.60166161711318 14.706573044026863 -0.5011757734961118 -1 0 0
2049 16 82.78572808179611 14.706573044026857 -0.5011757734957271 -1 0 0
2056 14 85.96979454648229 14.706573044026806 -0.5011757734961734 -1 0 0
2073 16 89.15386101116495 14.706573044026873 -0.5011757734957694 -1 0 0
2080 14 92.33792747585122 14.706573044026833 -0.5011757734961467 -1 0 0
2097 16 95.52199394053409 14.70657304402687 -0.5011757734957116 -1 0 0
2121 16 101.89012686990303 14.706573044026854 -0.5011757734957941 -1 0 0
2104 14 98.70606040522026 14.706573044026843 -0.501175773496197 -1 0 0
2517 10 1.5920332323420392 17.4640554897824 -0.5011757734948683 0 0 0
2511 14 8.100187187665142e-13 20.221537935536862 -0.5011757734960955 0 0 0
2502 16 3.184066464683571 20.221537935536826 -0.5011757734957335 0 0 0
2515 12 4.776099697026562 17.464055489781316 -0.5011757734970514 0 0 0
2541 10 7.960166161711025 17.46405548978239 -0.5011757734948797 0 0 0
2535 14 6.368132929369781 20.221537935536805 -0.5011757734961543 0 0 0
2539 12 11.144232626395555 17.464055489781313 -0.5011757734970617 0 0 0
2526 16 9.552199394052565 20.22153793553688 -0.5011757734957611 0 0 0
2565 10 14.328299091080028 17.464055489782393 -0.5011757734948598 0 0 0
2559 14 12.736265858738788 20.221537935536812 -0.5011757734961501 0 0 0
2550 16 15.92033232342159 20.221537935536837 -0.5011757734957518 0 0 0
2563 12 17.512365555764564 17.464055489781327 -0.5011757734970166 0 0 0
2589 10 20.696432020449045 17.46405548978236 -0.5011757734949118 0 0 0
2583 14 19.104398788107765 20.22153793553684 -0.5011757734961085 0 0 0
2587 12 23.88049848513355 17.464055489781337 -0.50117577349699 0 0 0
2574 16 22.288465252790633 20.221537935536844 -0.5011757734957965 0 0 0
2613 10 27.06456494981806 17.464055489782368 -0.5011757734948419 0 0 0
2607 14 25.472531717476762 20.22153793553682 -0.5011757734961366 0 0 0
2598 16 28.656598182159595 20.221537935536862 -0.5011757734957893 0 0 0
2611 12 30.248631414502505 17.46405548978132 -0.501175773497028 0 0 0
2637 10 33.43269787918705 17.464055489782403 -0.5011757734948337 0 0 0
2631 14 31.8406646468458 20.221537935536826 -0.5011757734961029 0 0 0
2635 12 36.61676434387153 17.464055489781302 -0.5011757734969701 0 0 0
2622 16 35.02473111152855 20.221537935536848 -0.5011757734957958 0 0 0
2661 10 39.800830808556064 17.46405548978237 -0.5011757734948521 0 0 0
2655 14 38.20879757621477 20.221537935536823 -0.5011757734961354 0 0 0
2646 16 41.39286404089759 20.22153793553685 -0.5011757734957736 0 0 0
2659 12 42.98489727324055 17.464055489781302 -0.5011757734970588 0 0 0
2685 10 46.16896373792503 17.46405548978241 -0.501175773494934 0 0 0
2679 14 44.57693050558379 20.221537935536816 -0.5011757734961063 0 0 0
2683 12 49.35303020260955 17.464055489781305 -0.5011757734970166 0 0 0
2670 16 47.76099697026655 20.221537935536837 -0.5011757734957161 0 0 0
2325 10 52.53709666729402 17.46405548978234 -0.5011757734947805 -1 0 0
2319 14 50.94506343495276 20.221537935536812 -0.501175773496198 -1 0 0
2310 16 54.12912989963557 20.221537935536865 -0.5011757734957566 -1 0 0
2323 12 55.72116313197855 17.464055489781284 -0.5011757734969859 -1 0 0
2349 10 58.905229596663 17.464055489782375 -0.5011757734949499 -1 0 0
2343 14 57.31319636432177 20.221537935536816 -0.5011757734961887 -1 0 0
2347 12 62.08929606134756 17.464055489781295 -0.5011757734969974 -1 0 0
2334 16 60.497262829004576 20.221537935536908 -0.5011757734956996 -1 0 0
2373 10 65.273362526032 17.464055489782403 -0.5011757734948572 -1 0 0
2367 14 63.6813292936908 20.221537935536794 -0.5011757734961547 -1 0 0
2358 16 66.8653957583736 20.22153793553687 -0.5011757734957029 -1 0 0
2371 12 68.4574289907166 17.46405548978133 -0.5011757734970937 -1 0 0
2397 10 71.64149545540099 17.46405548978234 -0.5011757734948898 -1 0 0
2391 14 70.0494622230597 20.221537935536848 -0.5011757734962247 -1 0 0
2395 12 74.82556192008555 17.464055489781295 -0.5011757734969825 -1 0 0
2382 16 73.23352868774256 20.221537935536887 -0.5011757734958356 -1 0 0
2421 10 78.00962838476998 17.464055489782307 -0.5011757734948749 -1 0 0
2415 14 76.41759515242867 20.22153793553687 -0.5011757734961513 -1 0 0
2406 16 79.60166161711153 20.22153793553684 -0.5011757734958933 -1 0 0
2419 12 81.19369484945454 17.464055489781302 -0.5011757734969863 -1 0 0
2445 10 84.37776131413901 17.46405548978241 -0.5011757734947848 -1 0 0
2439 14 82.78572808179781 20.221537935536773 -0.5011757734958896 -1 0 0
2443 12 87.56182777882356 17.464055489781284 -0.5011757734972038 -1 0 0
2430 16 85.96979454648061 20.221537935536826 -0.501175773495795 -1 0 0
2469 10 90.745894243508 17.46405548978238 -0.501175773494785 -1 0 0
2463 14 89.15386101116682 20.221537935536837 -0.5011757734962847 -1 0 0
2454 16 92.33792747584955 20.22153793553687 -0.5011757734956743 -1 0 0
2467 12 93.92996070819257 17.46405548978132 -0.5011757734968613 -1 0 0
2493 10 97.11402717287704 17.46405548978234 -0.5011757734949552 -1 0 0
2487 14 95.52199394053574 20.22153793553681 -0.5011757734961027 -1 0 0
2491 12 100.29809363756156 17.46405548978128 -0.5011757734969914 -1 0 0
2478 16 98.7060604052186 20.221537935536936 -0.5011757734958642 -1 0 0
2516 12 1.5920332323420847 22.979020381291324 -0.5011757734969735 0 0 0
2512 14 3.184066464685237 25.7365028270468 -0.5011757734960833 0 0 0
2518 10 4.77609969702662 22.979020381292393 -0.5011757734949303 0 0 0
2540 12 7.960166161711186 22.979020381291278 -0.501175773497005 0 0 0
2529 16 6.368132929368045 25.73650282704685 -0.5011757734957318 0 0 0
2542 10 11.14423262639558 22.979020381292347 -0.5011757734948461 0 0 0
2536 14 9.552199394054249 25.73650282704679 -0.5011757734961777 0 0 0
2553 16 12.736265858737067 25.73650282704685 -0.5011757734957492 0 0 0
2564 12 14.328299091080147 22.979020381291335 -0.5011757734970235 0 0 0
2560 14 15.920332323423253 25.73650282704681 -0.5011757734961225 0 0 0
2566 10 17.512365555764635 22.979020381292393 -0.501175773494893 0 0 0
2588 12 20.696432020449148 22.979020381291317 -0.5011757734970032 0 0 0
2577 16 19.104398788106046 25.736502827046866 -0.5011757734957741 0 0 0
2590 10 23.88049848513363 22.979020381292358 -0.5011757734949027 0 0 0
2584 14 22.28846525279225 25.736502827046817 -0.5011757734961013 0 0 0
2601 16 25.472531717475075 25.736502827046834 -0.5011757734957761 0 0 0
2612 12 27.06456494981814 22.979020381291306 -0.5011757734969999 0 0 0
2608 14 28.656598182161222 25.736502827046824 -0.5011757734960717 0 0 0
2614 10 30.248631414502626 22.97902038129236 -0.5011757734949025 0 0 0
2636 12 33.432697879187145 22.97902038129129 -0.5011757734970189 0 0 0
2625 16 31.84066464684406 25.736502827046845 -0.5011757734957817 0 0 0
2638 10 36.61676434387164 22.979020381292372 -0.5011757734948962 0 0 0
2632 14 35.02473111153027 25.73650282704683 -0.5011757734960635 0 0 0
2649 16 38.208797576213065 25.736502827046852 -0.5011757734958209 0 0 0
2660 12 39.80083080855613 22.979020381291324 -0.5011757734970678 0 0 0
2656 14 41.39286404089922 25.73650282704685 -0.5011757734961176 0 0 0
2662 10 42.9848972732406 22.979020381292376 -0.5011757734948823 0 0 0
2684 12 46.16896373792513 22.979020381291313 -0.5011757734969657 0 0 0
2673 16 44.576930505582055 25.736502827046827 -0.5011757734957103 0 0 0
2686 10 49.353030202609595 22.979020381292354 -0.5011757734949052 0 0 0
2680 14 47.76099697026822 25.736502827046824 -0.5011757734961803 0 0 0
2313 16 50.94506343495109 25.736502827046877 -0.5011757734957358 -1 0 0
2324 12 52.53709666729415 22.97902038129131 -0.5011757734970054 -1 0 0
2320 14 54.129129899637256 25.736502827046817 -0.501175773496139 -1 0 0
2326 10 55.721163131978585 22.979020381292376 -0.5011757734948591 -1 0 0
2348 12 58.905229596663204 22.97902038129128 -0.5011757734970272 -1 0 0
2337 16 57.313196364320014 25.736502827046877 -0.5011757734957702 -1 0 0
2350 10 62.08929606134752 22.979020381292422 -0.5011757734948371 -1 0 0
2344 14 60.49726282900628 25.73650282704679 -0.5011757734962128 -1 0 0
2361 16 63.68132929368899 25.73650282704688 -0.5011757734957802 -1 0 0
2372 12 65.27336252603219 22.979020381291306 -0.501175773497015 -1 0 0
2368 14 66.86539575837516 25.736502827046795 -0.5011757734961324 -1 0 0
2374 10 68.45742899071661 22.979020381292326 -0.5011757734948266 -1 0 0
2396 12 71.64149545540111 22.979020381291335 -0.5011757734970288 -1 0 0
2385 16 70.0494622230581 25.736502827046838 -0.5011757734957621 -1 0 0
2398 10 74.8255619200856 22.97902038129235 -0.5011757734947976 -1 0 0
2392 14 73.23352868774421 25.73650282704681 -0.5011757734961464 -1 0 0
2409 16 76.41759515242703 25.7365028270469 -0.5011757734957903 -1 0 0
2420 12 78.00962838477005 22.979020381291324 -0.5011757734969652 -1 0 0
2416 14 79.60166161711318 25.73650282704682 -0.5011757734960778 -1 0 0
2422 10 81.19369484945466 22.979020381292354 -0.5011757734948566 -1 0 0
2444 12 84.37776131413918 22.97902038129134 -0.5011757734969207 -1 0 0
2433 16 82.78572808179617 25.736502827046866 -0.5011757734956879 -1 0 0
2446 10 87.56182777882366 22.979020381292415 -0.5011757734949299 -1 0 0
2440 14 85.96979454648226 25.7365028270468 -0.5011757734961423 -1 0 0
2457 16 89.15386101116499 25.736502827046863 -0.5011757734957821 -1 0 0
2468 12 90.7458942435082 22.979020381291317 -0.5011757734971286 -1 0 0
2464 14 92.33792747585123 25.736502827046806 -0.5011757734961533 -1 0 0
2470 10 93.9299607081926 22.979020381292386 -0.5011757734948276 -1 0 0
2492 12 97.11402717287726 22.979020381291278 -0.5011757734969318 -1 0 0
2481 16 95.5219939405341 25.736502827046877 -0.5011757734957049 -1 0 0
2505 16 101.89012686990306 25.736502827046827 -0.50117577349584 -1 0 0
2494 10 100.29809363756159 22.97902038129235 -0.5011757734949249 -1 0 0
2488 14 98.70606040522027 25.73650282704683 -0.5011757734962071 -1 0 0
2901 10 1.5920332323420465 28.493985272802433 -0.5011757734948711 0 0 0
2899 12 4.776099697026576 28.4939852728013 -0.5011757734970685 0 0 0
2925 10 7.960166161711002 28.493985272802373 -0.5011757734948663 0 0 0
2923 12 11.144232626395587 28.49398527280132 -0.501175773497008 0 0 0
2949 10 14.328299091080027 28.493985272802384 -0.5011757734948634 0 0 0
2947 12 17.51236555576457 28.49398527280128 -0.5011757734970584 0 0 0
2973 10 20.69643202044901 28.493985272802377 -0.501175773494864 0 0 0
2971 12 23.880498485133543 28.493985272801318 -0.5011757734970628 0 0 0
2997 10 27.06456494981803 28.49398527280239 -0.5011757734948612 0 0 0
2995 12 30.24863141450256 28.493985272801318 -0.5011757734970284 0 0 0
3021 10 33.43269787918704 28.493985272802387 -0.501175773494881 0 0 0
3019 12 36.61676434387156 28.493985272801275 -0.501175773497031 0 0 0
3045 10 39.80083080855606 28.493985272802387 -0.5011757734949064 0 0 0
3043 12 42.98489727324054 28.493985272801304 -0.5011757734970188 0 0 0
3069 10 46.168963737925026 28.4939852728024 -0.501175773494929 0 0 0
3067 12 49.35303020260956 28.493985272801346 -0.5011757734970131 0 0 0
2709 10 52.53709666729398 28.49398527280237 -0.5011757734949073 -1 0 0
2707 12 55.72116313197859 28.493985272801297 -0.5011757734970013 -1 0 0
2733 10 58.90522959666296 28.4939852728024 -0.5011757734948596 -1 0 0
2731 12 62.08929606134759 28.493985272801286 -0.501175773497095 -1 0 0
2757 10 65.27336252603197 28.493985272802405 -0.5011757734948573 -1 0 0
2755 12 68.45742899071658 28.493985272801375 -0.5011757734970975 -1 0 0
2781 10 71.64149545540104 28.493985272802384 -0.5011757734949157 -1 0 0
2779 12 74.82556192008556 28.49398527280134 -0.501175773497047 -1 0 0
2805 10 78.00962838476997 28.493985272802377 -0.5011757734949163 -1 0 0
2803 12 81.19369484945457 28.49398527280133 -0.5011757734969452 -1 0 0
2829 10 84.37776131413901 28.493985272802444 -0.5011757734948514 -1 0 0
2827 12 87.56182777882354 28.49398527280124 -0.5011757734971838 -1 0 0
2853 10 90.745894243508 28.493985272802437 -0.5011757734947849 -1 0 0
2851 12 93.92996070819258 28.49398527280134 -0.5011757734969633 -1 0 0
2877 10 97.11402717287706 28.493985272802394 -0.5011757734948905 -1 0 0
2875 12 100.29809363756156 28.493985272801304 -0.501175773497051 -1 0 0
2895 14 7.958078640513122e-13 31.251467718556803 -0.5011757734960943 0 0 0
2886 16 3.1840664646835406 31.251467718556825 -0.5011757734956757 0 0 0
2900 12 1.5920332323421098 34.00895016431135 -0.5011757734970141 0 0 0
2919 14 6.368132929369781 31.251467718556817 -0.5011757734961413 0 0 0
2902 10 4.776099697026624 34.00895016431239 -0.5011757734948971 0 0 0
2924 12 7.9601661617111565 34.00895016431135 -0.5011757734970406 0 0 0
2910 16 9.552199394052606 31.25146771855687 -0.5011757734957303 0 0 0
2926 10 11.144232626395599 34.008950164312424 -0.5011757734949218 0 0 0
2943 14 12.736265858738772 31.25146771855681 -0.5011757734960814 0 0 0
2934 16 15.920332323421563 31.251467718556874 -0.5011757734957423 0 0 0
2948 12 14.32829909108017 34.008950164311344 -0.5011757734970901 0 0 0
2967 14 19.104398788107805 31.25146771855683 -0.5011757734961322 0 0 0
2950 10 17.512365555764603 34.008950164312424 -0.501175773494845 0 0 0
2972 12 20.696432020449162 34.00895016431132 -0.5011757734970214 0 0 0
2958 16 22.288465252790576 31.251467718556857 -0.5011757734957513 0 0 0
2974 10 23.880498485133607 34.00895016431238 -0.5011757734948966 0 0 0
2991 14 25.47253171747679 31.251467718556803 -0.5011757734961311 0 0 0
2982 16 28.656598182159577 31.251467718556853 -0.5011757734957375 0 0 0
2996 12 27.06456494981818 34.00895016431131 -0.5011757734971056 0 0 0
3015 14 31.840664646845802 31.251467718556814 -0.5011757734961045 0 0 0
2998 10 30.24863141450261 34.0089501643124 -0.5011757734948296 0 0 0
3020 12 33.43269787918713 34.008950164311315 -0.50117577349707 0 0 0
3006 16 35.02473111152858 31.251467718556846 -0.5011757734957679 0 0 0
3022 10 36.61676434387162 34.008950164312374 -0.5011757734948132 0 0 0
3039 14 38.208797576214806 31.251467718556817 -0.501175773496079 0 0 0
3030 16 41.39286404089754 31.251467718556817 -0.5011757734958191 0 0 0
3044 12 39.80083080855613 34.00895016431128 -0.5011757734970699 0 0 0
3063 14 44.5769305055838 31.2514677185568 -0.5011757734961099 0 0 0
3046 10 42.984897273240605 34.008950164312395 -0.501175773494766 0 0 0
3068 12 46.168963737925125 34.00895016431131 -0.5011757734970039 0 0 0
3054 16 47.76099697026659 31.251467718556814 -0.501175773495808 0 0 0
3070 10 49.353030202609595 34.00895016431235 -0.5011757734949117 0 0 0
2703 14 50.94506343495271 31.251467718556796 -0.5011757734961402 -1 0 0
2694 16 54.12912989963558 31.25146771855686 -0.5011757734957394 -1 0 0
2708 12 52.537096667294165 34.008950164311315 -0.5011757734969917 -1 0 0
2727 14 57.31319636432179 31.251467718556757 -0.501175773496155 -1 0 0
2710 10 55.721163131978585 34.0089501643124 -0.5011757734948334 -1 0 0
2732 12 58.90522959666319 34.0089501643113 -0.5011757734970431 -1 0 0
2718 16 60.497262829004576 31.25146771855686 -0.5011757734956773 -1 0 0
2734 10 62.08929606134751 34.00895016431241 -0.5011757734948897 -1 0 0
2751 14 63.681329293690816 31.251467718556718 -0.5011757734961854 -1 0 0
2742 16 66.86539575837361 31.25146771855687 -0.501175773495655 -1 0 0
2756 12 65.27336252603227 34.008950164311294 -0.5011757734970854 -1 0 0
2775 14 70.04946222305978 31.25146771855682 -0.5011757734960767 -1 0 0
2758 10 68.45742899071661 34.00895016431236 -0.5011757734948369 -1 0 0
2780 12 71.6414954554012 34.00895016431137 -0.5011757734970232 -1 0 0
2766 16 73.23352868774265 31.251467718556874 -0.5011757734958628 -1 0 0
2782 10 74.8255619200856 34.008950164312374 -0.5011757734949843 -1 0 0
2799 14 76.41759515242869 31.251467718556814 -0.5011757734961214 -1 0 0
2790 16 79.60166161711149 31.25146771855682 -0.5011757734957766 -1 0 0
2804 12 78.00962838477008 34.008950164311344 -0.5011757734969878 -1 0 0
2823 14 82.78572808179781 31.251467718556757 -0.5011757734960015 -1 0 0
2806 10 81.1936948494546 34.00895016431241 -0.5011757734949314 -1 0 0
2828 12 84.37776131413918 34.00895016431137 -0.5011757734970774 -1 0 0
2814 16 85.96979454648051 31.251467718556864 -0.5011757734957607 -1 0 0
2830 10 87.56182777882358 34.00895016431244 -0.5011757734948227 -1 0 0
2847 14 89.15386101116688 31.251467718556867 -0.501175773496158 -1 0 0
2838 16 92.33792747584951 31.2514677185568 -0.5011757734957105 -1 0 0
2852 12 90.74589424350808 34.00895016431132 -0.501175773497088 -1 0 0
2871 14 95.52199394053578 31.25146771855676 -0.5011757734961115 -1 0 0
2854 10 93.92996070819261 34.00895016431239 -0.5011757734949389 -1 0 0
2876 12 97.1140271728773 34.00895016431134 -0.5011757734969237 -1 0 0
2862 16 98.70606040521857 31.25146771855688 -0.5011757734958666 -1 0 0
2878 10 100.29809363756155 34.008950164312374 -0.5011757734949839 -1 0 0