LAMMPS data file via write_data, version 2 Aug 2023, timestep = 30, units = metal

13824 atoms
48 atom types

0 101.890126869904 xlo xhi
0 99.26936804718 ylo yhi
-50 50 zlo zhi

Masses

1 95.95
2 95.95
3 95.95
4 95.95
5 95.95
6 95.95
7 95.95
8 95.95
9 95.95
10 95.95
11 95.95
12 95.95
13 95.95
14 95.95
15 95.95
16 95.95
17 32.06
18 32.06
19 32.06
20 32.06
21 32.06
22 32.06
23 32.06
24 32.06
25 32.06
26 32.06
27 32.06
28 32.06
29 32.06
30 32.06
31 32.06
32 32.06
33 32.06
34 32.06
35 32.06
36 32.06
37 32.06
38 32.06
39 32.06
40 32.06
41 32.06
42 32.06
43 32.06
44 32.06
45 32.06
46 32.06
47 32.06
48 32.06

Atoms # atomic

1748 20 1.5920332323420472 0.9191608152517645 -1.3159505202830508 0 0 0
1734 22 3.184066464684604 3.676643261006932 -1.3159505202831756 0 0 0
1750 18 4.776099697026714 0.9191608152520413 -1.3159505202831552 0 0 0
1772 20 7.960166161711057 0.9191608152517519 -1.3159505202830448 0 0 0
1766 24 6.368132929368649 3.676643261006852 -1.3159505202829993 0 0 0
1774 18 11.144232626395707 0.9191608152520229 -1.315950520283136 0 0 0
1758 22 9.5521993940536 3.676643261006958 -1.3159505202831905 0 0 0
1790 24 12.73626585873766 3.676643261006851 -1.315950520283022 0 0 0
1796 20 14.328299091080051 0.9191608152517445 -1.3159505202830288 0 0 0
1782 22 15.9203323234226 3.676643261006969 -1.3159505202831852 0 0 0
1798 18 17.512365555764703 0.9191608152520244 -1.3159505202831379 0 0 0
1820 20 20.696432020449063 0.9191608152517563 -1.315950520283045 0 0 0
1814 24 19.10439878810665 3.676643261006856 -1.3159505202830195 0 0 0
1822 18 23.880498485133703 0.9191608152520637 -1.3159505202831414 0 0 0
1806 22 22.288465252791617 3.6766432610069453 -1.3159505202831823 0 0 0
1838 24 25.472531717475654 3.676643261006839 -1.3159505202830084 0 0 0
1844 20 27.06456494981807 0.9191608152517591 -1.3159505202830553 0 0 0
1830 22 28.656598182160625 3.676643261006949 -1.315950520283187 0 0 0
1846 18 30.248631414502686 0.9191608152520357 -1.3159505202831296 0 0 0
1868 20 33.432697879187025 0.9191608152517562 -1.3159505202830488 0 0 0
1862 24 31.840664646844644 3.6766432610068565 -1.3159505202830177 0 0 0
1870 18 36.61676434387167 0.9191608152520427 -1.3159505202831543 0 0 0
1854 22 35.0247311115296 3.676643261006952 -1.3159505202831787 0 0 0
1886 24 38.20879757621364 3.6766432610068613 -1.3159505202830095 0 0 0
1892 20 39.80083080855603 0.9191608152517438 -1.3159505202830468 0 0 0
1878 22 41.392864040898644 3.6766432610069546 -1.3159505202831712 0 0 0
1894 18 42.98489727324068 0.9191608152520504 -1.315950520283137 0 0 0
1916 20 46.16896373792508 0.9191608152517732 -1.315950520283054 0 0 0
1910 24 44.576930505582645 3.6766432610068347 -1.3159505202830069 0 0 0
1918 18 49.35303020260971 0.9191608152520424 -1.3159505202831367 0 0 0
1902 22 47.76099697026762 3.676643261006955 -1.3159505202831836 0 0 0
1550 24 50.945063434951656 3.6766432610068542 -1.3159505202830013 -1 0 0
1556 20 52.53709666729409 0.9191608152517752 -1.315950520283043 -1 0 0
1542 22 54.12912989963662 3.6766432610069426 -1.3159505202831896 -1 0 0
1558 18 55.721163131978685 0.9191608152520359 -1.3159505202831439 -1 0 0
1580 20 58.90522959666304 0.9191608152517766 -1.3159505202830584 -1 0 0
1574 24 57.31319636432063 3.6766432610068662 -1.3159505202830115 -1 0 0
1582 18 62.0892960613477 0.9191608152520718 -1.3159505202831485 -1 0 0
1566 22 60.4972628290056 3.6766432610069444 -1.3159505202831796 -1 0 0
1598 24 63.68132929368966 3.6766432610068387 -1.3159505202829955 -1 0 0
1604 20 65.27336252603205 0.9191608152517409 -1.3159505202830504 -1 0 0
1590 22 66.86539575837459 3.6766432610069457 -1.3159505202831805 -1 0 0
1606 18 68.45742899071669 0.9191608152520535 -1.315950520283139 -1 0 0
1628 20 71.64149545540106 0.9191608152517522 -1.3159505202830415 -1 0 0
1622 24 70.04946222305867 3.6766432610068294 -1.3159505202830049 -1 0 0
1630 18 74.82556192008572 0.9191608152520753 -1.3159505202831456 -1 0 0
1614 22 73.2335286877436 3.676643261006964 -1.3159505202831943 -1 0 0
1646 24 76.41759515242767 3.6766432610068542 -1.3159505202830053 -1 0 0
1652 20 78.00962838477002 0.9191608152517846 -1.3159505202830368 -1 0 0
1638 22 79.60166161711261 3.6766432610069604 -1.3159505202831696 -1 0 0
1654 18 81.19369484945467 0.9191608152520067 -1.315950520283141 -1 0 0
1676 20 84.3777613141391 0.9191608152517415 -1.3159505202830473 -1 0 0
1670 24 82.78572808179665 3.676643261006827 -1.315950520283019 -1 0 0
1678 18 87.5618277788237 0.9191608152520296 -1.3159505202831359 -1 0 0
1662 22 85.96979454648161 3.676643261006956 -1.3159505202831985 -1 0 0
1694 24 89.15386101116565 3.6766432610068316 -1.3159505202830042 -1 0 0
1700 20 90.74589424350802 0.919160815251759 -1.3159505202830546 -1 0 0
1686 22 92.3379274758506 3.676643261006955 -1.3159505202831794 -1 0 0
1702 18 93.9299607081927 0.91916081525202 -1.315950520283129 -1 0 0
1724 20 97.11402717287704 0.9191608152517565 -1.3159505202830426 -1 0 0
1718 24 95.52199394053466 3.6766432610068533 -1.3159505202829929 -1 0 0
1742 24 101.89012686990367 3.6766432610068365 -1.3159505202830049 -1 0 0
1726 18 100.29809363756169 0.9191608152520362 -1.3159505202831392 -1 0 0
1710 22 98.70606040521959 3.676643261006952 -1.3159505202832027 -1 0 0
2133 18 1.592033232342205 6.434125706762044 -1.3159505202831392 0 0 0
2131 20 4.77609969702653 6.434125706761754 -1.315950520283049 0 0 0
2157 18 7.960166161711193 6.43412570676204 -1.3159505202831352 0 0 0
2155 20 11.144232626395521 6.434125706761765 -1.3159505202830406 0 0 0
2181 18 14.328299091080208 6.434125706762043 -1.3159505202831379 0 0 0
2179 20 17.51236555576453 6.434125706761756 -1.315950520283041 0 0 0
2205 18 20.696432020449198 6.434125706762043 -1.3159505202831436 0 0 0
2203 20 23.88049848513353 6.434125706761752 -1.315950520283046 0 0 0
2229 18 27.064564949818195 6.434125706762043 -1.3159505202831303 0 0 0
2227 20 30.248631414502523 6.434125706761758 -1.3159505202830493 0 0 0
2253 18 33.43269787918719 6.434125706762052 -1.3159505202831348 0 0 0
2251 20 36.61676434387151 6.43412570676175 -1.3159505202830415 0 0 0
2277 18 39.80083080855621 6.434125706762039 -1.3159505202831434 0 0 0
2275 20 42.98489727324052 6.434125706761767 -1.315950520283037 0 0 0
2301 18 46.168963737925196 6.434125706762014 -1.3159505202831396 0 0 0
2299 20 49.35303020260953 6.4341257067617565 -1.315950520283045 0 0 0
1941 18 52.5370966672942 6.4341257067620345 -1.315950520283143 -1 0 0
1939 20 55.72116313197856 6.434125706761764 -1.3159505202830457 -1 0 0
1965 18 58.90522959666317 6.434125706762046 -1.315950520283142 -1 0 0
1963 20 62.08929606134755 6.434125706761739 -1.3159505202830353 -1 0 0
1989 18 65.27336252603226 6.43412570676204 -1.3159505202831512 -1 0 0
1987 20 68.45742899071651 6.434125706761762 -1.315950520283034 -1 0 0
2013 18 71.64149545540121 6.43412570676204 -1.3159505202831336 -1 0 0
2011 20 74.82556192008552 6.434125706761733 -1.3159505202830373 -1 0 0
2037 18 78.00962838477022 6.4341257067620425 -1.3159505202831414 -1 0 0
2035 20 81.19369484945459 6.434125706761755 -1.315950520283046 -1 0 0
2061 18 84.3777613141392 6.4341257067620505 -1.3159505202831434 -1 0 0
2059 20 87.56182777882353 6.43412570676175 -1.3159505202830517 -1 0 0
2085 18 90.74589424350822 6.434125706762035 -1.3159505202831312 -1 0 0
2083 20 93.92996070819255 6.434125706761779 -1.3159505202830548 -1 0 0
2109 18 97.11402717287724 6.434125706762039 -1.315950520283138 -1 0 0
2107 20 100.29809363756154 6.434125706761748 -1.315950520283039 -1 0 0
2117 22 1.1706157402847264e-13 9.19160815251696 -1.3159505202831647 0 0 0
2125 24 3.184066464684152 9.191608152516837 -1.3159505202830077 0 0 0
2132 20 1.5920332323420456 11.949090598271754 -1.3159505202830457 0 0 0
2141 22 6.368132929369118 9.191608152516944 -1.315950520283185 0 0 0
2134 18 4.776099697026719 11.949090598272033 -1.3159505202831432 0 0 0
2156 20 7.960166161711046 11.94909059827176 -1.315950520283046 0 0 0
2149 24 9.552199394053153 9.19160815251685 -1.3159505202830057 0 0 0
2158 18 11.14423262639571 11.949090598272033 -1.3159505202831443 0 0 0
2165 22 12.736265858738108 9.19160815251694 -1.3159505202831827 0 0 0
2173 24 15.92033232342214 9.191608152516839 -1.315950520283011 0 0 0
2180 20 14.32829909108005 11.94909059827176 -1.315950520283042 0 0 0
2189 22 19.10439878810712 9.191608152516945 -1.3159505202831754 0 0 0
2182 18 17.512365555764724 11.949090598272036 -1.3159505202831439 0 0 0
2204 20 20.696432020449034 11.949090598271757 -1.3159505202830466 0 0 0
2197 24 22.288465252791145 9.191608152516842 -1.315950520283009 0 0 0
2206 18 23.88049848513372 11.949090598272036 -1.315950520283143 0 0 0
2213 22 25.472531717476095 9.191608152516949 -1.3159505202831774 0 0 0
2221 24 28.65659818216015 9.19160815251684 -1.315950520283011 0 0 0
2228 20 27.064564949818042 11.94909059827175 -1.3159505202830477 0 0 0
2237 22 31.840664646845113 9.191608152516936 -1.3159505202831785 0 0 0
2230 18 30.248631414502704 11.949090598272043 -1.3159505202831443 0 0 0
2252 20 33.432697879187046 11.949090598271756 -1.3159505202830495 0 0 0
2245 24 35.02473111152915 9.191608152516848 -1.3159505202830066 0 0 0
2254 18 36.6167643438717 11.949090598272052 -1.315950520283143 0 0 0
2261 22 38.20879757621412 9.19160815251694 -1.3159505202831834 0 0 0
2269 24 41.39286404089815 9.191608152516828 -1.3159505202830037 0 0 0
2276 20 39.80083080855605 11.94909059827175 -1.315950520283042 0 0 0
2285 22 44.576930505583135 9.191608152516944 -1.3159505202831754 0 0 0
2278 18 42.984897273240726 11.949090598272031 -1.315950520283148 0 0 0
2300 20 46.16896373792504 11.949090598271766 -1.3159505202830317 0 0 0
2293 24 47.76099697026717 9.19160815251684 -1.3159505202830186 0 0 0
2302 18 49.353030202609716 11.949090598272031 -1.3159505202831396 0 0 0
1925 22 50.94506343495212 9.191608152516956 -1.3159505202831792 -1 0 0
1933 24 54.12912989963612 9.191608152516828 -1.315950520283007 -1 0 0
1940 20 52.537096667294065 11.949090598271752 -1.3159505202830526 -1 0 0
1949 22 57.313196364321115 9.191608152516926 -1.3159505202831878 -1 0 0
1942 18 55.72116313197871 11.949090598272031 -1.3159505202831383 -1 0 0
1964 20 58.90522959666304 11.949090598271752 -1.3159505202830457 -1 0 0
1957 24 60.497262829005166 9.191608152516833 -1.3159505202829895 -1 0 0
1966 18 62.08929606134771 11.94909059827205 -1.3159505202831336 -1 0 0
1973 22 63.68132929369015 9.191608152516967 -1.3159505202831636 -1 0 0
1981 24 66.86539575837419 9.191608152516864 -1.315950520283028 -1 0 0
1988 20 65.27336252603202 11.949090598271749 -1.3159505202830328 -1 0 0
1997 22 70.04946222305917 9.19160815251694 -1.3159505202831752 -1 0 0
1990 18 68.45742899071669 11.949090598272004 -1.3159505202831405 -1 0 0
2012 20 71.64149545540108 11.949090598271784 -1.3159505202830466 -1 0 0
2005 24 73.23352868774322 9.191608152516832 -1.3159505202830115 -1 0 0
2014 18 74.8255619200857 11.949090598272033 -1.3159505202831518 -1 0 0
2021 22 76.41759515242812 9.191608152516944 -1.3159505202831787 -1 0 0
2029 24 79.60166161711217 9.191608152516809 -1.31595052028302 -1 0 0
2036 20 78.00962838477001 11.949090598271757 -1.3159505202830482 -1 0 0
2045 22 82.78572808179715 9.19160815251697 -1.3159505202831614 -1 0 0
2038 18 81.19369484945473 11.949090598272033 -1.3159505202831308 -1 0 0
2060 20 84.37776131413904 11.949090598271752 -1.3159505202830457 -1 0 0
2053 24 85.9697945464812 9.191608152516846 -1.3159505202830133 -1 0 0
2062 18 87.56182777882371 11.949090598272035 -1.3159505202831527 -1 0 0
2069 22 89.15386101116611 9.191608152516967 -1.3159505202831834 -1 0 0
2077 24 92.33792747585015 9.191608152516826 -1.3159505202830148 -1 0 0
2084 20 90.74589424350805 11.949090598271777 -1.315950520283042 -1 0 0
2093 22 95.52199394053511 9.191608152516949 -1.3159505202831705 -1 0 0
2086 18 93.92996070819271 11.949090598272011 -1.315950520283168 -1 0 0
2108 20 97.11402717287702 11.94909059827178 -1.3159505202830266 -1 0 0
2101 24 98.70606040521918 9.191608152516814 -1.3159505202830133 -1 0 0
2110 18 100.2980936375617 11.949090598272033 -1.3159505202831498 -1 0 0
2118 22 3.1840664646846086 14.706573044026943 -1.3159505202831716 0 0 0
2150 24 6.3681329293686595 14.706573044026843 -1.315950520283006 0 0 0
2142 22 9.552199394053602 14.706573044026939 -1.3159505202831796 0 0 0
2174 24 12.736265858737662 14.70657304402686 -1.3159505202830017 0 0 0
2166 22 15.920332323422599 14.706573044026955 -1.3159505202831694 0 0 0
2198 24 19.104398788106646 14.70657304402685 -1.3159505202830102 0 0 0
2190 22 22.288465252791607 14.706573044026957 -1.3159505202831696 0 0 0
2222 24 25.472531717475643 14.70657304402685 -1.3159505202830042 0 0 0
2214 22 28.656598182160607 14.706573044026952 -1.3159505202831787 0 0 0
2246 24 31.840664646844633 14.706573044026861 -1.3159505202830024 0 0 0
2238 22 35.02473111152959 14.706573044026944 -1.3159505202831787 0 0 0
2270 24 38.20879757621363 14.706573044026843 -1.3159505202830037 0 0 0
2262 22 41.392864040898594 14.706573044026936 -1.3159505202831743 0 0 0
2294 24 44.57693050558263 14.70657304402685 -1.3159505202829949 0 0 0
2286 22 47.76099697026762 14.706573044026946 -1.3159505202831674 0 0 0
1934 24 50.94506343495167 14.70657304402684 -1.3159505202830157 -1 0 0
1926 22 54.129129899636595 14.706573044026937 -1.3159505202831794 -1 0 0
1958 24 57.31319636432067 14.706573044026849 -1.3159505202829955 -1 0 0
1950 22 60.497262829005614 14.706573044026957 -1.315950520283186 -1 0 0
1982 24 63.681329293689636 14.706573044026852 -1.3159505202830128 -1 0 0
1974 22 66.86539575837463 14.706573044026934 -1.3159505202831725 -1 0 0
2006 24 70.04946222305871 14.706573044026854 -1.3159505202830115 -1 0 0
1998 22 73.23352868774361 14.706573044026952 -1.3159505202831725 -1 0 0
2030 24 76.41759515242767 14.706573044026863 -1.3159505202830086 -1 0 0
2022 22 79.60166161711264 14.706573044026936 -1.315950520283162 -1 0 0
2054 24 82.78572808179666 14.706573044026847 -1.3159505202830182 -1 0 0
2046 22 85.96979454648161 14.706573044026934 -1.3159505202831983 -1 0 0
2078 24 89.1538610111657 14.706573044026849 -1.3159505202829895 -1 0 0
2070 22 92.33792747585062 14.706573044026948 -1.315950520283196 -1 0 0
2102 24 95.52199394053464 14.706573044026849 -1.3159505202829893 -1 0 0
2126 24 101.89012686990365 14.706573044026825 -1.3159505202830162 -1 0 0
2094 22 98.70606040521957 14.706573044026944 -1.3159505202831676 -1 0 0
2517 18 1.5920332323422162 17.464055489782034 -1.3159505202831423 0 0 0
2501 22 1.0477092873983662e-13 20.221537935536926 -1.3159505202831585 0 0 0
2509 24 3.1840664646841534 20.221537935536844 -1.3159505202830144 0 0 0
2515 20 4.776099697026528 17.464055489781767 -1.3159505202830477 0 0 0
2541 18 7.960166161711193 17.464055489782027 -1.3159505202831367 0 0 0
2525 22 6.368132929369113 20.22153793553695 -1.3159505202831794 0 0 0
2539 20 11.144232626395532 17.464055489781757 -1.3159505202830462 0 0 0
2533 24 9.552199394053156 20.221537935536844 -1.3159505202830082 0 0 0
2565 18 14.328299091080199 17.46405548978204 -1.3159505202831427 0 0 0
2549 22 12.736265858738106 20.221537935536965 -1.3159505202831814 0 0 0
2557 24 15.920332323422153 20.22153793553685 -1.3159505202830097 0 0 0
2563 20 17.51236555576453 17.46405548978176 -1.3159505202830504 0 0 0
2589 18 20.696432020449205 17.464055489782034 -1.3159505202831463 0 0 0
2573 22 19.10439878810711 20.221537935536936 -1.315950520283177 0 0 0
2587 20 23.88049848513355 17.464055489781742 -1.3159505202830493 0 0 0
2581 24 22.288465252791145 20.22153793553686 -1.3159505202830153 0 0 0
2613 18 27.064564949818195 17.46405548978204 -1.3159505202831399 0 0 0
2597 22 25.472531717476087 20.221537935536958 -1.3159505202831805 0 0 0
2605 24 28.65659818216017 20.221537935536873 -1.3159505202830095 0 0 0
2611 20 30.24863141450252 17.46405548978175 -1.3159505202830453 0 0 0
2637 18 33.43269787918718 17.46405548978205 -1.3159505202831396 0 0 0
2621 22 31.840664646845116 20.221537935536954 -1.3159505202831816 0 0 0
2635 20 36.61676434387149 17.464055489781753 -1.315950520283054 0 0 0
2629 24 35.02473111152914 20.221537935536855 -1.3159505202830089 0 0 0
2661 18 39.80083080855617 17.46405548978203 -1.3159505202831334 0 0 0
2645 22 38.20879757621413 20.221537935536936 -1.315950520283183 0 0 0
2653 24 41.39286404089814 20.22153793553687 -1.3159505202829886 0 0 0
2659 20 42.98489727324054 17.46405548978176 -1.3159505202830437 0 0 0
2685 18 46.16896373792519 17.464055489782044 -1.3159505202831414 0 0 0
2669 22 44.576930505583135 20.221537935536936 -1.3159505202831827 0 0 0
2683 20 49.35303020260951 17.46405548978173 -1.3159505202830426 0 0 0
2677 24 47.760996970267165 20.22153793553685 -1.3159505202830069 0 0 0
2325 18 52.53709666729421 17.464055489782055 -1.315950520283144 -1 0 0
2309 22 50.94506343495211 20.22153793553697 -1.315950520283185 -1 0 0
2317 24 54.12912989963616 20.221537935536844 -1.3159505202830095 -1 0 0
2323 20 55.721163131978514 17.464055489781757 -1.3159505202830364 -1 0 0
2349 18 58.90522959666318 17.464055489782037 -1.3159505202831427 -1 0 0
2333 22 57.313196364321136 20.221537935536947 -1.3159505202831858 -1 0 0
2347 20 62.08929606134755 17.464055489781735 -1.3159505202830426 -1 0 0
2341 24 60.49726282900518 20.221537935536833 -1.3159505202830046 -1 0 0
2373 18 65.27336252603223 17.464055489782034 -1.3159505202831456 -1 0 0
2357 22 63.68132929369011 20.22153793553695 -1.3159505202831756 -1 0 0
2365 24 66.86539575837413 20.22153793553684 -1.315950520283016 -1 0 0
2371 20 68.45742899071655 17.464055489781764 -1.3159505202830466 -1 0 0
2397 18 71.64149545540123 17.464055489782027 -1.31595052028312 -1 0 0
2381 22 70.04946222305917 20.221537935536965 -1.3159505202831767 -1 0 0
2395 20 74.82556192008559 17.464055489781757 -1.3159505202830462 -1 0 0
2389 24 73.23352868774315 20.221537935536826 -1.3159505202830077 -1 0 0
2421 18 78.00962838477021 17.464055489782034 -1.31595052028316 -1 0 0
2405 22 76.41759515242815 20.221537935536944 -1.3159505202831965 -1 0 0
2413 24 79.60166161711214 20.221537935536865 -1.315950520283008 -1 0 0
2419 20 81.19369484945454 17.464055489781746 -1.3159505202830286 -1 0 0
2445 18 84.37776131413926 17.46405548978203 -1.3159505202831452 -1 0 0
2429 22 82.78572808179715 20.22153793553698 -1.3159505202831674 -1 0 0
2443 20 87.56182777882351 17.464055489781764 -1.3159505202830628 -1 0 0
2437 24 85.96979454648113 20.221537935536837 -1.3159505202830084 -1 0 0
2469 18 90.74589424350818 17.464055489782027 -1.3159505202831423 -1 0 0
2453 22 89.15386101116607 20.22153793553694 -1.3159505202832014 -1 0 0
2461 24 92.33792747585014 20.22153793553685 -1.315950520283004 -1 0 0
2467 20 93.92996070819254 17.464055489781778 -1.3159505202830308 -1 0 0
2493 18 97.11402717287723 17.464055489782048 -1.3159505202831434 -1 0 0
2477 22 95.5219939405351 20.221537935536972 -1.3159505202831598 -1 0 0
2491 20 100.29809363756154 17.464055489781753 -1.3159505202830488 -1 0 0
2485 24 98.70606040521915 20.221537935536826 -1.3159505202830228 -1 0 0
2516 20 1.592033232342049 22.979020381291758 -1.3159505202830397 0 0 0
2502 22 3.1840664646846073 25.73650282704694 -1.3159505202831818 0 0 0
2518 18 4.7760996970267335 22.979020381292038 -1.3159505202831516 0 0 0
2540 20 7.960166161711037 22.97902038129176 -1.3159505202830364 0 0 0
2534 24 6.368132929368661 25.736502827046834 -1.315950520283013 0 0 0
2542 18 11.144232626395702 22.979020381292028 -1.3159505202831379 0 0 0
2526 22 9.552199394053604 25.736502827046955 -1.3159505202831794 0 0 0
2558 24 12.736265858737653 25.73650282704685 -1.315950520283013 0 0 0
2564 20 14.328299091080046 22.979020381291754 -1.31595052028304 0 0 0
2550 22 15.920332323422606 25.736502827046955 -1.3159505202831856 0 0 0
2566 18 17.512365555764728 22.97902038129203 -1.3159505202831334 0 0 0
2588 20 20.696432020449027 22.979020381291754 -1.315950520283045 0 0 0
2582 24 19.104398788106653 25.73650282704685 -1.315950520283009 0 0 0
2590 18 23.880498485133725 22.979020381292038 -1.3159505202831367 0 0 0
2574 22 22.288465252791603 25.736502827046948 -1.315950520283185 0 0 0
2606 24 25.47253171747566 25.73650282704684 -1.3159505202830137 0 0 0
2612 20 27.06456494981804 22.979020381291765 -1.3159505202830404 0 0 0
2598 22 28.65659818216061 25.736502827046955 -1.3159505202831854 0 0 0
2614 18 30.2486314145027 22.979020381292035 -1.3159505202831465 0 0 0
2636 20 33.43269787918704 22.97902038129176 -1.3159505202830457 0 0 0
2630 24 31.840664646844647 25.736502827046852 -1.315950520283015 0 0 0
2638 18 36.6167643438717 22.97902038129204 -1.31595052028314 0 0 0
2622 22 35.02473111152959 25.736502827046934 -1.3159505202831785 0 0 0
2654 24 38.20879757621362 25.73650282704684 -1.3159505202830037 0 0 0
2660 20 39.80083080855602 22.97902038129176 -1.3159505202830324 0 0 0
2646 22 41.392864040898615 25.73650282704697 -1.3159505202831803 0 0 0
2662 18 42.98489727324071 22.97902038129204 -1.3159505202831483 0 0 0
2684 20 46.16896373792503 22.979020381291736 -1.315950520283041 0 0 0
2678 24 44.57693050558268 25.73650282704684 -1.315950520283008 0 0 0
2686 18 49.353030202609695 22.979020381292045 -1.3159505202831336 0 0 0
2670 22 47.76099697026763 25.73650282704694 -1.3159505202831756 0 0 0
2318 24 50.94506343495167 25.73650282704683 -1.3159505202830168 -1 0 0
2324 20 52.53709666729404 22.979020381291754 -1.3159505202830561 -1 0 0
2310 22 54.129129899636624 25.73650282704697 -1.315950520283167 -1 0 0
2326 18 55.72116313197872 22.979020381292017 -1.3159505202831334 -1 0 0
2348 20 58.90522959666301 22.979020381291726 -1.3159505202830482 -1 0 0
2342 24 57.31319636432064 25.73650282704683 -1.315950520283016 -1 0 0
2350 18 62.08929606134771 22.97902038129206 -1.3159505202831348 -1 0 0
2334 22 60.49726282900561 25.73650282704695 -1.3159505202831765 -1 0 0
2366 24 63.681329293689636 25.736502827046852 -1.3159505202829966 -1 0 0
2372 20 65.27336252603205 22.979020381291743 -1.3159505202830442 -1 0 0
2358 22 66.86539575837459 25.73650282704694 -1.3159505202831787 -1 0 0
2374 18 68.45742899071666 22.979020381292024 -1.3159505202831274 -1 0 0
2396 20 71.64149545540103 22.979020381291765 -1.31595052028307 -1 0 0
2390 24 70.04946222305865 25.73650282704686 -1.3159505202830188 -1 0 0
2398 18 74.82556192008572 22.979020381292045 -1.3159505202831294 -1 0 0
2382 22 73.23352868774361 25.73650282704692 -1.3159505202831812 -1 0 0
2414 24 76.41759515242767 25.73650282704687 -1.315950520282982 -1 0 0
2420 20 78.00962838477001 22.979020381291768 -1.315950520283035 -1 0 0
2406 22 79.6016616171126 25.736502827046962 -1.3159505202831898 -1 0 0
2422 18 81.19369484945472 22.97902038129203 -1.3159505202831512 -1 0 0
2444 20 84.377761314139 22.97902038129177 -1.3159505202830317 -1 0 0
2438 24 82.7857280817967 25.736502827046834 -1.3159505202830188 -1 0 0
2446 18 87.56182777882375 22.979020381292017 -1.3159505202831454 -1 0 0
2430 22 85.96979454648162 25.736502827046927 -1.3159505202831843 -1 0 0
2462 24 89.15386101116565 25.736502827046863 -1.315950520283015 -1 0 0
2468 20 90.74589424350806 22.97902038129177 -1.3159505202830404 -1 0 0
2454 22 92.33792747585059 25.73650282704695 -1.3159505202831925 -1 0 0
2470 18 93.92996070819268 22.979020381292006 -1.3159505202831367 -1 0 0
2492 20 97.11402717287703 22.979020381291775 -1.3159505202830417 -1 0 0
2486 24 95.52199394053467 25.73650282704683 -1.3159505202830057 -1 0 0
2510 24 101.89012686990367 25.736502827046866 -1.3159505202830009 -1 0 0
2494 18 100.29809363756175 22.979020381292063 -1.315950520283139 -1 0 0
2478 22 98.70606040521957 25.736502827046905 -1.3159505202831867 -1 0 0
2901 18 1.5920332323422106 28.49398527280205 -1.3159505202831487 0 0 0
2899 20 4.776099697026519 28.49398527280176 -1.3159505202830464 0 0 0
2925 18 7.960166161711192 28.49398527280204 -1.3159505202831414 0 0 0
2923 20 11.144232626395523 28.493985272801748 -1.3159505202830377 0 0 0
2949 18 14.328299091080202 28.493985272802053 -1.315950520283142 0 0 0
2947 20 17.512365555764543 28.493985272801748 -1.3159505202830355 0 0 0
2973 18 20.696432020449205 28.49398527280205 -1.3159505202831412 0 0 0
2971 20 23.88049848513352 28.493985272801755 -1.315950520283041 0 0 0
2997 18 27.064564949818188 28.49398527280204 -1.3159505202831412 0 0 0
2995 20 30.24863141450252 28.493985272801776 -1.315950520283051 0 0 0
3021 18 33.43269787918718 28.493985272802057 -1.3159505202831332 0 0 0
3019 20 36.616764343871516 28.493985272801744 -1.315950520283053 0 0 0
3045 18 39.80083080855617 28.493985272802036 -1.3159505202831372 0 0 0
3043 20 42.984897273240485 28.49398527280178 -1.3159505202830322 0 0 0
3069 18 46.1689637379252 28.49398527280205 -1.3159505202831454 0 0 0
3067 20 49.35303020260953 28.493985272801755 -1.3159505202830408 0 0 0
2709 18 52.5370966672942 28.49398527280205 -1.3159505202831416 -1 0 0
2707 20 55.72116313197852 28.49398527280175 -1.3159505202830388 -1 0 0
2733 18 58.90522959666318 28.49398527280205 -1.3159505202831445 -1 0 0
2731 20 62.08929606134755 28.493985272801744 -1.315950520283044 -1 0 0
2757 18 65.27336252603224 28.493985272802036 -1.3159505202831356 -1 0 0
2755 20 68.45742899071654 28.493985272801748 -1.3159505202830397 -1 0 0
2781 18 71.64149545540123 28.493985272802046 -1.3159505202831356 -1 0 0
2779 20 74.82556192008558 28.49398527280176 -1.3159505202830424 -1 0 0
2805 18 78.00962838477025 28.49398527280201 -1.315950520283131 -1 0 0
2803 20 81.19369484945459 28.493985272801773 -1.315950520283059 -1 0 0
2829 18 84.37776131413922 28.493985272802036 -1.3159505202831485 -1 0 0
2827 20 87.56182777882353 28.493985272801773 -1.3159505202830453 -1 0 0
2853 18 90.74589424350823 28.493985272802025 -1.31595052028314 -1 0 0
2851 20 93.92996070819257 28.493985272801762 -1.3159505202830346 -1 0 0
2877 18 97.11402717287723 28.49398527280204 -1.315950520283146 -1 0 0
2875 20 100.29809363756158 28.493985272801726 -1.3159505202830362 -1 0 0
2885 22 1.5237088616295503e-13 31.25146771855697 -1.3159505202831843 0 0 0
2893 24 3.1840664646841463 31.251467718556853 -1.3159505202830093 0 0 0
2900 20 1.592033232342063 34.008950164311784 -1.3159505202830548 0 0 0
2909 22 6.368132929369113 31.251467718556945 -1.315950520283174 0 0 0
2902 18 4.776099697026707 34.00895016431201 -1.3159505202831394 0 0 0
2924 20 7.960166161711039 34.00895016431177 -1.3159505202830437 0 0 0
2917 24 9.552199394053163 31.25146771855685 -1.3159505202830157 0 0 0
2926 18 11.144232626395706 34.00895016431204 -1.3159505202831459 0 0 0
2933 22 12.7362658587381 31.25146771855695 -1.3159505202831765 0 0 0
2941 24 15.92033232342216 31.25146771855685 -1.3159505202830157 0 0 0
2948 20 14.328299091080053 34.00895016431177 -1.3159505202830475 0 0 0
2957 22 19.10439878810712 31.251467718556942 -1.3159505202831812 0 0 0
2950 18 17.512365555764696 34.00895016431202 -1.3159505202831336 0 0 0
2972 20 20.69643202044905 34.00895016431176 -1.3159505202830428 0 0 0
2965 24 22.288465252791163 31.25146771855685 -1.315950520283013 0 0 0
2974 18 23.880498485133735 34.008950164312026 -1.3159505202831494 0 0 0
2981 22 25.472531717476112 31.251467718556942 -1.3159505202831805 0 0 0
2989 24 28.656598182160174 31.25146771855684 -1.3159505202830133 0 0 0
2996 20 27.064564949818035 34.00895016431173 -1.3159505202830468 0 0 0
3005 22 31.840664646845102 31.251467718556952 -1.3159505202831845 0 0 0
2998 18 30.248631414502707 34.008950164312054 -1.3159505202831336 0 0 0
3020 20 33.43269787918705 34.00895016431171 -1.315950520283045 0 0 0
3013 24 35.02473111152914 31.251467718556842 -1.3159505202830148 0 0 0
3022 18 36.61676434387169 34.00895016431207 -1.3159505202831379 0 0 0
3029 22 38.20879757621412 31.251467718556952 -1.315950520283176 0 0 0
3037 24 41.39286404089817 31.251467718556825 -1.3159505202830066 0 0 0
3044 20 39.80083080855605 34.00895016431176 -1.3159505202830424 0 0 0
3053 22 44.57693050558311 31.251467718556942 -1.3159505202831698 0 0 0
3046 18 42.98489727324073 34.00895016431206 -1.3159505202831605 0 0 0
3068 20 46.168963737925054 34.00895016431176 -1.3159505202830346 0 0 0
3061 24 47.76099697026718 31.25146771855683 -1.3159505202830126 0 0 0
3070 18 49.35303020260974 34.00895016431205 -1.3159505202831456 0 0 0
2693 22 50.94506343495213 31.251467718556942 -1.3159505202831658 -1 0 0
2701 24 54.12912989963616 31.251467718556842 -1.3159505202830133 -1 0 0
2708 20 52.53709666729405 34.008950164311734 -1.3159505202830495 -1 0 0
2717 22 57.31319636432114 31.25146771855695 -1.315950520283176 -1 0 0
2710 18 55.7211631319787 34.008950164312076 -1.3159505202831485 -1 0 0
2732 20 58.90522959666303 34.00895016431176 -1.315950520283063 -1 0 0
2725 24 60.497262829005166 31.251467718556828 -1.315950520283014 -1 0 0
2734 18 62.08929606134769 34.008950164312026 -1.3159505202831274 -1 0 0
2741 22 63.681329293690105 31.251467718556952 -1.315950520283169 -1 0 0
2749 24 66.86539575837418 31.251467718556842 -1.315950520283033 -1 0 0
2756 20 65.27336252603202 34.008950164311756 -1.3159505202830315 -1 0 0
2765 22 70.04946222305912 31.251467718556974 -1.3159505202831732 -1 0 0
2758 18 68.45742899071674 34.008950164312 -1.3159505202831288 -1 0 0
2780 20 71.64149545540103 34.008950164311756 -1.3159505202830613 -1 0 0
2773 24 73.23352868774315 31.251467718556835 -1.3159505202830135 -1 0 0
2782 18 74.8255619200857 34.008950164312026 -1.3159505202831494 -1 0 0
2789 22 76.41759515242809 31.251467718556924 -1.3159505202831847 -1 0 0
2797 24 79.60166161711214 31.251467718556835 -1.315950520283002 -1 0 0
2804 20 78.00962838477001 34.008950164311756 -1.3159505202830508 -1 0 0
2813 22 82.78572808179712 31.251467718556977 -1.3159505202831732 -1 0 0
2806 18 81.19369484945472 34.008950164312004 -1.315950520283096 -1 0 0
2828 20 84.37776131413904 34.00895016431176 -1.31595052028304 -1 0 0
2821 24 85.96979454648117 31.251467718556864 -1.315950520283008 -1 0 0
2830 18 87.56182777882371 34.008950164312026 -1.315950520283144 -1 0 0
2837 22 89.15386101116609 31.251467718556928 -1.3159505202831936 -1 0 0
2845 24 92.33792747585015 31.251467718556828 -1.3159505202830095 -1 0 0
2852 20 90.74589424350805 34.008950164311756 -1.3159505202830581 -1 0 0
2861 22 95.5219939405351 31.251467718556945 -1.315950520283171 -1 0 0
2854 18 93.92996070819271 34.00895016431199 -1.3159505202831316 -1 0 0