LAMMPS data file via write_data, version 2 Aug 2023, timestep = 0, units = metal

244 atoms
3 atom types

-20 20 xlo xhi
-20 20 ylo yhi
-3 8 zlo zhi

Masses

1 28.085
2 28.085
3 28.085

Atoms # atomic

1 2 9.023125 14.466825 7.692025000000001 0 0 0
2 2 7.662199999999999 13.105899999999998 6.331099999999999 0 0 0
3 2 14.466825 9.023125 7.692025000000001 0 0 0
4 2 13.105899999999998 7.662199999999999 6.331099999999999 0 0 0
5 2 9.023125 9.023125 7.692025000000001 0 0 0
6 2 10.384050000000002 10.384050000000002 6.331099999999999 0 0 0
7 2 7.662199999999999 7.662199999999999 6.331099999999999 0 0 0
8 2 11.744974999999997 11.744974999999997 7.692025000000001 0 0 0
9 2 3.5794250000000005 14.466825 7.692025000000001 0 0 0
10 2 4.940349999999999 15.827750000000002 6.331099999999999 0 0 0
11 2 2.218499999999999 13.105899999999998 6.331099999999999 0 0 0
12 2 -1.8642749999999992 14.466825 7.692025000000001 0 0 0
13 2 -0.5033500000000011 15.827750000000002 6.331099999999999 0 0 0
14 2 -3.225200000000001 13.105899999999998 6.331099999999999 0 0 0
15 2 0.8575750000000006 17.188675000000003 7.692025000000001 0 0 0
16 2 3.5794250000000005 9.023125 7.692025000000001 0 0 0
17 2 4.940349999999999 10.384050000000002 6.331099999999999 0 0 0
18 2 2.218499999999999 7.662199999999999 6.331099999999999 0 0 0
19 2 6.301275 11.744974999999997 7.692025000000001 0 0 0
20 2 -1.8642749999999992 9.023125 7.692025000000001 0 0 0
21 2 -0.5033500000000011 10.384050000000002 6.331099999999999 0 0 0
22 2 -3.225200000000001 7.662199999999999 6.331099999999999 0 0 0
23 2 0.8575750000000006 11.744974999999997 7.692025000000001 0 0 0
24 2 -7.307974999999999 14.466825 7.692025000000001 0 0 0
25 2 -8.6689 13.105899999999998 6.331099999999999 0 0 0
26 2 -4.586124999999999 17.188675000000003 7.692025000000001 0 0 0
27 2 -7.307974999999999 9.023125 7.692025000000001 0 0 0
28 2 -5.947050000000001 10.384050000000002 6.331099999999999 0 0 0
29 2 -8.6689 7.662199999999999 6.331099999999999 0 0 0
30 2 -4.586124999999999 11.744974999999997 7.692025000000001 0 0 0
31 2 -12.751675 9.023125 7.692025000000001 0 0 0
32 2 -11.39075 10.384050000000002 6.331099999999999 0 0 0
33 2 -14.1126 7.662199999999999 6.331099999999999 0 0 0
34 2 -10.029825 11.744974999999997 7.692025000000001 0 0 0
35 2 14.466825 3.5794250000000005 7.692025000000001 0 0 0
36 2 15.827750000000002 4.940349999999999 6.331099999999999 0 0 0
37 2 13.105899999999998 2.218499999999999 6.331099999999999 0 0 0
38 2 9.023125 3.5794250000000005 7.692025000000001 0 0 0
39 2 10.384050000000002 4.940349999999999 6.331099999999999 0 0 0
40 2 7.662199999999999 2.218499999999999 6.331099999999999 0 0 0
41 2 11.744974999999997 6.301275 7.692025000000001 0 0 0
42 2 14.466825 -1.8642749999999992 7.692025000000001 0 0 0
43 2 15.827750000000002 -0.5033500000000011 6.331099999999999 0 0 0
44 2 13.105899999999998 -3.225200000000001 6.331099999999999 0 0 0
45 2 17.188675000000003 0.8575750000000006 7.692025000000001 0 0 0
46 2 9.023125 -1.8642749999999992 7.692025000000001 0 0 0
47 2 10.384050000000002 -0.5033500000000011 6.331099999999999 0 0 0
48 2 7.662199999999999 -3.225200000000001 6.331099999999999 0 0 0
49 2 11.744974999999997 0.8575750000000006 7.692025000000001 0 0 0
50 2 3.5794250000000005 3.5794250000000005 7.692025000000001 0 0 0
51 2 4.940349999999999 4.940349999999999 6.331099999999999 0 0 0
52 2 2.218499999999999 2.218499999999999 6.331099999999999 0 0 0
53 2 6.301275 6.301275 7.692025000000001 0 0 0
54 2 -1.8642749999999992 3.5794250000000005 7.692025000000001 0 0 0
55 2 -0.5033500000000011 4.940349999999999 6.331099999999999 0 0 0
56 2 -3.225200000000001 2.218499999999999 6.331099999999999 0 0 0
57 2 0.8575750000000006 6.301275 7.692025000000001 0 0 0
58 2 3.5794250000000005 -1.8642749999999992 7.692025000000001 0 0 0
59 2 4.940349999999999 -0.5033500000000011 6.331099999999999 0 0 0
60 2 2.218499999999999 -3.225200000000001 6.331099999999999 0 0 0
61 2 6.301275 0.8575750000000006 7.692025000000001 0 0 0
62 2 -1.8642749999999992 -1.8642749999999992 7.692025000000001 0 0 0
63 2 -0.5033500000000011 -0.5033500000000011 6.331099999999999 0 0 0
64 2 -3.225200000000001 -3.225200000000001 6.331099999999999 0 0 0
65 2 0.8575750000000006 0.8575750000000006 7.692025000000001 0 0 0
66 2 -7.307974999999999 3.5794250000000005 7.692025000000001 0 0 0
67 2 -5.947050000000001 4.940349999999999 6.331099999999999 0 0 0
68 2 -8.6689 2.218499999999999 6.331099999999999 0 0 0
69 2 -4.586124999999999 6.301275 7.692025000000001 0 0 0
70 2 -12.751675 3.5794250000000005 7.692025000000001 0 0 0
71 2 -11.39075 4.940349999999999 6.331099999999999 0 0 0
72 2 -14.1126 2.218499999999999 6.331099999999999 0 0 0
73 2 -10.029825 6.301275 7.692025000000001 0 0 0
74 2 -7.307974999999999 -1.8642749999999992 7.692025000000001 0 0 0
75 2 -5.947050000000001 -0.5033500000000011 6.331099999999999 0 0 0
76 2 -8.6689 -3.225200000000001 6.331099999999999 0 0 0
77 2 -4.586124999999999 0.8575750000000006 7.692025000000001 0 0 0
78 2 -12.751675 -1.8642749999999992 7.692025000000001 0 0 0
79 2 -11.39075 -0.5033500000000011 6.331099999999999 0 0 0
80 2 -14.1126 -3.225200000000001 6.331099999999999 0 0 0
81 2 -10.029825 0.8575750000000006 7.692025000000001 0 0 0
82 2 -15.473525 6.301275 7.692025000000001 0 0 0
83 2 -15.473525 0.8575750000000006 7.692025000000001 0 0 0
84 2 14.466825 -7.307974999999999 7.692025000000001 0 0 0
85 2 13.105899999999998 -8.6689 6.331099999999999 0 0 0
86 2 17.188675000000003 -4.586124999999999 7.692025000000001 0 0 0
87 2 9.023125 -7.307974999999999 7.692025000000001 0 0 0
88 2 10.384050000000002 -5.947050000000001 6.331099999999999 0 0 0
89 2 7.662199999999999 -8.6689 6.331099999999999 0 0 0
90 2 11.744974999999997 -4.586124999999999 7.692025000000001 0 0 0
91 2 9.023125 -12.751675 7.692025000000001 0 0 0
92 2 10.384050000000002 -11.39075 6.331099999999999 0 0 0
93 2 7.662199999999999 -14.1126 6.331099999999999 0 0 0
94 2 11.744974999999997 -10.029825 7.692025000000001 0 0 0
95 2 3.5794250000000005 -7.307974999999999 7.692025000000001 0 0 0
96 2 4.940349999999999 -5.947050000000001 6.331099999999999 0 0 0
97 2 2.218499999999999 -8.6689 6.331099999999999 0 0 0
98 2 6.301275 -4.586124999999999 7.692025000000001 0 0 0
99 2 -1.8642749999999992 -7.307974999999999 7.692025000000001 0 0 0
100 2 -0.5033500000000011 -5.947050000000001 6.331099999999999 0 0 0
101 2 -3.225200000000001 -8.6689 6.331099999999999 0 0 0
102 2 0.8575750000000006 -4.586124999999999 7.692025000000001 0 0 0
103 2 3.5794250000000005 -12.751675 7.692025000000001 0 0 0
104 2 4.940349999999999 -11.39075 6.331099999999999 0 0 0
105 2 2.218499999999999 -14.1126 6.331099999999999 0 0 0
106 2 6.301275 -10.029825 7.692025000000001 0 0 0
107 2 -1.8642749999999992 -12.751675 7.692025000000001 0 0 0
108 2 -0.5033500000000011 -11.39075 6.331099999999999 0 0 0
109 2 -3.225200000000001 -14.1126 6.331099999999999 0 0 0
110 2 0.8575750000000006 -10.029825 7.692025000000001 0 0 0
111 2 -7.307974999999999 -7.307974999999999 7.692025000000001 0 0 0
112 2 -5.947050000000001 -5.947050000000001 6.331099999999999 0 0 0
113 2 -8.6689 -8.6689 6.331099999999999 0 0 0
114 2 -4.586124999999999 -4.586124999999999 7.692025000000001 0 0 0
115 2 -12.751675 -7.307974999999999 7.692025000000001 0 0 0
116 2 -11.39075 -5.947050000000001 6.331099999999999 0 0 0
117 2 -14.1126 -8.6689 6.331099999999999 0 0 0
118 2 -10.029825 -4.586124999999999 7.692025000000001 0 0 0
119 2 -7.307974999999999 -12.751675 7.692025000000001 0 0 0
120 2 -5.947050000000001 -11.39075 6.331099999999999 0 0 0
121 2 -8.6689 -14.1126 6.331099999999999 0 0 0
122 2 -4.586124999999999 -10.029825 7.692025000000001 0 0 0
123 2 -12.751675 -12.751675 7.692025000000001 0 0 0
124 2 -11.39075 -11.39075 6.331099999999999 0 0 0
125 2 -10.029825 -10.029825 7.692025000000001 0 0 0
126 2 -15.473525 -4.586124999999999 7.692025000000001 0 0 0
127 2 6.301275 -15.473525 7.692025000000001 0 0 0
128 2 0.8575750000000006 -15.473525 7.692025000000001 0 0 0
129 2 -4.586124999999999 -15.473525 7.692025000000001 0 0 0
130 3 10.384050000000002 7.662199999999999 3.6092499999999994 0 0 0
131 3 9.023125 11.744974999999997 4.970174999999999 0 0 0
132 3 11.744974999999997 9.023125 4.970174999999999 0 0 0
133 3 7.662199999999999 10.384050000000002 3.6092499999999994 0 0 0
134 3 0.8575750000000006 14.466825 4.970174999999999 0 0 0
135 3 4.940349999999999 7.662199999999999 3.6092499999999994 0 0 0
136 1 3.5794250000000005 9.023125 2.2483249999999995 0 0 0
137 3 3.5794250000000005 11.744974999999997 4.970174999999999 0 0 0
138 3 6.301275 9.023125 4.970174999999999 0 0 0
139 3 2.218499999999999 10.384050000000002 3.6092499999999994 0 0 0
140 3 -0.5033500000000011 7.662199999999999 3.6092499999999994 0 0 0
141 1 -1.8642749999999992 9.023125 2.2483249999999995 0 0 0
142 3 -1.8642749999999992 11.744974999999997 4.970174999999999 0 0 0
143 3 0.8575750000000006 9.023125 4.970174999999999 0 0 0
144 3 -3.225200000000001 10.384050000000002 3.6092499999999994 0 0 0
145 3 -5.947050000000001 7.662199999999999 3.6092499999999994 0 0 0
146 3 -7.307974999999999 11.744974999999997 4.970174999999999 0 0 0
147 3 -4.586124999999999 9.023125 4.970174999999999 0 0 0
148 3 -10.029825 9.023125 4.970174999999999 0 0 0
149 3 10.384050000000002 2.218499999999999 3.6092499999999994 0 0 0
150 1 9.023125 3.5794250000000005 2.2483249999999995 0 0 0
151 3 9.023125 6.301275 4.970174999999999 0 0 0
152 3 11.744974999999997 3.5794250000000005 4.970174999999999 0 0 0
153 3 14.466825 0.8575750000000006 4.970174999999999 0 0 0
154 3 10.384050000000002 -3.225200000000001 3.6092499999999994 0 0 0
155 1 9.023125 -1.8642749999999992 2.2483249999999995 0 0 0
156 3 9.023125 0.8575750000000006 4.970174999999999 0 0 0
157 3 11.744974999999997 -1.8642749999999992 4.970174999999999 0 0 0
158 3 7.662199999999999 -0.5033500000000011 3.6092499999999994 0 0 0
159 3 4.940349999999999 2.218499999999999 3.6092499999999994 0 0 0
160 1 3.5794250000000005 3.5794250000000005 2.2483249999999995 0 0 0
161 3 3.5794250000000005 6.301275 4.970174999999999 0 0 0
162 1 2.218499999999999 2.218499999999999 0.8873999999999995 0 0 0
163 3 6.301275 3.5794250000000005 4.970174999999999 0 0 0
164 3 2.218499999999999 4.940349999999999 3.6092499999999994 0 0 0
165 1 6.301275 6.301275 2.2483249999999995 0 0 0
166 3 -0.5033500000000011 2.218499999999999 3.6092499999999994 0 0 0
167 1 -1.8642749999999992 3.5794250000000005 2.2483249999999995 0 0 0
168 1 -0.5033500000000011 4.940349999999999 0.8873999999999995 0 0 0
169 3 -1.8642749999999992 6.301275 4.970174999999999 0 0 0
170 1 -3.225200000000001 2.218499999999999 0.8873999999999995 0 0 0
171 3 0.8575750000000006 3.5794250000000005 4.970174999999999 0 0 0
172 3 7.662199999999999 4.940349999999999 3.6092499999999994 0 0 0
173 1 0.8575750000000006 6.301275 2.2483249999999995 0 0 0
174 3 4.940349999999999 -3.225200000000001 3.6092499999999994 0 0 0
175 1 3.5794250000000005 -1.8642749999999992 2.2483249999999995 0 0 0
176 1 4.940349999999999 -0.5033500000000011 0.8873999999999995 0 0 0
177 3 3.5794250000000005 0.8575750000000006 4.970174999999999 0 0 0
178 1 2.218499999999999 -3.225200000000001 0.8873999999999995 0 0 0
179 3 6.301275 -1.8642749999999992 4.970174999999999 0 0 0
180 3 2.218499999999999 -0.5033500000000011 3.6092499999999994 0 0 0
181 1 6.301275 0.8575750000000006 2.2483249999999995 0 0 0
182 3 -0.5033500000000011 -3.225200000000001 3.6092499999999994 0 0 0
183 1 -1.8642749999999992 -1.8642749999999992 2.2483249999999995 0 0 0
184 1 -0.5033500000000011 -0.5033500000000011 0.8873999999999995 0 0 0
185 3 -1.8642749999999992 0.8575750000000006 4.970174999999999 0 0 0
186 1 -3.225200000000001 -3.225200000000001 0.8873999999999995 0 0 0
187 3 0.8575750000000006 -1.8642749999999992 4.970174999999999 0 0 0
188 3 -3.225200000000001 -0.5033500000000011 3.6092499999999994 0 0 0
189 1 0.8575750000000006 0.8575750000000006 2.2483249999999995 0 0 0
190 3 -5.947050000000001 2.218499999999999 3.6092499999999994 0 0 0
191 1 -7.307974999999999 3.5794250000000005 2.2483249999999995 0 0 0
192 3 -7.307974999999999 6.301275 4.970174999999999 0 0 0
193 3 -4.586124999999999 3.5794250000000005 4.970174999999999 0 0 0
194 3 -8.6689 4.940349999999999 3.6092499999999994 0 0 0
195 1 -4.586124999999999 6.301275 2.2483249999999995 0 0 0
196 3 -11.39075 2.218499999999999 3.6092499999999994 0 0 0
197 3 -12.751675 6.301275 4.970174999999999 0 0 0
198 3 -10.029825 3.5794250000000005 4.970174999999999 0 0 0
199 3 -3.225200000000001 4.940349999999999 3.6092499999999994 0 0 0
200 3 -5.947050000000001 -3.225200000000001 3.6092499999999994 0 0 0
201 1 -7.307974999999999 -1.8642749999999992 2.2483249999999995 0 0 0
202 1 -5.947050000000001 -0.5033500000000011 0.8873999999999995 0 0 0
203 3 -7.307974999999999 0.8575750000000006 4.970174999999999 0 0 0
204 3 -4.586124999999999 -1.8642749999999992 4.970174999999999 0 0 0
205 3 -8.6689 -0.5033500000000011 3.6092499999999994 0 0 0
206 1 -4.586124999999999 0.8575750000000006 2.2483249999999995 0 0 0
207 3 -11.39075 -3.225200000000001 3.6092499999999994 0 0 0
208 3 -12.751675 0.8575750000000006 4.970174999999999 0 0 0
209 3 -10.029825 -1.8642749999999992 4.970174999999999 0 0 0
210 1 -10.029825 0.8575750000000006 2.2483249999999995 0 0 0
211 3 9.023125 -4.586124999999999 4.970174999999999 0 0 0
212 3 11.744974999999997 -7.307974999999999 4.970174999999999 0 0 0
213 3 9.023125 -10.029825 4.970174999999999 0 0 0
214 3 4.940349999999999 -8.6689 3.6092499999999994 0 0 0
215 1 3.5794250000000005 -7.307974999999999 2.2483249999999995 0 0 0
216 3 3.5794250000000005 -4.586124999999999 4.970174999999999 0 0 0
217 3 6.301275 -7.307974999999999 4.970174999999999 0 0 0
218 3 2.218499999999999 -5.947050000000001 3.6092499999999994 0 0 0
219 1 6.301275 -4.586124999999999 2.2483249999999995 0 0 0
220 3 -0.5033500000000011 -8.6689 3.6092499999999994 0 0 0
221 1 -1.8642749999999992 -7.307974999999999 2.2483249999999995 0 0 0
222 1 -0.5033500000000011 -5.947050000000001 0.8873999999999995 0 0 0
223 3 -1.8642749999999992 -4.586124999999999 4.970174999999999 0 0 0
224 3 0.8575750000000006 -7.307974999999999 4.970174999999999 0 0 0
225 3 7.662199999999999 -5.947050000000001 3.6092499999999994 0 0 0
226 1 0.8575750000000006 -4.586124999999999 2.2483249999999995 0 0 0
227 3 3.5794250000000005 -10.029825 4.970174999999999 0 0 0
228 3 6.301275 -12.751675 4.970174999999999 0 0 0
229 3 2.218499999999999 -11.39075 3.6092499999999994 0 0 0
230 3 -1.8642749999999992 -10.029825 4.970174999999999 0 0 0
231 3 0.8575750000000006 -12.751675 4.970174999999999 0 0 0
232 3 -3.225200000000001 -11.39075 3.6092499999999994 0 0 0
233 1 0.8575750000000006 -10.029825 2.2483249999999995 0 0 0
234 3 -5.947050000000001 -8.6689 3.6092499999999994 0 0 0
235 1 -7.307974999999999 -7.307974999999999 2.2483249999999995 0 0 0
236 3 -7.307974999999999 -4.586124999999999 4.970174999999999 0 0 0
237 3 -4.586124999999999 -7.307974999999999 4.970174999999999 0 0 0
238 3 -8.6689 -5.947050000000001 3.6092499999999994 0 0 0
239 1 -4.586124999999999 -4.586124999999999 2.2483249999999995 0 0 0
240 3 -12.751675 -4.586124999999999 4.970174999999999 0 0 0
241 3 -10.029825 -7.307974999999999 4.970174999999999 0 0 0
242 3 -3.225200000000001 -5.947050000000001 3.6092499999999994 0 0 0
243 3 -7.307974999999999 -10.029825 4.970174999999999 0 0 0
244 3 -4.586124999999999 -12.751675 4.970174999999999 0 0 0

Velocities

1 0 0 0
2 0 0 0
3 0 0 0
4 0 0 0
5 0 0 0
6 0 0 0
7 0 0 0
8 0 0 0
9 0 0 0
10 0 0 0
11 0 0 0
12 0 0 0
13 0 0 0
14 0 0 0
15 0 0 0
16 0 0 0
17 0 0 0
18 0 0 0
19 0 0 0
20 0 0 0
21 0 0 0
22 0 0 0
23 0 0 0
24 0 0 0
25 0 0 0
26 0 0 0
27 0 0 0
28 0 0 0
29 0 0 0
30 0 0 0
31 0 0 0
32 0 0 0
33 0 0 0
34 0 0 0
35 0 0 0
36 0 0 0
37 0 0 0
38 0 0 0
39 0 0 0
40 0 0 0
41 0 0 0
42 0 0 0
43 0 0 0
44 0 0 0
45 0 0 0
46 0 0 0
47 0 0 0
48 0 0 0
49 0 0 0
50 0 0 0
51 0 0 0
52 0 0 0
53 0 0 0
54 0 0 0
55 0 0 0
56 0 0 0
57 0 0 0
58 0 0 0
59 0 0 0
60 0 0 0
61 0 0 0
62 0 0 0
63 0 0 0
64 0 0 0
65 0 0 0
66 0 0 0
67 0 0 0
68 0 0 0
69 0 0 0
70 0 0 0
71 0 0 0
72 0 0 0
73 0 0 0
74 0 0 0
75 0 0 0
76 0 0 0
77 0 0 0
78 0 0 0
79 0 0 0
80 0 0 0
81 0 0 0
82 0 0 0
83 0 0 0
84 0 0 0
85 0 0 0
86 0 0 0
87 0 0 0
88 0 0 0
89 0 0 0
90 0 0 0
91 0 0 0
92 0 0 0
93 0 0 0
94 0 0 0
95 0 0 0
96 0 0 0
97 0 0 0
98 0 0 0
99 0 0 0
100 0 0 0
101 0 0 0
102 0 0 0
103 0 0 0
104 0 0 0
105 0 0 0
106 0 0 0
107 0 0 0
108 0 0 0
109 0 0 0
110 0 0 0
111 0 0 0
112 0 0 0
113 0 0 0
114 0 0 0
115 0 0 0
116 0 0 0
117 0 0 0
118 0 0 0
119 0 0 0
120 0 0 0
121 0 0 0
122 0 0 0
123 0 0 0
124 0 0 0
125 0 0 0
126 0 0 0
127 0 0 0
128 0 0 0
129 0 0 0
130 0 0 0
131 0 0 0
132 0 0 0
133 0 0 0
134 0 0 0
135 0 0 0
136 0 0 0
137 0 0 0
138 0 0 0
139 0 0 0
140 0 0 0
141 0 0 0
142 0 0 0
143 0 0 0
144 0 0 0
145 0 0 0
146 0 0 0
147 0 0 0
148 0 0 0
149 0 0 0
150 0 0 0
151 0 0 0
152 0 0 0
153 0 0 0
154 0 0 0
155 0 0 0
156 0 0 0
157 0 0 0
158 0 0 0
159 0 0 0
160 0 0 0
161 0 0 0
162 0 0 0
163 0 0 0
164 0 0 0
165 0 0 0
166 0 0 0
167 0 0 0
168 0 0 0
169 0 0 0
170 0 0 0
171 0 0 0
172 0 0 0
173 0 0 0
174 0 0 0
175 0 0 0
176 0 0 0
177 0 0 0
178 0 0 0
179 0 0 0
180 0 0 0
181 0 0 0
182 0 0 0
183 0 0 0
184 0 0 0
185 0 0 0
186 0 0 0
187 0 0 0
188 0 0 0
189 0 0 0
190 0 0 0
191 0 0 0
192 0 0 0
193 0 0 0
194 0 0 0
195 0 0 0
196 0 0 0
197 0 0 0
198 0 0 0
199 0 0 0
200 0 0 0
201 0 0 0
202 0 0 0
203 0 0 0
204 0 0 0
205 0 0 0
206 0 0 0
207 0 0 0
208 0 0 0
209 0 0 0
210 0 0 0
211 0 0 0
212 0 0 0
213 0 0 0
214 0 0 0
215 0 0 0
216 0 0 0
217 0 0 0
218 0 0 0
219 0 0 0
220 0 0 0
221 0 0 0
222 0 0 0
223 0 0 0
224 0 0 0
225 0 0 0
226 0 0 0
227 0 0 0
228 0 0 0
229 0 0 0
230 0 0 0
231 0 0 0
232 0 0 0
233 0 0 0
234 0 0 0
235 0 0 0
236 0 0 0
237 0 0 0
238 0 0 0
239 0 0 0
240 0 0 0
241 0 0 0
242 0 0 0
243 0 0 0
244 0 0 0
