LAMMPS data file via write_data, version 2 Aug 2023, timestep = 0, units = metal

82 atoms
3 atom types

-20 20 xlo xhi
-20 20 ylo yhi
-3 8 zlo zhi

Masses

1 28.085
2 28.085
3 28.085

Atoms # atomic

1 1 4.940349999999999 7.662199999999999 2.72185 0 0 0
2 3 3.5794250000000005 11.744974999999997 4.082775 0 0 0
3 3 6.301275 9.023125 4.082775 0 0 0
4 1 2.218499999999999 10.384050000000002 2.72185 0 0 0
5 1 -0.5033500000000011 7.662199999999999 2.72185 0 0 0
6 3 -1.8642749999999992 11.744974999999997 4.082775 0 0 0
7 3 0.8575750000000006 9.023125 4.082775 0 0 0
8 1 -3.225200000000001 10.384050000000002 2.72185 0 0 0
9 1 -5.947050000000001 7.662199999999999 2.72185 0 0 0
10 3 -4.586124999999999 9.023125 4.082775 0 0 0
11 3 -10.029825 9.023125 4.082775 0 0 0
12 1 10.384050000000002 2.218499999999999 2.72185 0 0 0
13 3 9.023125 6.301275 4.082775 0 0 0
14 3 11.744974999999997 3.5794250000000005 4.082775 0 0 0
15 1 10.384050000000002 -3.225200000000001 2.72185 0 0 0
16 3 9.023125 0.8575750000000006 4.082775 0 0 0
17 3 11.744974999999997 -1.8642749999999992 4.082775 0 0 0
18 1 7.662199999999999 -0.5033500000000011 2.72185 0 0 0
19 1 4.940349999999999 2.218499999999999 2.72185 0 0 0
20 1 3.5794250000000005 3.5794250000000005 1.360925 0 0 0
21 3 3.5794250000000005 6.301275 4.082775 0 0 0
22 3 6.301275 3.5794250000000005 4.082775 0 0 0
23 1 2.218499999999999 4.940349999999999 2.72185 0 0 0
24 1 -0.5033500000000011 2.218499999999999 2.72185 0 0 0
25 1 -1.8642749999999992 3.5794250000000005 1.360925 0 0 0
26 3 -1.8642749999999992 6.301275 4.082775 0 0 0
27 3 0.8575750000000006 3.5794250000000005 4.082775 0 0 0
28 1 7.662199999999999 4.940349999999999 2.72185 0 0 0
29 1 0.8575750000000006 6.301275 1.360925 0 0 0
30 1 4.940349999999999 -3.225200000000001 2.72185 0 0 0
31 1 3.5794250000000005 -1.8642749999999992 1.360925 0 0 0
32 3 3.5794250000000005 0.8575750000000006 4.082775 0 0 0
33 3 6.301275 -1.8642749999999992 4.082775 0 0 0
34 1 2.218499999999999 -0.5033500000000011 2.72185 0 0 0
35 1 6.301275 0.8575750000000006 1.360925 0 0 0
36 1 -0.5033500000000011 -3.225200000000001 2.72185 0 0 0
37 1 -1.8642749999999992 -1.8642749999999992 1.360925 0 0 0
38 3 -1.8642749999999992 0.8575750000000006 4.082775 0 0 0
39 3 0.8575750000000006 -1.8642749999999992 4.082775 0 0 0
40 1 -3.225200000000001 -0.5033500000000011 2.72185 0 0 0
41 1 0.8575750000000006 0.8575750000000006 1.360925 0 0 0
42 1 -5.947050000000001 2.218499999999999 2.72185 0 0 0
43 3 -7.307974999999999 6.301275 4.082775 0 0 0
44 3 -4.586124999999999 3.5794250000000005 4.082775 0 0 0
45 1 -8.6689 4.940349999999999 2.72185 0 0 0
46 1 -4.586124999999999 6.301275 1.360925 0 0 0
47 3 -10.029825 3.5794250000000005 4.082775 0 0 0
48 1 -3.225200000000001 4.940349999999999 2.72185 0 0 0
49 1 -5.947050000000001 -3.225200000000001 2.72185 0 0 0
50 1 -7.307974999999999 -1.8642749999999992 1.360925 0 0 0
51 3 -7.307974999999999 0.8575750000000006 4.082775 0 0 0
52 3 -4.586124999999999 -1.8642749999999992 4.082775 0 0 0
53 1 -8.6689 -0.5033500000000011 2.72185 0 0 0
54 1 -4.586124999999999 0.8575750000000006 1.360925 0 0 0
55 3 -12.751675 0.8575750000000006 4.082775 0 0 0
56 3 -10.029825 -1.8642749999999992 4.082775 0 0 0
57 3 9.023125 -4.586124999999999 4.082775 0 0 0
58 3 9.023125 -10.029825 4.082775 0 0 0
59 1 4.940349999999999 -8.6689 2.72185 0 0 0
60 3 3.5794250000000005 -4.586124999999999 4.082775 0 0 0
61 3 6.301275 -7.307974999999999 4.082775 0 0 0
62 1 2.218499999999999 -5.947050000000001 2.72185 0 0 0
63 1 6.301275 -4.586124999999999 1.360925 0 0 0
64 1 -0.5033500000000011 -8.6689 2.72185 0 0 0
65 1 -1.8642749999999992 -7.307974999999999 1.360925 0 0 0
66 3 -1.8642749999999992 -4.586124999999999 4.082775 0 0 0
67 3 0.8575750000000006 -7.307974999999999 4.082775 0 0 0
68 1 7.662199999999999 -5.947050000000001 2.72185 0 0 0
69 1 0.8575750000000006 -4.586124999999999 1.360925 0 0 0
70 3 3.5794250000000005 -10.029825 4.082775 0 0 0
71 3 -1.8642749999999992 -10.029825 4.082775 0 0 0
72 3 0.8575750000000006 -12.751675 4.082775 0 0 0
73 1 -5.947050000000001 -8.6689 2.72185 0 0 0
74 3 -7.307974999999999 -4.586124999999999 4.082775 0 0 0
75 3 -4.586124999999999 -7.307974999999999 4.082775 0 0 0
76 1 -8.6689 -5.947050000000001 2.72185 0 0 0
77 1 -4.586124999999999 -4.586124999999999 1.360925 0 0 0
78 3 -12.751675 -4.586124999999999 4.082775 0 0 0
79 3 -10.029825 -7.307974999999999 4.082775 0 0 0
80 1 -3.225200000000001 -5.947050000000001 2.72185 0 0 0
81 3 -7.307974999999999 -10.029825 4.082775 0 0 0
82 3 -4.586124999999999 -12.751675 4.082775 0 0 0

Velocities

1 0 0 0
2 0 0 0
3 0 0 0
4 0 0 0
5 0 0 0
6 0 0 0
7 0 0 0
8 0 0 0
9 0 0 0
10 0 0 0
11 0 0 0
12 0 0 0
13 0 0 0
14 0 0 0
15 0 0 0
16 0 0 0
17 0 0 0
18 0 0 0
19 0 0 0
20 0 0 0
21 0 0 0
22 0 0 0
23 0 0 0
24 0 0 0
25 0 0 0
26 0 0 0
27 0 0 0
28 0 0 0
29 0 0 0
30 0 0 0
31 0 0 0
32 0 0 0
33 0 0 0
34 0 0 0
35 0 0 0
36 0 0 0
37 0 0 0
38 0 0 0
39 0 0 0
40 0 0 0
41 0 0 0
42 0 0 0
43 0 0 0
44 0 0 0
45 0 0 0
46 0 0 0
47 0 0 0
48 0 0 0
49 0 0 0
50 0 0 0
51 0 0 0
52 0 0 0
53 0 0 0
54 0 0 0
55 0 0 0
56 0 0 0
57 0 0 0
58 0 0 0
59 0 0 0
60 0 0 0
61 0 0 0
62 0 0 0
63 0 0 0
64 0 0 0
65 0 0 0
66 0 0 0
67 0 0 0
68 0 0 0
69 0 0 0
70 0 0 0
71 0 0 0
72 0 0 0
73 0 0 0
74 0 0 0
75 0 0 0
76 0 0 0
77 0 0 0
78 0 0 0
79 0 0 0
80 0 0 0
81 0 0 0
82 0 0 0
