LAMMPS data file via write_data, version 29 Aug 2024, timestep = 2, units = metal

4080 atoms
4 atom types

0 100.27855519227 xlo xhi
0 98.422946418174 ylo yhi
-50 50 zlo zhi

Masses

1 118.71
2 118.71
3 15.999
4 15.999

Atoms # atomic

1022 3 1.6713092532042977 0.9638529274068376 0.006875597896656126 0 0 0
1026 3 5.013927759613297 0.9638529274068375 0.0068755978966570765 0 0 0
1143 1 1.6713092532046991 2.8932310560578127 1.0062494280388272 0 0 0
1147 1 5.013927759613699 2.8932310560578127 1.006249428038826 0 0 0
1141 3 8.988471672926392e-14 3.8586454691178362 0.006875597896657121 0 0 0
1145 3 3.3426185064090927 3.8586454691178367 0.006875597896656843 0 0 0
1148 1 3.3426185064089036 5.788023597768811 1.0062494280388268 0 0 0
1030 3 8.356546266022297 0.9638529274068377 0.006875597896655922 0 0 0
1034 3 11.699164772431297 0.9638529274068373 0.0068755978966572075 0 0 0
1151 1 8.356546266022699 2.8932310560578127 1.006249428038827 0 0 0
1155 1 11.699164772431699 2.893231056057813 1.0062494280388259 0 0 0
1149 3 6.685237012818093 3.858645469117837 0.00687559789665589 0 0 0
1153 3 10.027855519227092 3.8586454691178367 0.006875597896656485 0 0 0
1152 1 6.685237012817904 5.788023597768811 1.0062494280388259 0 0 0
1156 1 10.027855519226904 5.788023597768811 1.0062494280388263 0 0 0
1038 3 15.041783278840299 0.9638529274068374 0.006875597896656458 0 0 0
1159 1 15.041783278840699 2.893231056057813 1.0062494280388263 0 0 0
1157 3 13.370474025636092 3.858645469117837 0.006875597896656231 0 0 0
1161 3 16.71309253204509 3.858645469117837 0.0068755978966550235 0 0 0
1160 1 13.370474025635904 5.788023597768811 1.006249428038826 0 0 0
1164 1 16.7130925320449 5.788023597768812 1.0062494280388266 0 0 0
1042 3 18.384401785249295 0.9638529274068377 0.006875597896655709 0 0 0
1046 3 21.727020291658295 0.9638529274068377 0.006875597896656909 0 0 0
1163 1 18.384401785249697 2.8932310560578127 1.006249428038827 0 0 0
1167 1 21.7270202916587 2.8932310560578136 1.006249428038825 0 0 0
1165 3 20.05571103845409 3.858645469117836 0.006875597896658204 0 0 0
1169 3 23.398329544863092 3.8586454691178376 0.006875597896655454 0 0 0
1168 1 20.0557110384539 5.788023597768811 1.0062494280388272 0 0 0
1172 1 23.398329544862907 5.788023597768811 1.0062494280388246 0 0 0
1050 3 25.0696387980673 0.9638529274068373 0.006875597896656913 0 0 0
1054 3 28.4122573044763 0.9638529274068377 0.006875597896655956 0 0 0
1171 1 25.069638798067704 2.893231056057813 1.006249428038827 0 0 0
1175 1 28.4122573044767 2.8932310560578127 1.0062494280388268 0 0 0
1173 3 26.740948051272092 3.8586454691178367 0.006875597896655716 0 0 0
1176 1 26.740948051271907 5.788023597768811 1.0062494280388274 0 0 0
1058 3 31.754875810885295 0.9638529274068377 0.00687559789665566 0 0 0
1062 3 35.09749431729429 0.9638529274068378 0.0068755978966570305 0 0 0
1179 1 31.754875810885697 2.8932310560578127 1.006249428038827 0 0 0
1183 1 35.097494317294704 2.8932310560578127 1.006249428038826 0 0 0
1177 3 30.08356655768109 3.8586454691178367 0.006875597896655599 0 0 0
1181 3 33.426185064090085 3.8586454691178367 0.00687559789665707 0 0 0
1180 1 30.083566557680903 5.788023597768811 1.0062494280388272 0 0 0
1184 1 33.4261850640899 5.788023597768812 1.006249428038826 0 0 0
1066 3 38.4401128237033 0.9638529274068371 0.0068755978966569984 0 0 0
1187 1 38.4401128237037 2.8932310560578127 1.0062494280388272 0 0 0
1185 3 36.768803570499095 3.8586454691178367 0.006875597896656596 0 0 0
1189 3 40.11142207690809 3.8586454691178367 0.0068755978966555395 0 0 0
1188 1 36.76880357049891 5.788023597768811 1.0062494280388257 0 0 0
1192 1 40.11142207690791 5.788023597768811 1.0062494280388274 0 0 0
1070 3 41.7827313301123 0.9638529274068377 0.006875597896655959 0 0 0
1074 3 45.125349836521295 0.9638529274068376 0.006875597896655573 0 0 0
1191 1 41.782731330112696 2.8932310560578127 1.006249428038827 0 0 0
1195 1 45.12534983652169 2.893231056057813 1.006249428038826 0 0 0
1193 3 43.45404058331709 3.858645469117837 0.006875597896655332 0 0 0
1197 3 46.796659089726084 3.8586454691178367 0.006875597896656789 0 0 0
1196 1 43.4540405833169 5.788023597768811 1.0062494280388272 0 0 0
1200 1 46.7966590897259 5.788023597768812 1.006249428038826 0 0 0
1078 3 48.46796834293029 0.9638529274068375 0.006875597896656816 0 0 0
962 3 51.8105868493393 0.9638529274068374 0.006875597896656809 -1 0 0
1199 1 48.4679683429307 2.8932310560578136 1.0062494280388243 0 0 0
1083 1 51.81058684933971 2.8932310560578123 1.0062494280388279 -1 0 0
1081 3 50.139277596135095 3.858645469117836 0.006875597896658641 -1 0 0
1084 1 50.13927759613491 5.788023597768811 1.0062494280388259 -1 0 0
966 3 55.153205355748305 0.9638529274068369 0.006875597896657608 -1 0 0
970 3 58.49582386215731 0.9638529274068379 0.0068755978966570895 -1 0 0
1087 1 55.1532053557487 2.8932310560578136 1.0062494280388252 -1 0 0
1091 1 58.49582386215771 2.8932310560578123 1.0062494280388274 -1 0 0
1085 3 53.4818961025441 3.8586454691178376 0.006875597896655348 -1 0 0
1089 3 56.824514608953095 3.8586454691178362 0.006875597896657015 -1 0 0
1088 1 53.48189610254391 5.78802359776881 1.0062494280388277 -1 0 0
1092 1 56.82451460895291 5.788023597768811 1.0062494280388259 -1 0 0
974 3 61.838442368566305 0.9638529274068381 0.006875597896655487 -1 0 0
1095 1 61.8384423685667 2.8932310560578127 1.006249428038827 -1 0 0
1093 3 60.1671331153621 3.858645469117837 0.006875597896655353 -1 0 0
1097 3 63.509751621771095 3.858645469117837 0.0068755978966553695 -1 0 0
1096 1 60.16713311536191 5.788023597768812 1.006249428038825 -1 0 0
1100 1 63.50975162177091 5.788023597768811 1.006249428038827 -1 0 0
978 3 65.1810608749753 0.9638529274068388 0.006875597896653836 -1 0 0
982 3 68.5236793813843 0.963852927406836 0.006875597896659933 -1 0 0
1099 1 65.1810608749757 2.8932310560578136 1.0062494280388248 -1 0 0
1103 1 68.5236793813847 2.893231056057812 1.0062494280388279 -1 0 0
1101 3 66.85237012818008 3.8586454691178376 0.006875597896654827 -1 0 0
1105 3 70.1949886345891 3.8586454691178345 0.006875597896658988 -1 0 0
1104 1 66.85237012817991 5.78802359776881 1.0062494280388279 -1 0 0
1108 1 70.19498863458891 5.788023597768814 1.0062494280388246 -1 0 0
986 3 71.8662978877933 0.9638529274068381 0.006875597896654376 -1 0 0
990 3 75.2089163942023 0.9638529274068385 0.0068755978966551085 -1 0 0
1107 1 71.8662978877937 2.8932310560578145 1.0062494280388241 -1 0 0
1111 1 75.2089163942027 2.8932310560578127 1.006249428038827 -1 0 0
1109 3 73.53760714099809 3.858645469117838 0.006875597896655279 -1 0 0
1112 1 73.53760714099792 5.78802359776881 1.0062494280388263 -1 0 0
994 3 78.55153490061129 0.9638529274068378 0.0068755978966558075 -1 0 0
998 3 81.8941534070203 0.9638529274068359 0.0068755978966587965 -1 0 0
1115 1 78.5515349006117 2.893231056057812 1.0062494280388279 -1 0 0
1119 1 81.89415340702071 2.8932310560578123 1.0062494280388286 -1 0 0
1113 3 76.88022564740709 3.8586454691178367 0.006875597896655659 -1 0 0
1117 3 80.22284415381608 3.858645469117837 0.006875597896656245 -1 0 0
1116 1 76.88022564740692 5.788023597768811 1.006249428038827 -1 0 0
1120 1 80.22284415381591 5.78802359776881 1.0062494280388274 -1 0 0
1002 3 85.23677191342931 0.9638529274068386 0.006875597896655197 -1 0 0
1123 1 85.2367719134297 2.8932310560578145 1.0062494280388228 -1 0 0
1121 3 83.5654626602251 3.8586454691178345 0.006875597896657962 -1 0 0
1125 3 86.90808116663409 3.858645469117838 0.006875597896654541 -1 0 0
1124 1 83.56546266022491 5.788023597768813 1.0062494280388237 -1 0 0
1128 1 86.90808116663392 5.78802359776881 1.0062494280388277 -1 0 0
1006 3 88.57939041983829 0.9638529274068376 0.00687559789665608 -1 0 0
1010 3 91.9220089262473 0.9638529274068356 0.00687559789666044 -1 0 0
1127 1 88.5793904198387 2.8932310560578127 1.0062494280388268 -1 0 0
1131 1 91.92200892624771 2.8932310560578123 1.0062494280388272 -1 0 0
1129 3 90.25069967304309 3.8586454691178376 0.00687559789665485 -1 0 0
1133 3 93.5933181794521 3.858645469117835 0.0068755978966587765 -1 0 0
1132 1 90.25069967304292 5.78802359776881 1.006249428038828 -1 0 0
1136 1 93.5933181794519 5.788023597768811 1.0062494280388283 -1 0 0
1144 1 100.27855519226992 5.78802359776881 1.0062494280388272 -1 0 0
1014 3 95.26462743265631 0.963852927406838 0.0068755978966556115 -1 0 0
1018 3 98.6072459390653 0.9638529274068385 0.006875597896654649 -1 0 0
1135 1 95.2646274326567 2.893231056057812 1.006249428038828 -1 0 0
1139 1 98.6072459390657 2.8932310560578154 1.006249428038824 -1 0 0
1137 3 96.93593668586111 3.858645469117837 0.006875597896655822 -1 0 0
1140 1 96.93593668586091 5.788023597768814 1.0062494280388228 -1 0 0
1142 3 1.6713092532042977 6.753438010828836 0.006875597896656192 0 0 0
1146 3 5.013927759613297 6.753438010828835 0.006875597896656976 0 0 0
1261 3 8.978700637154105e-14 9.648230552539832 0.0068755978966568675 0 0 0
1263 1 1.6713092532046996 8.68281613947981 1.006249428038827 0 0 0
1265 3 3.3426185064090927 9.648230552539834 0.006875597896657185 0 0 0
1267 1 5.013927759613699 8.68281613947981 1.006249428038826 0 0 0
1268 1 3.342618506408904 11.577608681190808 1.006249428038827 0 0 0
1150 3 8.356546266022297 6.753438010828836 0.006875597896656156 0 0 0
1154 3 11.699164772431295 6.753438010828835 0.006875597896657115 0 0 0
1269 3 6.685237012818093 9.648230552539834 0.006875597896655739 0 0 0
1271 1 8.356546266022699 8.68281613947981 1.0062494280388272 0 0 0
1273 3 10.027855519227092 9.648230552539834 0.006875597896656665 0 0 0
1275 1 11.699164772431699 8.68281613947981 1.0062494280388259 0 0 0
1272 1 6.685237012817904 11.577608681190808 1.0062494280388259 0 0 0
1276 1 10.027855519226904 11.577608681190808 1.0062494280388266 0 0 0
1158 3 15.041783278840299 6.753438010828836 0.006875597896656729 0 0 0
1277 3 13.370474025636092 9.648230552539834 0.006875597896656079 0 0 0
1279 1 15.041783278840699 8.68281613947981 1.0062494280388268 0 0 0
1281 3 16.713092532045092 9.648230552539834 0.006875597896655417 0 0 0
1280 1 13.370474025635904 11.577608681190808 1.006249428038826 0 0 0
1284 1 16.713092532044904 11.577608681190808 1.0062494280388263 0 0 0
1162 3 18.384401785249295 6.753438010828835 0.006875597896655362 0 0 0
1166 3 21.727020291658295 6.753438010828835 0.006875597896656663 0 0 0
1283 1 18.384401785249697 8.68281613947981 1.0062494280388272 0 0 0
1285 3 20.05571103845409 9.648230552539832 0.006875597896658684 0 0 0
1287 1 21.7270202916587 8.68281613947981 1.0062494280388248 0 0 0
1289 3 23.398329544863092 9.648230552539834 0.006875597896655296 0 0 0
1288 1 20.0557110384539 11.577608681190808 1.0062494280388277 0 0 0
1292 1 23.398329544862907 11.577608681190808 1.0062494280388248 0 0 0
1170 3 25.0696387980673 6.753438010828836 0.006875597896656891 0 0 0
1174 3 28.4122573044763 6.753438010828836 0.00687559789665591 0 0 0
1291 1 25.069638798067704 8.68281613947981 1.0062494280388272 0 0 0
1293 3 26.740948051272092 9.648230552539834 0.006875597896655915 0 0 0
1295 1 28.4122573044767 8.68281613947981 1.0062494280388272 0 0 0
1296 1 26.740948051271907 11.577608681190807 1.0062494280388272 0 0 0
1178 3 31.754875810885295 6.753438010828835 0.006875597896655317 0 0 0
1182 3 35.09749431729429 6.753438010828835 0.006875597896656788 0 0 0
1297 3 30.08356655768109 9.648230552539834 0.006875597896655976 0 0 0
1299 1 31.754875810885697 8.68281613947981 1.006249428038827 0 0 0
1301 3 33.426185064090085 9.648230552539834 0.006875597896657721 0 0 0
1303 1 35.097494317294704 8.68281613947981 1.0062494280388257 0 0 0
1300 1 30.083566557680903 11.577608681190807 1.006249428038827 0 0 0
1304 1 33.4261850640899 11.577608681190808 1.0062494280388266 0 0 0
1186 3 38.4401128237033 6.753438010828836 0.006875597896656973 0 0 0
1305 3 36.768803570499095 9.648230552539832 0.006875597896656424 0 0 0
1307 1 38.4401128237037 8.68281613947981 1.0062494280388272 0 0 0
1309 3 40.11142207690809 9.648230552539836 0.006875597896655742 0 0 0
1308 1 36.76880357049891 11.577608681190808 1.0062494280388259 0 0 0
1312 1 40.11142207690791 11.577608681190807 1.0062494280388272 0 0 0
1190 3 41.7827313301123 6.753438010828836 0.006875597896655909 0 0 0
1194 3 45.125349836521295 6.753438010828835 0.006875597896655231 0 0 0
1311 1 41.782731330112696 8.68281613947981 1.0062494280388272 0 0 0
1313 3 43.45404058331709 9.648230552539834 0.006875597896655884 0 0 0
1315 1 45.12534983652169 8.68281613947981 1.006249428038826 0 0 0
1317 3 46.796659089726084 9.648230552539834 0.006875597896657446 0 0 0
1316 1 43.4540405833169 11.577608681190807 1.006249428038827 0 0 0
1320 1 46.7966590897259 11.577608681190808 1.0062494280388266 0 0 0
1198 3 48.46796834293029 6.753438010828835 0.00687559789665657 0 0 0
1082 3 51.8105868493393 6.753438010828836 0.006875597896656915 -1 0 0
1319 1 48.4679683429307 8.682816139479812 1.0062494280388243 0 0 0
1201 3 50.139277596135095 9.648230552539832 0.006875597896658358 -1 0 0
1203 1 51.81058684933971 8.68281613947981 1.0062494280388277 -1 0 0
1204 1 50.13927759613491 11.577608681190808 1.0062494280388263 -1 0 0
1086 3 55.153205355748305 6.753438010828835 0.006875597896657353 -1 0 0
1090 3 58.49582386215731 6.753438010828836 0.006875597896657014 -1 0 0
1205 3 53.4818961025441 9.648230552539836 0.006875597896655382 -1 0 0
1207 1 55.1532053557487 8.68281613947981 1.0062494280388254 -1 0 0
1209 3 56.824514608953095 9.648230552539834 0.006875597896656996 -1 0 0
1211 1 58.49582386215771 8.68281613947981 1.0062494280388277 -1 0 0
1208 1 53.48189610254391 11.577608681190807 1.0062494280388274 -1 0 0
1212 1 56.82451460895291 11.577608681190808 1.0062494280388259 -1 0 0
1094 3 61.838442368566305 6.7534380108288365 0.006875597896655577 -1 0 0
1213 3 60.1671331153621 9.648230552539834 0.006875597896655032 -1 0 0
1215 1 61.8384423685667 8.68281613947981 1.0062494280388272 -1 0 0
1217 3 63.509751621771095 9.648230552539836 0.006875597896655573 -1 0 0
1216 1 60.16713311536191 11.577608681190808 1.006249428038825 -1 0 0
1220 1 63.50975162177091 11.577608681190808 1.0062494280388268 -1 0 0
1098 3 65.1810608749753 6.7534380108288365 0.00687559789665378 -1 0 0
1102 3 68.5236793813843 6.753438010828834 0.0068755978966597315 -1 0 0
1219 1 65.1810608749757 8.68281613947981 1.0062494280388252 -1 0 0
1221 3 66.85237012818008 9.648230552539834 0.00687559789665455 -1 0 0
1223 1 68.5236793813847 8.682816139479808 1.0062494280388279 -1 0 0
1225 3 70.1949886345891 9.648230552539832 0.006875597896659513 -1 0 0
1224 1 66.85237012817991 11.577608681190807 1.006249428038828 -1 0 0
1228 1 70.19498863458891 11.57760868119081 1.006249428038825 -1 0 0
1106 3 71.8662978877933 6.753438010828835 0.006875597896654005 -1 0 0
1110 3 75.2089163942023 6.7534380108288365 0.006875597896655229 -1 0 0
1227 1 71.8662978877937 8.682816139479812 1.0062494280388243 -1 0 0
1229 3 73.53760714099809 9.648230552539834 0.006875597896655012 -1 0 0
1231 1 75.2089163942027 8.68281613947981 1.0062494280388272 -1 0 0
1232 1 73.53760714099792 11.577608681190807 1.0062494280388266 -1 0 0
1114 3 78.5515349006113 6.753438010828835 0.006875597896655569 -1 0 0
1118 3 81.8941534070203 6.753438010828833 0.00687559789665835 -1 0 0
1233 3 76.88022564740709 9.648230552539834 0.006875597896656043 -1 0 0
1235 1 78.5515349006117 8.68281613947981 1.0062494280388279 -1 0 0
1237 3 80.22284415381608 9.648230552539834 0.006875597896656911 -1 0 0
1239 1 81.89415340702071 8.68281613947981 1.0062494280388283 -1 0 0
1236 1 76.88022564740692 11.577608681190807 1.006249428038827 -1 0 0
1240 1 80.22284415381591 11.577608681190808 1.0062494280388279 -1 0 0
1122 3 85.23677191342931 6.7534380108288365 0.006875597896655301 -1 0 0
1241 3 83.5654626602251 9.648230552539832 0.006875597896657964 -1 0 0
1243 1 85.2367719134297 8.682816139479812 1.006249428038823 -1 0 0
1245 3 86.90808116663409 9.648230552539836 0.006875597896654069 -1 0 0
1244 1 83.56546266022491 11.57760868119081 1.0062494280388237 -1 0 0
1248 1 86.90808116663392 11.577608681190807 1.0062494280388274 -1 0 0
1126 3 88.5793904198383 6.753438010828836 0.006875597896656025 -1 0 0
1130 3 91.9220089262473 6.753438010828834 0.006875597896660365 -1 0 0
1247 1 88.5793904198387 8.68281613947981 1.0062494280388272 -1 0 0
1249 3 90.25069967304309 9.648230552539834 0.006875597896654236 -1 0 0
1251 1 91.92200892624771 8.68281613947981 1.0062494280388274 -1 0 0
1253 3 93.5933181794521 9.64823055253983 0.0068755978966585085 -1 0 0
1252 1 90.25069967304292 11.577608681190807 1.006249428038828 -1 0 0
1256 1 93.5933181794519 11.577608681190808 1.006249428038829 -1 0 0
1264 1 100.27855519226992 11.577608681190807 1.0062494280388274 -1 0 0
1134 3 95.26462743265631 6.753438010828835 0.00687559789665535 -1 0 0
1138 3 98.6072459390653 6.753438010828836 0.006875597896654031 -1 0 0
1255 1 95.2646274326567 8.68281613947981 1.0062494280388277 -1 0 0
1257 3 96.93593668586111 9.648230552539834 0.006875597896656548 -1 0 0
1259 1 98.6072459390657 8.682816139479813 1.006249428038824 -1 0 0
1260 1 96.93593668586091 11.57760868119081 1.0062494280388232 -1 0 0
1262 3 1.6713092532042972 12.543023094250833 0.0068755978966560105 0 0 0
1266 3 5.013927759613297 12.543023094250833 0.00687559789665676 0 0 0
1381 3 8.979165924571833e-14 15.437815635961831 0.006875597896657077 0 0 0
1383 1 1.6713092532046994 14.472401222901807 1.0062494280388268 0 0 0
1385 3 3.3426185064090927 15.437815635961831 0.006875597896656193 0 0 0
1387 1 5.013927759613699 14.472401222901807 1.006249428038826 0 0 0
1388 1 3.3426185064089036 17.367193764612807 1.0062494280388268 0 0 0
1270 3 8.356546266022297 12.543023094250833 0.006875597896655814 0 0 0
1274 3 11.699164772431297 12.543023094250833 0.006875597896656911 0 0 0
1389 3 6.685237012818093 15.437815635961833 0.006875597896655872 0 0 0
1391 1 8.356546266022699 14.472401222901805 1.006249428038827 0 0 0
1393 3 10.027855519227092 15.437815635961831 0.00687559789665566 0 0 0
1395 1 11.699164772431699 14.472401222901807 1.0062494280388259 0 0 0
1392 1 6.685237012817905 17.367193764612807 1.0062494280388259 0 0 0
1396 1 10.027855519226904 17.367193764612807 1.0062494280388266 0 0 0
1278 3 15.041783278840299 12.543023094250833 0.006875597896656354 0 0 0
1397 3 13.370474025636092 15.437815635961833 0.006875597896656208 0 0 0
1399 1 15.041783278840699 14.472401222901807 1.0062494280388266 0 0 0
1401 3 16.713092532045092 15.437815635961831 0.006875597896654464 0 0 0
1400 1 13.370474025635904 17.367193764612807 1.0062494280388259 0 0 0
1404 1 16.713092532044904 17.367193764612807 1.0062494280388257 0 0 0
1282 3 18.384401785249295 12.543023094250833 0.006875597896655127 0 0 0
1286 3 21.727020291658295 12.543023094250833 0.006875597896656493 0 0 0
1403 1 18.384401785249697 14.472401222901807 1.0062494280388268 0 0 0
1405 3 20.05571103845409 15.43781563596183 0.006875597896657649 0 0 0
1407 1 21.7270202916587 14.472401222901807 1.0062494280388246 0 0 0
1409 3 23.398329544863092 15.437815635961833 0.006875597896655397 0 0 0
1408 1 20.0557110384539 17.36719376461281 1.0062494280388274 0 0 0
1412 1 23.398329544862907 17.367193764612807 1.0062494280388243 0 0 0
1290 3 25.0696387980673 12.543023094250833 0.006875597896656673 0 0 0
1294 3 28.4122573044763 12.543023094250835 0.0068755978966557 0 0 0
1411 1 25.069638798067704 14.472401222901807 1.006249428038827 0 0 0
1413 3 26.740948051272092 15.437815635961831 0.006875597896654966 0 0 0
1415 1 28.4122573044767 14.472401222901805 1.0062494280388268 0 0 0
1416 1 26.740948051271907 17.367193764612807 1.0062494280388263 0 0 0
1298 3 31.754875810885295 12.543023094250833 0.006875597896655085 0 0 0
1302 3 35.09749431729429 12.543023094250833 0.006875597896656795 0 0 0
1417 3 30.08356655768109 15.437815635961831 0.00687559789665502 0 0 0
1419 1 31.754875810885697 14.472401222901807 1.0062494280388268 0 0 0
1421 3 33.426185064090085 15.43781563596183 0.006875597896656677 0 0 0
1423 1 35.097494317294704 14.472401222901807 1.0062494280388254 0 0 0
1420 1 30.083566557680903 17.367193764612807 1.0062494280388263 0 0 0
1424 1 33.4261850640899 17.36719376461281 1.0062494280388263 0 0 0
1306 3 38.4401128237033 12.543023094250833 0.006875597896656761 0 0 0
1425 3 36.768803570499095 15.437815635961831 0.006875597896656525 0 0 0
1427 1 38.4401128237037 14.472401222901807 1.0062494280388272 0 0 0
1429 3 40.11142207690809 15.437815635961831 0.006875597896654791 0 0 0
1428 1 36.76880357049891 17.367193764612807 1.0062494280388254 0 0 0
1432 1 40.11142207690791 17.367193764612807 1.0062494280388263 0 0 0
1310 3 41.7827313301123 12.543023094250835 0.006875597896655698 0 0 0
1314 3 45.125349836521295 12.543023094250833 0.006875597896655 0 0 0
1431 1 41.782731330112696 14.472401222901805 1.0062494280388268 0 0 0
1433 3 43.45404058331709 15.437815635961831 0.006875597896654933 0 0 0
1435 1 45.12534983652169 14.472401222901807 1.0062494280388259 0 0 0
1437 3 46.796659089726084 15.43781563596183 0.0068755978966564026 0 0 0
1436 1 43.4540405833169 17.367193764612807 1.0062494280388263 0 0 0
1440 1 46.7966590897259 17.36719376461281 1.0062494280388263 0 0 0
1318 3 48.46796834293029 12.543023094250831 0.006875597896656581 0 0 0
1202 3 51.8105868493393 12.543023094250833 0.006875597896656717 -1 0 0
1439 1 48.4679683429307 14.472401222901807 1.0062494280388241 0 0 0
1321 3 50.139277596135095 15.43781563596183 0.006875597896658439 -1 0 0
1323 1 51.81058684933971 14.472401222901805 1.0062494280388277 -1 0 0
1324 1 50.13927759613491 17.367193764612807 1.0062494280388259 -1 0 0
1206 3 55.153205355748305 12.543023094250833 0.006875597896657176 -1 0 0
1210 3 58.49582386215731 12.543023094250833 0.006875597896656993 -1 0 0
1325 3 53.4818961025441 15.437815635961831 0.006875597896654549 -1 0 0
1327 1 55.1532053557487 14.472401222901807 1.0062494280388254 -1 0 0
1329 3 56.824514608953095 15.437815635961831 0.006875597896657274 -1 0 0
1331 1 58.49582386215771 14.472401222901807 1.0062494280388277 -1 0 0
1328 1 53.48189610254391 17.367193764612807 1.0062494280388274 -1 0 0
1332 1 56.82451460895291 17.367193764612807 1.0062494280388263 -1 0 0
1214 3 61.838442368566305 12.543023094250835 0.006875597896655224 -1 0 0
1333 3 60.1671331153621 15.437815635961833 0.006875597896655165 -1 0 0
1335 1 61.8384423685667 14.472401222901805 1.006249428038827 -1 0 0
1337 3 63.509751621771095 15.437815635961831 0.006875597896654619 -1 0 0
1336 1 60.16713311536191 17.367193764612807 1.006249428038825 -1 0 0
1340 1 63.50975162177091 17.367193764612807 1.006249428038826 -1 0 0
1218 3 65.1810608749753 12.543023094250835 0.006875597896653914 -1 0 0
1222 3 68.5236793813843 12.543023094250831 0.0068755978966595546 -1 0 0
1339 1 65.1810608749757 14.472401222901807 1.0062494280388248 -1 0 0
1341 3 66.85237012818008 15.437815635961831 0.006875597896654138 -1 0 0
1343 1 68.5236793813847 14.472401222901805 1.0062494280388277 -1 0 0
1345 3 70.1949886345891 15.437815635961828 0.006875597896658477 -1 0 0
1344 1 66.85237012817991 17.367193764612807 1.0062494280388277 -1 0 0
1348 1 70.19498863458891 17.36719376461281 1.0062494280388248 -1 0 0
1226 3 71.8662978877933 12.543023094250833 0.006875597896653957 -1 0 0
1230 3 75.2089163942023 12.543023094250835 0.006875597896655047 -1 0 0
1347 1 71.8662978877937 14.472401222901809 1.006249428038824 -1 0 0
1349 3 73.53760714099809 15.437815635961833 0.00687559789665521 -1 0 0
1351 1 75.2089163942027 14.472401222901805 1.006249428038827 -1 0 0
1352 1 73.53760714099792 17.367193764612807 1.0062494280388257 -1 0 0
1234 3 78.5515349006113 12.543023094250833 0.0068755978966552125 -1 0 0
1238 3 81.8941534070203 12.543023094250831 0.006875597896658367 -1 0 0
1353 3 76.88022564740709 15.437815635961831 0.006875597896655091 -1 0 0
1355 1 78.5515349006117 14.472401222901805 1.0062494280388274 -1 0 0
1357 3 80.22284415381608 15.437815635961831 0.006875597896655998 -1 0 0
1359 1 81.89415340702071 14.472401222901807 1.006249428038828 -1 0 0
1356 1 76.88022564740692 17.367193764612807 1.006249428038826 -1 0 0
1360 1 80.22284415381591 17.367193764612807 1.0062494280388272 -1 0 0
1242 3 85.23677191342931 12.543023094250833 0.006875597896655251 -1 0 0
1361 3 83.5654626602251 15.43781563596183 0.006875597896658127 -1 0 0
1363 1 85.2367719134297 14.472401222901809 1.0062494280388234 -1 0 0
1365 3 86.90808116663409 15.437815635961833 0.006875597896653732 -1 0 0
1364 1 83.56546266022491 17.36719376461281 1.0062494280388234 -1 0 0
1368 1 86.90808116663392 17.367193764612807 1.0062494280388272 -1 0 0
1246 3 88.5793904198383 12.543023094250833 0.00687559789665633 -1 0 0
1250 3 91.9220089262473 12.543023094250831 0.006875597896660663 -1 0 0
1367 1 88.5793904198387 14.472401222901805 1.006249428038827 -1 0 0
1369 3 90.25069967304309 15.437815635961833 0.006875597896653824 -1 0 0
1371 1 91.92200892624771 14.472401222901805 1.0062494280388272 -1 0 0
1373 3 93.5933181794521 15.43781563596183 0.006875597896658268 -1 0 0
1372 1 90.25069967304292 17.367193764612807 1.0062494280388277 -1 0 0
1376 1 93.5933181794519 17.367193764612807 1.0062494280388286 -1 0 0
1384 1 100.27855519226992 17.367193764612807 1.0062494280388266 -1 0 0
1254 3 95.26462743265631 12.543023094250833 0.00687559789665532 -1 0 0
1258 3 98.6072459390653 12.543023094250833 0.006875597896654176 -1 0 0
1375 1 95.2646274326567 14.472401222901807 1.0062494280388274 -1 0 0
1377 3 96.93593668586111 15.43781563596183 0.006875597896655464 -1 0 0
1379 1 98.6072459390657 14.472401222901809 1.0062494280388237 -1 0 0
1380 1 96.93593668586091 17.36719376461281 1.0062494280388228 -1 0 0
1382 3 1.6713092532042977 18.332608177672835 0.006875597896658228 0 0 0
1386 3 5.0139277596132965 18.332608177672835 0.006875597896658852 0 0 0
1503 1 1.6713092532046994 20.261986306323813 1.0062494280388254 0 0 0
1507 1 5.013927759613699 20.261986306323813 1.0062494280388234 0 0 0
1501 3 9.020111217331896e-14 21.22740071938384 0.0068755978966576065 0 0 0
1505 3 3.3426185064090927 21.227400719383837 0.006875597896656517 0 0 0
1508 1 3.342618506408904 23.156778848034815 1.0062494280388272 0 0 0
1390 3 8.356546266022297 18.332608177672835 0.006875597896657723 0 0 0
1394 3 11.699164772431295 18.332608177672835 0.006875597896658982 0 0 0
1511 1 8.356546266022699 20.261986306323813 1.0062494280388254 0 0 0
1515 1 11.699164772431699 20.261986306323813 1.0062494280388232 0 0 0
1509 3 6.685237012818093 21.227400719383837 0.006875597896655417 0 0 0
1513 3 10.027855519227092 21.227400719383837 0.006875597896656337 0 0 0
1512 1 6.685237012817904 23.156778848034815 1.0062494280388263 0 0 0
1516 1 10.027855519226904 23.15677884803482 1.0062494280388268 0 0 0
1398 3 15.041783278840299 18.332608177672835 0.006875597896658466 0 0 0
1519 1 15.041783278840699 20.261986306323813 1.006249428038825 0 0 0
1517 3 13.370474025636092 21.227400719383837 0.006875597896655591 0 0 0
1521 3 16.71309253204509 21.22740071938384 0.0068755978966550104 0 0 0
1520 1 13.370474025635904 23.156778848034815 1.0062494280388263 0 0 0
1524 1 16.7130925320449 23.156778848034815 1.0062494280388266 0 0 0
1402 3 18.384401785249295 18.332608177672835 0.0068755978966582925 0 0 0
1406 3 21.727020291658295 18.33260817767283 0.00687559789665893 0 0 0
1523 1 18.384401785249697 20.261986306323813 1.0062494280388254 0 0 0
1527 1 21.7270202916587 20.261986306323813 1.0062494280388226 0 0 0
1525 3 20.05571103845409 21.227400719383837 0.006875597896657893 0 0 0
1529 3 23.398329544863092 21.22740071938384 0.006875597896655955 0 0 0
1528 1 20.0557110384539 23.15677884803482 1.0062494280388277 0 0 0
1532 1 23.398329544862907 23.156778848034815 1.0062494280388248 0 0 0
1410 3 25.0696387980673 18.332608177672835 0.0068755978966588615 0 0 0
1414 3 28.4122573044763 18.332608177672835 0.006875597896658413 0 0 0
1531 1 25.069638798067704 20.261986306323813 1.0062494280388257 0 0 0
1535 1 28.4122573044767 20.261986306323813 1.0062494280388254 0 0 0
1533 3 26.740948051272092 21.22740071938384 0.006875597896655676 0 0 0
1536 1 26.740948051271907 23.156778848034815 1.0062494280388274 0 0 0
1418 3 31.754875810885295 18.332608177672835 0.006875597896658249 0 0 0
1422 3 35.09749431729429 18.33260817767283 0.006875597896658811 0 0 0
1539 1 31.754875810885697 20.261986306323813 1.0062494280388254 0 0 0
1543 1 35.097494317294704 20.261986306323813 1.0062494280388237 0 0 0
1537 3 30.08356655768109 21.22740071938384 0.006875597896655573 0 0 0
1541 3 33.426185064090085 21.227400719383837 0.0068755978966568935 0 0 0
1540 1 30.083566557680903 23.156778848034815 1.0062494280388272 0 0 0
1544 1 33.4261850640899 23.15677884803482 1.0062494280388266 0 0 0
1426 3 38.4401128237033 18.332608177672835 0.00687559789665895 0 0 0
1547 1 38.4401128237037 20.261986306323813 1.0062494280388257 0 0 0
1545 3 36.768803570499095 21.22740071938384 0.0068755978966572335 0 0 0
1549 3 40.11142207690809 21.22740071938384 0.006875597896655624 0 0 0
1548 1 36.76880357049891 23.156778848034815 1.0062494280388257 0 0 0
1552 1 40.11142207690791 23.156778848034815 1.0062494280388274 0 0 0
1430 3 41.7827313301123 18.332608177672835 0.006875597896658417 0 0 0
1434 3 45.125349836521295 18.33260817767283 0.006875597896658163 0 0 0
1551 1 41.782731330112696 20.261986306323813 1.0062494280388254 0 0 0
1555 1 45.12534983652169 20.261986306323816 1.0062494280388246 0 0 0
1553 3 43.45404058331709 21.22740071938384 0.00687559789665544 0 0 0
1557 3 46.796659089726084 21.227400719383837 0.006875597896656647 0 0 0
1556 1 43.4540405833169 23.156778848034815 1.0062494280388272 0 0 0
1560 1 46.7966590897259 23.15677884803482 1.0062494280388268 0 0 0
1438 3 48.46796834293029 18.33260817767283 0.0068755978966587965 0 0 0
1322 3 51.8105868493393 18.332608177672835 0.0068755978966588555 -1 0 0
1559 1 48.4679683429307 20.261986306323813 1.0062494280388221 0 0 0
1443 1 51.81058684933971 20.261986306323813 1.006249428038826 -1 0 0
1441 3 50.139277596135095 21.227400719383837 0.0068755978966589856 -1 0 0
1444 1 50.13927759613491 23.15677884803482 1.006249428038826 -1 0 0
1326 3 55.153205355748305 18.33260817767283 0.006875597896659328 -1 0 0
1330 3 58.49582386215731 18.332608177672835 0.006875597896658354 -1 0 0