LAMMPS data file via write_data, version 29 Aug 2024, timestep = 2, units = metal

6120 atoms
6 atom types

0 100.27855519227 xlo xhi
0 98.422946418174 ylo yhi
-50 50 zlo zhi

Masses

1 118.71
2 118.71
3 118.71
4 15.999
5 15.999
6 15.999

Atoms # atomic

1022 4 1.6713092532043052 0.9640526194558511 0.006807421166121036 0 0 0
1026 4 5.013927759613305 0.9640526194558502 0.006807421166122273 0 0 0
1143 1 1.6713092532046911 2.8933432907965835 1.0066367953955209 0 0 0
1147 1 5.013927759613692 2.893343290796584 1.0066367953955195 0 0 0
1141 4 1.249212917511354e-13 3.85884516116685 0.006807421166120433 0 0 0
1145 4 3.3426185064091234 3.8588451611668493 0.006807421166122089 0 0 0
1148 1 3.3426185064088725 5.7881358325075825 1.0066367953955206 0 0 0
1030 4 8.356546266022306 0.9640526194558509 0.006807421166121212 0 0 0
1034 4 11.699164772431306 0.9640526194558502 0.0068074211661222515 0 0 0
1151 1 8.35654626602269 2.8933432907965835 1.0066367953955206 0 0 0
1155 1 11.69916477243169 2.893343290796584 1.0066367953955195 0 0 0
1149 4 6.685237012818124 3.8588451611668497 0.006807421166121007 0 0 0
1153 4 10.027855519227124 3.8588451611668493 0.006807421166122263 0 0 0
1152 1 6.685237012817873 5.7881358325075825 1.0066367953955198 0 0 0
1156 1 10.027855519226872 5.7881358325075825 1.0066367953955209 0 0 0
1038 4 15.041783278840304 0.9640526194558511 0.006807421166120854 0 0 0
1159 1 15.04178327884069 2.893343290796584 1.00663679539552 0 0 0
1157 4 13.370474025636124 3.8588451611668497 0.006807421166120987 0 0 0
1161 4 16.71309253204512 3.8588451611668497 0.006807421166121442 0 0 0
1160 1 13.370474025635872 5.7881358325075825 1.0066367953955195 0 0 0
1164 1 16.71309253204487 5.788135832507582 1.006636795395521 0 0 0
1042 4 18.384401785249302 0.9640526194558499 0.006807421166121856 0 0 0
1046 4 21.727020291658302 0.9640526194558503 0.006807421166122469 0 0 0
1163 1 18.38440178524969 2.8933432907965835 1.0066367953955209 0 0 0
1167 1 21.727020291658693 2.8933432907965844 1.0066367953955186 0 0 0
1165 4 20.05571103845412 3.858845161166849 0.00680742116612247 0 0 0
1169 4 23.398329544863127 3.858845161166849 0.006807421166121231 0 0 0
1168 1 20.055711038453868 5.7881358325075825 1.0066367953955202 0 0 0
1172 1 23.398329544862875 5.7881358325075825 1.0066367953955193 0 0 0
1050 4 25.069638798067306 0.9640526194558511 0.006807421166121135 0 0 0
1054 4 28.412257304476306 0.9640526194558507 0.0068074211661212245 0 0 0
1171 1 25.069638798067693 2.8933432907965835 1.0066367953955206 0 0 0
1175 1 28.41225730447669 2.8933432907965835 1.0066367953955204 0 0 0
1173 4 26.740948051272127 3.8588451611668497 0.006807421166121084 0 0 0
1176 1 26.74094805127187 5.7881358325075825 1.0066367953955204 0 0 0
1058 4 31.754875810885302 0.9640526194558506 0.0068074211661209565 0 0 0
1062 4 35.097494317294306 0.9640526194558491 0.006807421166123969 0 0 0
1179 1 31.754875810885686 2.893343290796583 1.0066367953955215 0 0 0
1183 1 35.09749431729469 2.8933432907965853 1.0066367953955178 0 0 0
1177 4 30.083566557681124 3.8588451611668497 0.006807421166121077 0 0 0
1181 4 33.42618506409012 3.8588451611668493 0.006807421166122429 0 0 0
1180 1 30.083566557680868 5.7881358325075825 1.0066367953955206 0 0 0
1184 1 33.42618506408987 5.7881358325075825 1.0066367953955202 0 0 0
1066 4 38.44011282370331 0.9640526194558516 0.006807421166120328 0 0 0
1187 1 38.44011282370369 2.8933432907965835 1.0066367953955206 0 0 0
1185 4 36.768803570499124 3.8588451611668493 0.006807421166121165 0 0 0
1189 4 40.11142207690813 3.8588451611668497 0.006807421166121086 0 0 0
1188 1 36.768803570498875 5.7881358325075825 1.0066367953955193 0 0 0
1192 1 40.11142207690787 5.7881358325075825 1.0066367953955204 0 0 0
1070 4 41.782731330112306 0.9640526194558507 0.0068074211661212245 0 0 0
1074 4 45.1253498365213 0.9640526194558506 0.006807421166120953 0 0 0
1191 1 41.78273133011269 2.8933432907965835 1.0066367953955204 0 0 0
1195 1 45.125349836521686 2.893343290796583 1.0066367953955215 0 0 0
1193 4 43.45404058331712 3.8588451611668497 0.006807421166121052 0 0 0
1197 4 46.79665908972612 3.8588451611668493 0.006807421166122426 0 0 0
1196 1 43.45404058331687 5.7881358325075825 1.0066367953955204 0 0 0
1200 1 46.79665908972587 5.7881358325075825 1.0066367953955204 0 0 0
1078 4 48.467968342930305 0.9640526194558491 0.006807421166124001 0 0 0
962 4 51.81058684933931 0.9640526194558516 0.006807421166120357 -1 0 0
1199 1 48.46796834293069 2.893343290796585 1.0066367953955184 0 0 0
1083 1 51.81058684933969 2.8933432907965835 1.006636795395521 -1 0 0
1081 4 50.13927759613512 3.8588451611668493 0.006807421166121719 -1 0 0
1084 1 50.139277596134875 5.7881358325075825 1.0066367953955193 -1 0 0
966 4 55.153205355748305 0.9640526194558499 0.00680742116612262 -1 0 0
970 4 58.49582386215731 0.9640526194558501 0.006807421166122303 -1 0 0
1087 1 55.153205355748696 2.8933432907965844 1.0066367953955193 -1 0 0
1091 1 58.4958238621577 2.8933432907965844 1.0066367953955193 -1 0 0
1085 4 53.48189610254413 3.8588451611668497 0.0068074211661205315 -1 0 0
1089 4 56.82451460895312 3.8588451611668493 0.006807421166121985 -1 0 0
1088 1 53.48189610254388 5.7881358325075825 1.0066367953955195 -1 0 0
1092 1 56.82451460895288 5.7881358325075825 1.0066367953955198 -1 0 0
974 4 61.83844236856631 0.9640526194558513 0.006807421166120669 -1 0 0
1095 1 61.838442368566696 2.8933432907965835 1.0066367953955204 -1 0 0
1093 4 60.16713311536213 3.8588451611668493 0.006807421166122277 -1 0 0
1097 4 63.50975162177112 3.8588451611668506 0.006807421166119367 -1 0 0
1096 1 60.16713311536188 5.788135832507582 1.006636795395521 -1 0 0
1100 1 63.50975162177088 5.7881358325075825 1.0066367953955189 -1 0 0
978 4 65.18106087497532 0.9640526194558502 0.00680742116612267 -1 0 0
982 4 68.52367938138431 0.9640526194558506 0.006807421166121645 -1 0 0
1099 1 65.18106087497569 2.8933432907965826 1.0066367953955224 -1 0 0
1103 1 68.5236793813847 2.893343290796585 1.0066367953955175 -1 0 0
1101 4 66.85237012818013 3.858845161166848 0.006807421166123556 -1 0 0
1105 4 70.19498863458912 3.8588451611668506 0.00680742116612096 -1 0 0
1104 1 66.85237012817987 5.788135832507582 1.0066367953955218 -1 0 0
1108 1 70.19498863458888 5.788135832507582 1.0066367953955215 -1 0 0
986 4 71.86629788779331 0.9640526194558519 0.006807421166120196 -1 0 0
990 4 75.2089163942023 0.9640526194558495 0.006807421166123409 -1 0 0
1107 1 71.86629788779369 2.8933432907965826 1.0066367953955213 -1 0 0
1111 1 75.20891639420269 2.8933432907965844 1.0066367953955209 -1 0 0
1109 4 73.53760714099812 3.8588451611668493 0.006807421166120641 -1 0 0
1112 1 73.53760714099788 5.788135832507584 1.0066367953955166 -1 0 0
994 4 78.55153490061132 0.96405261945585 0.00680742116612085 -1 0 0
998 4 81.89415340702031 0.9640526194558514 0.006807421166120666 -1 0 0
1115 1 78.5515349006117 2.8933432907965853 1.0066367953955182 -1 0 0
1119 1 81.8941534070207 2.8933432907965826 1.0066367953955215 -1 0 0
1113 4 76.88022564740713 3.85884516116685 0.006807421166120794 -1 0 0
1117 4 80.22284415381613 3.8588451611668475 0.006807421166125044 -1 0 0
1116 1 76.88022564740687 5.788135832507582 1.0066367953955206 -1 0 0
1120 1 80.22284415381588 5.7881358325075825 1.0066367953955209 -1 0 0
1002 4 85.23677191342931 0.9640526194558494 0.006807421166124473 -1 0 0
1123 1 85.23677191342969 2.893343290796584 1.0066367953955202 -1 0 0
1121 4 83.56546266022512 3.85884516116685 0.006807421166120039 -1 0 0
1125 4 86.90808116663413 3.8588451611668497 0.006807421166119947 -1 0 0
1124 1 83.56546266022488 5.788135832507581 1.0066367953955209 -1 0 0
1128 1 86.90808116663388 5.788135832507583 1.0066367953955182 -1 0 0
1006 4 88.57939041983832 0.9640526194558511 0.0068074211661209 -1 0 0
1010 4 91.92200892624732 0.9640526194558506 0.0068074211661216105 -1 0 0
1127 1 88.57939041983869 2.8933432907965835 1.0066367953955209 -1 0 0
1131 1 91.9220089262477 2.8933432907965853 1.0066367953955169 -1 0 0
1129 4 90.25069967304313 3.858845161166848 0.0068074211661234285 -1 0 0
1133 4 93.59331817945213 3.85884516116685 0.006807421166120153 -1 0 0
1132 1 90.25069967304287 5.7881358325075825 1.0066367953955215 -1 0 0
1136 1 93.59331817945188 5.788135832507582 1.0066367953955213 -1 0 0
1144 1 100.27855519226988 5.7881358325075825 1.0066367953955193 -1 0 0
1014 4 95.26462743265631 0.9640526194558509 0.006807421166121248 -1 0 0
1018 4 98.60724593906531 0.9640526194558516 0.006807421166120311 -1 0 0
1135 1 95.2646274326567 2.893343290796583 1.0066367953955213 -1 0 0
1139 1 98.60724593906569 2.8933432907965826 1.0066367953955213 -1 0 0
1137 4 96.93593668586112 3.8588451611668497 0.006807421166121943 -1 0 0
1140 1 96.93593668586088 5.788135832507582 1.0066367953955206 -1 0 0
1142 4 1.6713092532043052 6.753637702877848 0.006807421166120844 0 0 0
1146 4 5.013927759613305 6.753637702877848 0.006807421166122128 0 0 0
1261 4 1.2516760388651385e-13 9.648430244588846 0.006807421166120678 0 0 0
1263 1 1.6713092532046907 8.68292837421858 1.0066367953955209 0 0 0
1265 4 3.3426185064091234 9.648430244588846 0.006807421166121768 0 0 0
1267 1 5.013927759613692 8.68292837421858 1.0066367953955198 0 0 0
1268 1 3.342618506408872 11.577720915929579 1.0066367953955204 0 0 0
1150 4 8.356546266022306 6.753637702877848 0.006807421166120882 0 0 0
1154 4 11.699164772431304 6.753637702877848 0.006807421166122016 0 0 0
1269 4 6.685237012818124 9.648430244588846 0.006807421166121104 0 0 0
1271 1 8.35654626602269 8.68292837421858 1.0066367953955209 0 0 0
1273 4 10.027855519227122 9.648430244588846 0.006807421166121961 0 0 0
1275 1 11.69916477243169 8.68292837421858 1.0066367953955198 0 0 0
1272 1 6.685237012817874 11.577720915929579 1.0066367953955193 0 0 0
1276 1 10.027855519226872 11.577720915929579 1.0066367953955206 0 0 0
1158 4 15.041783278840304 6.753637702877848 0.0068074211661203685 0 0 0
1277 4 13.370474025636124 9.648430244588846 0.00680742116612092 0 0 0
1279 1 15.04178327884069 8.68292837421858 1.0066367953955202 0 0 0
1281 4 16.71309253204512 9.648430244588846 0.0068074211661214405 0 0 0
1280 1 13.370474025635874 11.577720915929579 1.006636795395519 0 0 0
1284 1 16.71309253204487 11.577720915929579 1.0066367953955209 0 0 0
1162 4 18.384401785249302 6.753637702877847 0.006807421166121463 0 0 0
1166 4 21.727020291658302 6.753637702877847 0.006807421166122195 0 0 0
1283 1 18.38440178524969 8.68292837421858 1.0066367953955209 0 0 0
1285 4 20.05571103845412 9.648430244588846 0.0068074211661226895 0 0 0
1287 1 21.727020291658693 8.682928374218582 1.0066367953955186 0 0 0
1289 4 23.398329544863127 9.648430244588846 0.006807421166121471 0 0 0
1288 1 20.055711038453868 11.57772091592958 1.0066367953955204 0 0 0
1292 1 23.398329544862875 11.57772091592958 1.0066367953955189 0 0 0
1170 4 25.069638798067306 6.753637702877848 0.006807421166120792 0 0 0
1174 4 28.412257304476306 6.753637702877848 0.006807421166120887 0 0 0
1291 1 25.069638798067693 8.68292837421858 1.0066367953955209 0 0 0
1293 4 26.740948051272127 9.648430244588846 0.006807421166121063 0 0 0
1295 1 28.41225730447669 8.68292837421858 1.0066367953955206 0 0 0
1296 1 26.74094805127187 11.577720915929579 1.0066367953955204 0 0 0
1178 4 31.754875810885302 6.753637702877848 0.0068074211661206955 0 0 0
1182 4 35.097494317294306 6.753637702877846 0.006807421166123677 0 0 0
1297 4 30.083566557681124 9.648430244588846 0.006807421166121114 0 0 0
1299 1 31.754875810885686 8.68292837421858 1.0066367953955215 0 0 0
1301 4 33.42618506409012 9.648430244588846 0.006807421166122669 0 0 0
1303 1 35.09749431729469 8.682928374218582 1.006636795395518 0 0 0
1300 1 30.083566557680868 11.577720915929579 1.0066367953955206 0 0 0
1304 1 33.42618506408987 11.57772091592958 1.0066367953955204 0 0 0
1186 4 38.44011282370331 6.753637702877849 0.006807421166119968 0 0 0
1305 4 36.768803570499124 9.648430244588846 0.006807421166121404 0 0 0
1307 1 38.44011282370369 8.68292837421858 1.0066367953955209 0 0 0
1309 4 40.11142207690813 9.648430244588846 0.006807421166121062 0 0 0
1308 1 36.768803570498875 11.57772091592958 1.0066367953955189 0 0 0
1312 1 40.11142207690787 11.577720915929579 1.0066367953955204 0 0 0
1190 4 41.782731330112306 6.753637702877848 0.006807421166120868 0 0 0
1194 4 45.1253498365213 6.753637702877848 0.006807421166120672 0 0 0
1311 1 41.78273133011269 8.68292837421858 1.0066367953955206 0 0 0
1313 4 43.45404058331712 9.648430244588846 0.00680742116612109 0 0 0
1315 1 45.125349836521686 8.68292837421858 1.0066367953955215 0 0 0
1317 4 46.79665908972612 9.648430244588846 0.006807421166122818 0 0 0
1316 1 43.45404058331687 11.577720915929579 1.0066367953955204 0 0 0
1320 1 46.79665908972587 11.57772091592958 1.0066367953955204 0 0 0
1198 4 48.467968342930305 6.753637702877846 0.0068074211661236835 0 0 0
1082 4 51.81058684933931 6.753637702877849 0.006807421166119939 -1 0 0
1319 1 48.46796834293069 8.682928374218582 1.0066367953955182 0 0 0
1201 4 50.13927759613512 9.648430244588846 0.006807421166121968 -1 0 0
1203 1 51.81058684933969 8.68292837421858 1.0066367953955206 -1 0 0
1204 1 50.139277596134875 11.57772091592958 1.006636795395519 -1 0 0
1086 4 55.153205355748305 6.753637702877848 0.006807421166122167 -1 0 0
1090 4 58.49582386215731 6.753637702877848 0.006807421166121881 -1 0 0
1205 4 53.48189610254413 9.648430244588846 0.0068074211661204205 -1 0 0
1207 1 55.153205355748696 8.682928374218582 1.006636795395519 -1 0 0
1209 4 56.82451460895312 9.648430244588846 0.006807421166121726 -1 0 0
1211 1 58.4958238621577 8.68292837421858 1.0066367953955198 -1 0 0
1208 1 53.48189610254388 11.57772091592958 1.0066367953955195 -1 0 0
1212 1 56.82451460895288 11.577720915929579 1.0066367953955198 -1 0 0
1094 4 61.83844236856631 6.753637702877849 0.0068074211661203286 -1 0 0
1213 4 60.16713311536213 9.648430244588846 0.006807421166122202 -1 0 0
1215 1 61.838442368566696 8.68292837421858 1.0066367953955206 -1 0 0
1217 4 63.50975162177112 9.648430244588846 0.006807421166119363 -1 0 0
1216 1 60.16713311536188 11.577720915929579 1.0066367953955206 -1 0 0
1220 1 63.50975162177088 11.577720915929579 1.0066367953955186 -1 0 0
1098 4 65.18106087497532 6.753637702877847 0.00680742116612241 -1 0 0
1102 4 68.52367938138431 6.753637702877848 0.006807421166121227 -1 0 0
1219 1 65.1810608749757 8.68292837421858 1.0066367953955224 -1 0 0
1221 4 66.85237012818013 9.648430244588845 0.006807421166123616 -1 0 0
1223 1 68.5236793813847 8.682928374218582 1.0066367953955173 -1 0 0
1225 4 70.19498863458912 9.648430244588848 0.0068074211661213885 -1 0 0
1224 1 66.85237012817987 11.577720915929579 1.0066367953955222 -1 0 0
1228 1 70.19498863458888 11.577720915929579 1.0066367953955215 -1 0 0
1106 4 71.86629788779331 6.753637702877849 0.006807421166119926 -1 0 0
1110 4 75.2089163942023 6.753637702877846 0.0068074211661233374 -1 0 0
1227 1 71.86629788779369 8.68292837421858 1.0066367953955213 -1 0 0
1229 4 73.53760714099812 9.648430244588846 0.0068074211661207275 -1 0 0
1231 1 75.20891639420269 8.68292837421858 1.006636795395521 -1 0 0
1232 1 73.53760714099788 11.57772091592958 1.0066367953955164 -1 0 0
1114 4 78.55153490061132 6.753637702877847 0.006807421166120555 -1 0 0
1118 4 81.89415340702031 6.753637702877849 0.006807421166120227 -1 0 0
1233 4 76.88022564740713 9.648430244588846 0.006807421166120794 -1 0 0
1235 1 78.5515349006117 8.682928374218582 1.0066367953955182 -1 0 0
1237 4 80.22284415381613 9.648430244588845 0.00680742116612546 -1 0 0
1239 1 81.8941534070207 8.68292837421858 1.0066367953955215 -1 0 0
1236 1 76.88022564740687 11.577720915929579 1.0066367953955206 -1 0 0
1240 1 80.22284415381588 11.57772091592958 1.006636795395521 -1 0 0
1122 4 85.23677191342931 6.753637702877847 0.006807421166123902 -1 0 0
1241 4 83.56546266022512 9.648430244588846 0.0068074211661201395 -1 0 0
1243 1 85.23677191342969 8.68292837421858 1.00663679539552 -1 0 0
1245 4 86.90808116663413 9.648430244588846 0.0068074211661199495 -1 0 0
1244 1 83.56546266022488 11.577720915929579 1.0066367953955204 -1 0 0
1248 1 86.90808116663388 11.57772091592958 1.0066367953955184 -1 0 0
1126 4 88.57939041983832 6.753637702877848 0.006807421166120461 -1 0 0
1130 4 91.92200892624732 6.753637702877848 0.006807421166121217 -1 0 0
1247 1 88.57939041983869 8.68292837421858 1.0066367953955206 -1 0 0
1249 4 90.25069967304313 9.648430244588845 0.0068074211661235205 -1 0 0
1251 1 91.9220089262477 8.682928374218582 1.0066367953955166 -1 0 0
1253 4 93.59331817945213 9.648430244588846 0.006807421166120136 -1 0 0
1252 1 90.25069967304287 11.577720915929579 1.006636795395522 -1 0 0
1256 1 93.59331817945188 11.577720915929579 1.0066367953955218 -1 0 0
1264 1 100.27855519226988 11.577720915929579 1.0066367953955189 -1 0 0
1134 4 95.26462743265631 6.753637702877848 0.006807421166120931 -1 0 0
1138 4 98.60724593906531 6.753637702877849 0.0068074211661200345 -1 0 0
1255 1 95.2646274326567 8.68292837421858 1.006636795395521 -1 0 0
1257 4 96.93593668586112 9.648430244588846 0.006807421166122381 -1 0 0
1259 1 98.60724593906569 8.68292837421858 1.0066367953955213 -1 0 0
1260 1 96.93593668586088 11.577720915929579 1.0066367953955209 -1 0 0
1262 4 1.6713092532043055 12.543222786299845 0.006807421166120985 0 0 0
1266 4 5.013927759613305 12.543222786299845 0.006807421166122267 0 0 0
1381 4 1.2516760388651385e-13 15.438015328010845 0.006807421166120816 0 0 0
1383 1 1.671309253204691 14.472513457640577 1.006636795395521 0 0 0
1385 4 3.3426185064091234 15.438015328010843 0.006807421166121673 0 0 0
1387 1 5.013927759613692 14.472513457640577 1.0066367953955198 0 0 0
1388 1 3.342618506408872 17.36730599935158 1.0066367953955204 0 0 0
1270 4 8.356546266022306 12.543222786299845 0.006807421166121028 0 0 0
1274 4 11.699164772431304 12.543222786299845 0.006807421166122171 0 0 0
1389 4 6.685237012818124 15.438015328010843 0.006807421166120475 0 0 0
1391 1 8.35654626602269 14.472513457640577 1.006636795395521 0 0 0
1393 4 10.027855519227122 15.438015328010843 0.006807421166121876 0 0 0
1395 1 11.69916477243169 14.472513457640577 1.0066367953955198 0 0 0
1392 1 6.685237012817874 17.36730599935158 1.0066367953955195 0 0 0
1396 1 10.027855519226872 17.36730599935158 1.0066367953955206 0 0 0
1278 4 15.041783278840304 12.543222786299845 0.006807421166120506 0 0 0
1397 4 13.370474025636124 15.438015328010843 0.00680742116612029 0 0 0
1399 1 15.04178327884069 14.472513457640579 1.0066367953955206 0 0 0
1401 4 16.71309253204512 15.438015328010843 0.006807421166121099 0 0 0
1400 1 13.370474025635874 17.36730599935158 1.0066367953955193 0 0 0
1404 1 16.71309253204487 17.36730599935158 1.0066367953955206 0 0 0
1282 4 18.384401785249302 12.543222786299845 0.00680742116612148 0 0 0
1286 4 21.727020291658302 12.543222786299845 0.006807421166121904 0 0 0
1403 1 18.38440178524969 14.472513457640577 1.0066367953955204 0 0 0
1405 4 20.05571103845412 15.438015328010843 0.006807421166122014 0 0 0
1407 1 21.727020291658693 14.472513457640579 1.0066367953955189 0 0 0
1409 4 23.398329544863127 15.438015328010843 0.006807421166121652 0 0 0
1408 1 20.055711038453868 17.36730599935158 1.0066367953955202 0 0 0
1412 1 23.398329544862875 17.36730599935158 1.006636795395519 0 0 0
1290 4 25.069638798067306 12.543222786299845 0.00680742116612075 0 0 0
1294 4 28.412257304476306 12.543222786299845 0.006807421166121119 0 0 0
1411 1 25.069638798067693 14.472513457640577 1.0066367953955213 0 0 0
1413 4 26.740948051272127 15.438015328010843 0.006807421166120748 0 0 0
1415 1 28.41225730447669 14.472513457640577 1.0066367953955204 0 0 0
1416 1 26.74094805127187 17.36730599935158 1.0066367953955202 0 0 0
1298 4 31.754875810885302 12.543222786299845 0.006807421166120674 0 0 0
1302 4 35.097494317294306 12.543222786299843 0.00680742116612338 0 0 0
1417 4 30.083566557681124 15.438015328010843 0.006807421166120715 0 0 0
1419 1 31.754875810885686 14.472513457640577 1.0066367953955213 0 0 0
1421 4 33.42618506409012 15.438015328010843 0.006807421166121994 0 0 0
1423 1 35.09749431729469 14.472513457640579 1.0066367953955182 0 0 0
1420 1 30.083566557680868 17.36730599935158 1.00663679539552 0 0 0
1424 1 33.42618506408987 17.36730599935158 1.0066367953955202 0 0 0
1306 4 38.44011282370331 12.543222786299845 0.006807421166119948 0 0 0
1425 4 36.768803570499124 15.438015328010843 0.006807421166121579 0 0 0
1427 1 38.44011282370369 14.472513457640577 1.006636795395521 0 0 0
1429 4 40.11142207690813 15.438015328010843 0.006807421166120748 0 0 0
1428 1 36.768803570498875 17.36730599935158 1.006636795395519 0 0 0
1432 1 40.11142207690787 17.36730599935158 1.0066367953955202 0 0 0
1310 4 41.782731330112306 12.543222786299845 0.0068074211661211 0 0 0
1314 4 45.1253498365213 12.543222786299845 0.006807421166120649 0 0 0
1431 1 41.78273133011269 14.472513457640577 1.0066367953955204 0 0 0
1433 4 43.45404058331712 15.438015328010843 0.006807421166120717 0 0 0
1435 1 45.125349836521686 14.472513457640577 1.0066367953955213 0 0 0
1437 4 46.79665908972612 15.438015328010843 0.0068074211661221405 0 0 0
1436 1 43.45404058331687 17.36730599935158 1.00663679539552 0 0 0
1440 1 46.79665908972587 17.36730599935158 1.0066367953955204 0 0 0
1318 4 48.467968342930305 12.543222786299843 0.006807421166123537 0 0 0
1202 4 51.81058684933931 12.543222786299845 0.006807421166120119 -1 0 0
1439 1 48.46796834293069 14.472513457640579 1.0066367953955184 0 0 0
1321 4 50.13927759613512 15.438015328010843 0.006807421166122287 -1 0 0
1323 1 51.81058684933969 14.472513457640577 1.0066367953955209 -1 0 0
1324 1 50.139277596134875 17.36730599935158 1.0066367953955193 -1 0 0
1206 4 55.153205355748305 12.543222786299845 0.006807421166122332 -1 0 0
1210 4 58.49582386215731 12.543222786299845 0.006807421166121879 -1 0 0
1325 4 53.48189610254413 15.438015328010843 0.006807421166120197 -1 0 0
1327 1 55.153205355748696 14.472513457640579 1.0066367953955193 -1 0 0
1329 4 56.82451460895312 15.438015328010845 0.0068074211661219245 -1 0 0
1331 1 58.4958238621577 14.472513457640577 1.0066367953955195 -1 0 0
1328 1 53.48189610254388 17.36730599935158 1.0066367953955198 -1 0 0
1332 1 56.82451460895288 17.36730599935158 1.00663679539552 -1 0 0
1214 4 61.83844236856631 12.543222786299845 0.006807421166120289 -1 0 0
1333 4 60.16713311536213 15.438015328010843 0.0068074211661215715 -1 0 0
1335 1 61.838442368566696 14.472513457640577 1.0066367953955209 -1 0 0
1337 4 63.50975162177112 15.438015328010843 0.006807421166119052 -1 0 0
1336 1 60.16713311536188 17.36730599935158 1.0066367953955206 -1 0 0
1340 1 63.50975162177088 17.36730599935158 1.0066367953955182 -1 0 0
1218 4 65.18106087497532 12.543222786299843 0.0068074211661226635 -1 0 0
1222 4 68.52367938138431 12.543222786299845 0.00680742116612138 -1 0 0
1339 1 65.1810608749757 14.472513457640575 1.0066367953955222 -1 0 0
1341 4 66.85237012818013 15.438015328010842 0.006807421166123279 -1 0 0
1343 1 68.5236793813847 14.472513457640579 1.006636795395517 -1 0 0
1345 4 70.19498863458912 15.438015328010843 0.006807421166120718 -1 0 0
1344 1 66.85237012817987 17.36730599935158 1.006636795395522 -1 0 0
1348 1 70.19498863458888 17.36730599935158 1.0066367953955213 -1 0 0
1226 4 71.86629788779331 12.543222786299847 0.006807421166119815 -1 0 0
1230 4 75.2089163942023 12.543222786299843 0.006807421166123323 -1 0 0
1347 1 71.86629788779369 14.472513457640577 1.0066367953955215 -1 0 0
1349 4 73.53760714099812 15.438015328010843 0.006807421166120867 -1 0 0
1351 1 75.20891639420269 14.472513457640579 1.0066367953955213 -1 0 0
1352 1 73.53760714099788 17.36730599935158 1.0066367953955164 -1 0 0
1234 4 78.55153490061132 12.543222786299845 0.006807421166120553 -1 0 0
1238 4 81.89415340702031 12.543222786299845 0.006807421166120112 -1 0 0
1353 4 76.88022564740713 15.438015328010843 0.006807421166120474 -1 0 0
1355 1 78.5515349006117 14.472513457640579 1.006636795395518 -1 0 0
1357 4 80.22284415381613 15.438015328010842 0.006807421166124608 -1 0 0
1359 1 81.8941534070207 14.472513457640577 1.0066367953955218 -1 0 0
1356 1 76.88022564740687 17.36730599935158 1.0066367953955204 -1 0 0
1360 1 80.22284415381588 17.36730599935158 1.0066367953955209 -1 0 0
1242 4 85.23677191342931 12.543222786299843 0.006807421166124039 -1 0 0
1361 4 83.56546266022512 15.438015328010845 0.006807421166120455 -1 0 0
1363 1 85.23677191342969 14.472513457640579 1.0066367953955204 -1 0 0
1365 4 86.90808116663413 15.438015328010843 0.006807421166119673 -1 0 0
1364 1 83.56546266022488 17.367305999351576 1.0066367953955204 -1 0 0
1368 1 86.90808116663388 17.36730599935158 1.0066367953955184 -1 0 0
1246 4 88.57939041983832 12.543222786299845 0.006807421166120734 -1 0 0
1250 4 91.92200892624732 12.543222786299845 0.006807421166121466 -1 0 0
1367 1 88.57939041983869 14.472513457640577 1.0066367953955204 -1 0 0
1369 4 90.25069967304313 15.438015328010842 0.006807421166123182 -1 0 0
1371 1 91.9220089262477 14.472513457640579 1.0066367953955164 -1 0 0
1373 4 93.59331817945213 15.438015328010843 0.006807421166119796 -1 0 0
1372 1 90.25069967304287 17.36730599935158 1.0066367953955218 -1 0 0
1376 1 93.59331817945188 17.36730599935158 1.0066367953955213 -1 0 0
1384 1 100.27855519226988 17.36730599935158 1.0066367953955189 -1 0 0
1254 4 95.26462743265631 12.543222786299845 0.00680742116612079 -1 0 0
1258 4 98.60724593906531 12.543222786299847 0.006807421166119926 -1 0 0
1375 1 95.2646274326567 14.472513457640577 1.0066367953955209 -1 0 0
1377 4 96.93593668586112 15.438015328010843 0.006807421166121529 -1 0 0
1379 1 98.60724593906569 14.472513457640577 1.0066367953955215 -1 0 0
1380 1 96.93593668586088 17.36730599935158 1.0066367953955206 -1 0 0
1382 4 1.6713092532043057 18.332807869721847 0.006807421166123282 0 0 0
1386 4 5.013927759613305 18.332807869721847 0.0068074211661246446 0 0 0
1503 1 1.6713092532046911 20.262098541062585 1.0066367953955193 0 0 0
1507 1 5.013927759613692 20.262098541062585 1.0066367953955173 0 0 0
1501 4 1.2487895685286722e-13 21.227600411432853 0.006807421166120774 0 0 0
1505 4 3.342618506409124 21.227600411432853 0.006807421166121733 0 0 0
1508 1 3.3426185064088725 23.156891082773587 1.0066367953955209 0 0 0
1390 4 8.356546266022306 18.332807869721847 0.00680742116612369 0 0 0
1394 4 11.699164772431306 18.332807869721847 0.006807421166124519 0 0 0
1511 1 8.356546266022692 20.262098541062585 1.0066367953955193 0 0 0
1515 1 11.69916477243169 20.262098541062585 1.0066367953955173 0 0 0
1509 4 6.685237012818124 21.227600411432853 0.006807421166120587 0 0 0
1513 4 10.027855519227124 21.227600411432853 0.0068074211661219115 0 0 0
1512 1 6.685237012817873 23.156891082773587 1.0066367953955198 0 0 0
1516 1 10.027855519226872 23.156891082773587 1.006636795395521 0 0 0
1398 4 15.041783278840304 18.332807869721847 0.0068074211661232195 0 0 0
1519 1 15.04178327884069 20.262098541062585 1.0066367953955184 0 0 0
1517 4 13.370474025636124 21.227600411432853 0.006807421166120554 0 0 0
1521 4 16.71309253204512 21.227600411432853 0.0068074211661212245 0 0 0
1520 1 13.370474025635872 23.156891082773587 1.0066367953955195 0 0 0
1524 1 16.71309253204487 23.156891082773587 1.0066367953955213 0 0 0
1402 4 18.384401785249302 18.332807869721847 0.006807421166124324 0 0 0
1406 4 21.727020291658302 18.332807869721847 0.006807421166123902 0 0 0
1523 1 18.38440178524969 20.262098541062585 1.0066367953955189 0 0 0
1527 1 21.727020291658693 20.262098541062585 1.0066367953955166 0 0 0
1525 4 20.055711038454124 21.227600411432853 0.006807421166122287 0 0 0
1529 4 23.398329544863127 21.227600411432853 0.006807421166121797 0 0 0
1528 1 20.055711038453868 23.156891082773587 1.0066367953955204 0 0 0
1532 1 23.398329544862875 23.156891082773587 1.0066367953955193 0 0 0
1410 4 25.069638798067306 18.332807869721847 0.006807421166123231 0 0 0
1414 4 28.412257304476306 18.332807869721847 0.006807421166123456 0 0 0
1531 1 25.069638798067693 20.262098541062585 1.006636795395519 0 0 0
1535 1 28.41225730447669 20.262098541062585 1.006636795395519 0 0 0
1533 4 26.740948051272127 21.227600411432853 0.006807421166120725 0 0 0
1536 1 26.74094805127187 23.156891082773587 1.0066367953955206 0 0 0
1418 4 31.754875810885302 18.332807869721847 0.00680742116612355 0 0 0
1422 4 35.097494317294306 18.332807869721844 0.006807421166125527 0 0 0
1539 1 31.754875810885686 20.262098541062585 1.0066367953955195 0 0 0
1543 1 35.09749431729469 20.262098541062585 1.0066367953955158 0 0 0
1537 4 30.083566557681124 21.227600411432853 0.006807421166120875 0 0 0
1541 4 33.42618506409012 21.227600411432853 0.006807421166122285 0 0 0
1540 1 30.083566557680868 23.156891082773587 1.0066367953955206 0 0 0
1544 1 33.42618506408987 23.156891082773587 1.0066367953955206 0 0 0
1426 4 38.44011282370331 18.332807869721847 0.006807421166122429 0 0 0
1547 1 38.44011282370369 20.262098541062585 1.0066367953955189 0 0 0
1545 4 36.768803570499124 21.227600411432853 0.006807421166121727 0 0 0
1549 4 40.11142207690813 21.227600411432853 0.006807421166120722 0 0 0
1548 1 36.768803570498875 23.156891082773587 1.0066367953955193 0 0 0
1552 1 40.11142207690787 23.156891082773587 1.0066367953955206 0 0 0
1430 4 41.782731330112306 18.332807869721847 0.006807421166123459 0 0 0
1434 4 45.1253498365213 18.332807869721847 0.006807421166123547 0 0 0
1551 1 41.78273133011269 20.262098541062585 1.006636795395519 0 0 0
1555 1 45.125349836521686 20.262098541062585 1.0066367953955198 0 0 0
1553 4 43.45404058331712 21.227600411432853 0.006807421166120875 0 0 0
1557 4 46.79665908972612 21.227600411432853 0.006807421166122268 0 0 0
1556 1 43.45404058331687 23.156891082773587 1.0066367953955206 0 0 0
1560 1 46.79665908972587 23.156891082773587 1.0066367953955206 0 0 0
1438 4 48.467968342930305 18.332807869721844 0.006807421166125526 0 0 0
1322 4 51.81058684933931 18.332807869721847 0.006807421166122454 -1 0 0
1559 1 48.46796834293069 20.262098541062585 1.006636795395516 0 0 0
1443 1 51.81058684933969 20.262098541062585 1.0066367953955193 -1 0 0
1441 4 50.13927759613512 21.227600411432853 0.006807421166122367 -1 0 0
1444 1 50.139277596134875 23.156891082773587 1.0066367953955195 -1 0 0