LAMMPS data file via write_data, version 29 Aug 2024, timestep = 2, units = metal

7020 atoms
36 atom types

0 97.294861923974 xlo xhi
0 97.22287163523 ylo yhi
-50 50 zlo zhi

Masses

1 44.955908
2 44.955908
3 44.955908
4 44.955908
5 44.955908
6 44.955908
7 44.955908
8 44.955908
9 44.955908
10 44.955908
11 44.955908
12 44.955908
13 127.6
14 127.6
15 127.6
16 127.6
17 127.6
18 127.6
19 127.6
20 127.6
21 127.6
22 127.6
23 127.6
24 127.6
25 127.6
26 127.6
27 127.6
28 127.6
29 127.6
30 127.6
31 127.6
32 127.6
33 127.6
34 127.6
35 127.6
36 127.6

Atoms # atomic

1174 4 1.8710550369994172 8.492030110513332e-07 2.001210006062757 0 0 0
1182 16 3.7421100739988504 1.0802546159333895 0.0428548656218971 0 0 0
1180 2 5.613165110998418 8.492030109630793e-07 2.001210006062757 0 0 0
1327 3 3.200887452577405e-13 3.2407632370440114 2.0012100060627565 0 0 0
1333 1 3.742110073999319 3.2407632370440105 2.0012100060627573 0 0 0
1329 18 1.8710550369997878 4.321017003774387 0.042854865621897414 0 0 0
1335 14 5.613165110998785 4.321017003774387 0.042854865621897525 0 0 0
1188 20 7.484220147997851 1.0802546159333892 0.042854865621897144 0 0 0
1186 4 9.355275184997419 8.492030110489709e-07 2.001210006062757 0 0 0
1194 16 11.22633022199685 1.08025461593339 0.042854865621896186 0 0 0
1339 3 7.484220147998317 3.2407632370440114 2.0012100060627573 0 0 0
1345 1 11.22633022199732 3.2407632370440114 2.0012100060627573 0 0 0
1341 18 9.355275184997787 4.321017003774387 0.04285486562189764 0 0 0
1192 2 13.097385258996418 8.492030110585958e-07 2.001210006062757 0 0 0
1200 20 14.96844029599585 1.0802546159333892 0.042854865621897 0 0 0
1198 4 16.83949533299542 8.492030111427927e-07 2.001210006062757 0 0 0
1351 3 14.968440295996317 3.2407632370440105 2.001210006062757 0 0 0
1347 14 13.097385258996786 4.321017003774387 0.042854865621897505 0 0 0
1353 18 16.83949533299578 4.321017003774387 0.042854865621897414 0 0 0
1206 16 18.710550369994852 1.0802546159333895 0.04285486562189702 0 0 0
1204 2 20.58160540699442 8.4920301099869e-07 2.001210006062757 0 0 0
1212 20 22.452660443993853 1.0802546159333895 0.04285486562189702 0 0 0
1357 1 18.710550369995314 3.240763237044012 2.001210006062757 0 0 0
1363 3 22.452660443994315 3.240763237044012 2.001210006062757 0 0 0
1359 14 20.581605406994782 4.321017003774387 0.042854865621897616 0 0 0
1210 4 24.32371548099342 8.4920301099869e-07 2.001210006062757 0 0 0
1218 16 26.194770517992854 1.0802546159333895 0.042854865621897026 0 0 0
1216 2 28.065825554992422 8.492030109975088e-07 2.001210006062757 0 0 0
1369 1 26.194770517993316 3.240763237044012 2.001210006062757 0 0 0
1365 18 24.323715480993783 4.321017003774387 0.042854865621897616 0 0 0
1371 14 28.065825554992784 4.321017003774387 0.04285486562189762 0 0 0
1224 20 29.936880591991855 1.0802546159333895 0.04285486562189682 0 0 0
1222 4 31.807935628991416 8.492030077764675e-07 2.001210006062757 0 0 0
1230 16 33.678990665990845 1.0802546159333892 0.04285486562189709 0 0 0
1375 3 29.936880591992317 3.2407632370440114 2.001210006062757 0 0 0
1381 1 33.678990665991314 3.240763237044012 2.0012100060627573 0 0 0
1377 18 31.807935628991782 4.321017003774388 0.042854865621895846 0 0 0
1228 2 35.55004570299042 8.492030110432406e-07 2.001210006062757 0 0 0
1236 20 37.421100739989846 1.0802546159333892 0.04285486562189713 0 0 0
1234 4 39.29215577698941 8.492030110172549e-07 2.001210006062757 0 0 0
1387 3 37.421100739990315 3.2407632370440114 2.001210006062757 0 0 0
1383 14 35.550045702990786 4.321017003774387 0.042854865621897435 0 0 0
1389 18 39.29215577698979 4.321017003774387 0.04285486562189748 0 0 0
1242 16 41.16321081398885 1.0802546159333892 0.04285486562189713 0 0 0
1240 2 43.03426585098841 8.492030110172549e-07 2.001210006062757 0 0 0
1248 20 44.90532088798785 1.0802546159333892 0.04285486562189714 0 0 0
1393 1 41.163210813989316 3.2407632370440114 2.001210006062757 0 0 0
1399 3 44.90532088798832 3.2407632370440114 2.001210006062757 0 0 0
1395 14 43.03426585098879 4.321017003774387 0.04285486562189748 0 0 0
1246 4 46.77637592498742 8.49203011207265e-07 2.001210006062757 0 0 0
1098 16 48.64743096198685 1.0802546159333897 0.04285486562189643 -1 0 0
1096 2 50.518485998986414 8.492030113071374e-07 2.001210006062757 -1 0 0
1249 1 48.64743096198732 3.24076323704401 2.001210006062757 -1 0 0
1401 18 46.77637592498779 4.321017003774387 0.042854865621897685 0 0 0
1251 14 50.51848599898678 4.321017003774387 0.04285486562189724 -1 0 0
1104 20 52.38954103598585 1.0802546159333897 0.04285486562189637 -1 0 0
1102 4 54.260596072985415 8.4920301062865e-07 2.001210006062757 -1 0 0
1110 16 56.131651109984844 1.0802546159333895 0.042854865621897074 -1 0 0
1255 3 52.38954103598631 3.2407632370440114 2.0012100060627573 -1 0 0
1261 1 56.13165110998531 3.2407632370440114 2.001210006062757 -1 0 0
1257 18 54.260596072985784 4.321017003774387 0.042854865621897685 -1 0 0
1116 20 59.873761183983845 1.0802546159333895 0.04285486562189703 -1 0 0
1108 2 58.002706146984416 8.492030110010523e-07 2.001210006062757 -1 0 0
1114 4 61.74481622098342 8.492030110270381e-07 2.001210006062757 -1 0 0
1267 3 59.873761183984314 3.2407632370440114 2.0012100060627573 -1 0 0
1263 14 58.002706146984785 4.321017003774387 0.04285486562189765 -1 0 0
1269 18 61.744816220983786 4.321017003774387 0.04285486562189771 -1 0 0
1122 16 63.615871257982846 1.0802546159333897 0.04285486562189637 -1 0 0
1120 2 65.48692629498241 8.492030116294347e-07 2.001210006062757 -1 0 0
1128 20 67.35798133198185 1.0802546159333895 0.04285486562189698 -1 0 0
1273 1 63.615871257983315 3.24076323704401 2.0012100060627573 -1 0 0
1279 3 67.35798133198232 3.240763237044012 2.001210006062757 -1 0 0
1275 14 65.48692629498278 4.321017003774387 0.04285486562189768 -1 0 0
1126 4 69.22903636898141 8.492030109632549e-07 2.001210006062757 -1 0 0
1134 16 71.10009140598085 1.0802546159333892 0.042854865621897366 -1 0 0
1132 2 72.97114644298041 8.492030074622763e-07 2.001210006062757 -1 0 0
1285 1 71.10009140598132 3.240763237044012 2.001210006062757 -1 0 0
1281 18 69.22903636898178 4.321017003774387 0.04285486562189767 -1 0 0
1287 14 72.97114644298078 4.321017003774388 0.042854865621896096 -1 0 0
1140 20 74.84220147997985 1.0802546159333892 0.04285486562189719 -1 0 0
1146 16 78.58431155397885 1.0802546159333895 0.042854865621897095 -1 0 0
1138 4 76.71325651697941 8.492030145415054e-07 2.0012100060627565 -1 0 0
1291 3 74.84220147998032 3.2407632370440114 2.001210006062757 -1 0 0
1297 1 78.58431155397932 3.240763237044012 2.0012100060627573 -1 0 0
1293 18 76.71325651697978 4.3210170037743865 0.042854865621899024 -1 0 0
1144 2 80.45536659097841 8.49203007922265e-07 2.001210006062757 -1 0 0
1152 20 82.32642162797785 1.0802546159333903 0.04285486562189591 -1 0 0
1150 4 84.19747666497742 8.492030134492437e-07 2.0012100060627565 -1 0 0
1303 3 82.32642162797832 3.240763237044011 2.001210006062757 -1 0 0
1299 14 80.45536659097878 4.321017003774388 0.04285486562189611 -1 0 0
1305 18 84.19747666497778 4.3210170037743865 0.04285486562189908 -1 0 0
1158 16 86.06853170197685 1.0802546159333883 0.042854865621898594 -1 0 0
1156 2 87.93958673897642 8.492030087629201e-07 2.001210006062757 -1 0 0
1164 20 89.81064177597585 1.0802546159333908 0.042854865621894805 -1 0 0
1309 1 86.06853170197732 3.240763237044012 2.0012100060627573 -1 0 0
1315 3 89.81064177597632 3.2407632370440114 2.001210006062757 -1 0 0
1311 14 87.93958673897679 4.321017003774387 0.042854865621896034 -1 0 0
1176 20 97.29486192397384 1.0802546159333895 0.04285486562189688 -1 0 0
1162 4 91.6816968129754 8.492030110150508e-07 2.001210006062757 -1 0 0
1170 16 93.55275184997484 1.0802546159333883 0.042854865621898525 -1 0 0
1168 2 95.4238068869744 8.492030106731021e-07 2.001210006062757 -1 0 0
1321 1 93.55275184997532 3.240763237044012 2.001210006062757 -1 0 0
1317 18 91.68169681297579 4.321017003774387 0.04285486562189757 -1 0 0
1323 14 95.42380688697479 4.321017003774387 0.04285486562189752 -1 0 0
1330 4 1.8710550369994172 6.481525624885011 2.001210006062757 0 0 0
1338 16 3.7421100739988504 7.5617793916153895 0.04285486562189779 0 0 0
1336 2 5.613165110998418 6.481525624885011 2.001210006062757 0 0 0
1483 3 3.201241803507226e-13 9.722288012726013 2.001210006062757 0 0 0
1489 1 3.742110073999319 9.722288012726011 2.001210006062757 0 0 0
1485 18 1.8710550369997878 10.802541779456389 0.04285486562189667 0 0 0
1491 14 5.613165110998785 10.802541779456389 0.04285486562189663 0 0 0
1344 20 7.484220147997851 7.561779391615389 0.042854865621897685 0 0 0
1342 4 9.355275184997419 6.481525624885011 2.001210006062757 0 0 0
1350 16 11.22633022199685 7.5617793916153895 0.04285486562189688 0 0 0
1495 3 7.484220147998317 9.722288012726013 2.0012100060627573 0 0 0
1501 1 11.22633022199732 9.722288012726011 2.0012100060627573 0 0 0
1497 18 9.355275184997787 10.802541779456389 0.04285486562189672 0 0 0
1348 2 13.097385258996418 6.481525624885011 2.0012100060627573 0 0 0
1356 20 14.96844029599585 7.561779391615389 0.04285486562189763 0 0 0
1354 4 16.83949533299542 6.481525624885011 2.0012100060627573 0 0 0
1507 3 14.968440295996317 9.722288012726011 2.001210006062757 0 0 0
1503 14 13.097385258996786 10.802541779456389 0.04285486562189652 0 0 0
1509 18 16.83949533299578 10.802541779456389 0.042854865621896505 0 0 0
1362 16 18.710550369994852 7.561779391615389 0.04285486562189763 0 0 0
1360 2 20.58160540699442 6.481525624885011 2.0012100060627573 0 0 0
1368 20 22.452660443993853 7.561779391615389 0.042854865621897636 0 0 0
1513 1 18.710550369995314 9.722288012726013 2.0012100060627573 0 0 0
1519 3 22.452660443994315 9.722288012726013 2.0012100060627573 0 0 0
1515 14 20.581605406994782 10.802541779456389 0.04285486562189671 0 0 0
1366 4 24.32371548099342 6.481525624885011 2.0012100060627573 0 0 0
1374 16 26.194770517992854 7.561779391615389 0.042854865621897636 0 0 0
1372 2 28.065825554992422 6.481525624885011 2.0012100060627573 0 0 0
1525 1 26.194770517993316 9.722288012726013 2.0012100060627573 0 0 0
1521 18 24.323715480993783 10.802541779456389 0.04285486562189671 0 0 0
1527 14 28.065825554992784 10.802541779456389 0.04285486562189674 0 0 0
1380 20 29.936880591991855 7.5617793916153895 0.042854865621897296 0 0 0
1378 4 31.807935628991416 6.481525624885008 2.001210006062757 0 0 0
1386 16 33.678990665990845 7.561779391615389 0.04285486562189768 0 0 0
1531 3 29.936880591992317 9.722288012726013 2.001210006062757 0 0 0
1537 1 33.678990665991314 9.722288012726013 2.001210006062757 0 0 0
1533 18 31.807935628991782 10.80254177945639 0.042854865621895104 0 0 0
1384 2 35.55004570299042 6.481525624885011 2.001210006062757 0 0 0
1392 20 37.421100739989846 7.5617793916153895 0.04285486562189777 0 0 0
1390 4 39.29215577698941 6.481525624885011 2.001210006062757 0 0 0
1543 3 37.421100739990315 9.722288012726013 2.001210006062757 0 0 0
1539 14 35.550045702990786 10.802541779456389 0.04285486562189687 0 0 0
1545 18 39.29215577698979 10.802541779456389 0.04285486562189687 0 0 0
1398 16 41.16321081398885 7.5617793916153895 0.04285486562189777 0 0 0
1396 2 43.03426585098841 6.481525624885011 2.001210006062757 0 0 0
1404 20 44.90532088798785 7.5617793916153895 0.04285486562189778 0 0 0
1549 1 41.163210813989316 9.722288012726013 2.001210006062757 0 0 0
1555 3 44.90532088798832 9.722288012726013 2.001210006062757 0 0 0
1551 14 43.03426585098879 10.802541779456389 0.042854865621896866 0 0 0
1402 4 46.77637592498742 6.481525624885011 2.001210006062757 0 0 0
1254 16 48.64743096198685 7.5617793916153895 0.042854865621897054 -1 0 0
1252 2 50.518485998986414 6.481525624885011 2.001210006062757 -1 0 0
1405 1 48.64743096198732 9.722288012726011 2.001210006062757 -1 0 0
1557 18 46.77637592498779 10.802541779456389 0.04285486562189696 0 0 0
1407 14 50.51848599898678 10.802541779456389 0.042854865621896346 -1 0 0
1260 20 52.38954103598585 7.561779391615389 0.04285486562189706 -1 0 0
1258 4 54.260596072985415 6.48152562488501 2.001210006062757 -1 0 0
1266 16 56.131651109984844 7.561779391615389 0.042854865621897664 -1 0 0
1411 3 52.38954103598631 9.722288012726011 2.001210006062757 -1 0 0
1417 1 56.13165110998531 9.722288012726013 2.001210006062757 -1 0 0
1413 18 54.260596072985784 10.802541779456389 0.04285486562189673 -1 0 0
1272 20 59.873761183983845 7.561779391615389 0.04285486562189764 -1 0 0
1264 2 58.002706146984416 6.481525624885011 2.0012100060627573 -1 0 0
1270 4 61.74481622098342 6.481525624885011 2.0012100060627573 -1 0 0
1423 3 59.873761183984314 9.722288012726013 2.0012100060627573 -1 0 0
1419 14 58.002706146984785 10.802541779456389 0.04285486562189669 -1 0 0
1425 18 61.744816220983786 10.802541779456389 0.04285486562189678 -1 0 0
1278 16 63.615871257982846 7.5617793916153895 0.04285486562189713 -1 0 0
1276 2 65.48692629498241 6.481525624885012 2.0012100060627573 -1 0 0
1284 20 67.35798133198185 7.561779391615389 0.04285486562189754 -1 0 0
1429 1 63.615871257983315 9.722288012726011 2.001210006062757 -1 0 0
1435 3 67.35798133198232 9.722288012726013 2.001210006062757 -1 0 0
1431 14 65.48692629498278 10.802541779456389 0.04285486562189683 -1 0 0
1282 4 69.22903636898141 6.481525624885011 2.0012100060627573 -1 0 0
1290 16 71.10009140598085 7.561779391615389 0.04285486562189784 -1 0 0
1288 2 72.97114644298041 6.481525624885008 2.001210006062757 -1 0 0
1441 1 71.10009140598132 9.722288012726013 2.001210006062757 -1 0 0
1437 18 69.22903636898178 10.802541779456389 0.04285486562189679 -1 0 0
1443 14 72.97114644298078 10.80254177945639 0.04285486562189545 -1 0 0
1296 20 74.84220147997985 7.5617793916153895 0.04285486562189778 -1 0 0
1302 16 78.58431155397885 7.561779391615389 0.04285486562189758 -1 0 0
1294 4 76.71325651697941 6.4815256248850135 2.0012100060627573 -1 0 0
1447 3 74.84220147998032 9.722288012726013 2.0012100060627573 -1 0 0
1453 1 78.58431155397932 9.722288012726013 2.001210006062757 -1 0 0
1449 18 76.71325651697978 10.802541779456387 0.04285486562189838 -1 0 0
1300 2 80.45536659097841 6.481525624885008 2.0012100060627573 -1 0 0
1308 20 82.32642162797785 7.5617793916153895 0.04285486562189637 -1 0 0
1306 4 84.19747666497742 6.481525624885013 2.0012100060627573 -1 0 0
1459 3 82.32642162797832 9.722288012726011 2.0012100060627573 -1 0 0
1455 14 80.45536659097878 10.80254177945639 0.042854865621895444 -1 0 0
1461 18 84.19747666497778 10.802541779456387 0.04285486562189842 -1 0 0
1314 16 86.06853170197685 7.561779391615388 0.04285486562189901 -1 0 0
1312 2 87.93958673897642 6.481525624885009 2.001210006062757 -1 0 0
1320 20 89.81064177597585 7.56177939161539 0.04285486562189542 -1 0 0
1465 1 86.06853170197732 9.722288012726013 2.001210006062757 -1 0 0
1471 3 89.81064177597632 9.722288012726013 2.0012100060627573 -1 0 0
1467 14 87.93958673897679 10.802541779456389 0.04285486562189537 -1 0 0
1332 20 97.29486192397384 7.561779391615389 0.042854865621897525 -1 0 0
1318 4 91.6816968129754 6.481525624885011 2.001210006062757 -1 0 0
1326 16 93.55275184997484 7.561779391615388 0.042854865621899135 -1 0 0
1324 2 95.4238068869744 6.481525624885011 2.0012100060627573 -1 0 0
1477 1 93.55275184997532 9.722288012726013 2.0012100060627573 -1 0 0
1473 18 91.68169681297579 10.802541779456389 0.042854865621896845 -1 0 0
1479 14 95.42380688697479 10.802541779456389 0.04285486562189685 -1 0 0
1486 4 1.8710550369994172 12.96305040056701 2.0012100060627573 0 0 0
1494 16 3.7421100739988504 14.043304167297386 0.04285486562189781 0 0 0
1492 2 5.613165110998418 12.96305040056701 2.0012100060627573 0 0 0
1639 3 3.2039263004025135e-13 16.203812788408012 2.0012100060627565 0 0 0
1645 1 3.742110073999319 16.203812788408012 2.001210006062757 0 0 0
1500 20 7.484220147997851 14.043304167297386 0.042854865621897734 0 0 0
1498 4 9.355275184997419 12.96305040056701 2.0012100060627573 0 0 0
1506 16 11.22633022199685 14.043304167297388 0.042854865621896915 0 0 0
1651 3 7.484220147998317 16.203812788408012 2.001210006062757 0 0 0
1657 1 11.22633022199732 16.203812788408012 2.001210006062757 0 0 0
1504 2 13.097385258996418 12.96305040056701 2.0012100060627573 0 0 0
1512 20 14.96844029599585 14.043304167297386 0.04285486562189772 0 0 0
1510 4 16.83949533299542 12.96305040056701 2.0012100060627573 0 0 0
1663 3 14.968440295996317 16.203812788408012 2.001210006062757 0 0 0
1518 16 18.710550369994852 14.043304167297386 0.042854865621897636 0 0 0
1516 2 20.58160540699442 12.96305040056701 2.0012100060627573 0 0 0
1524 20 22.452660443993853 14.043304167297386 0.04285486562189764 0 0 0
1669 1 18.710550369995314 16.203812788408012 2.001210006062757 0 0 0
1675 3 22.452660443994315 16.203812788408012 2.001210006062757 0 0 0
1522 4 24.32371548099342 12.96305040056701 2.0012100060627573 0 0 0
1530 16 26.194770517992854 14.043304167297386 0.04285486562189764 0 0 0
1528 2 28.065825554992422 12.96305040056701 2.0012100060627573 0 0 0
1681 1 26.194770517993316 16.203812788408012 2.001210006062757 0 0 0
1536 20 29.936880591991855 14.043304167297386 0.04285486562189726 0 0 0
1534 4 31.807935628991416 12.963050400567008 2.0012100060627573 0 0 0
1542 16 33.678990665990845 14.043304167297386 0.042854865621897664 0 0 0
1687 3 29.936880591992317 16.203812788408012 2.001210006062757 0 0 0
1693 1 33.678990665991314 16.203812788408012 2.001210006062757 0 0 0
1540 2 35.55004570299042 12.96305040056701 2.0012100060627573 0 0 0
1548 20 37.421100739989846 14.043304167297386 0.04285486562189771 0 0 0
1546 4 39.29215577698941 12.96305040056701 2.0012100060627573 0 0 0
1699 3 37.421100739990315 16.203812788408012 2.001210006062757 0 0 0
1554 16 41.16321081398885 14.043304167297386 0.04285486562189771 0 0 0
1552 2 43.03426585098841 12.96305040056701 2.0012100060627573 0 0 0
1560 20 44.90532088798785 14.043304167297386 0.04285486562189773 0 0 0
1705 1 41.163210813989316 16.203812788408012 2.001210006062757 0 0 0
1711 3 44.90532088798832 16.203812788408012 2.001210006062757 0 0 0
1558 4 46.77637592498742 12.96305040056701 2.0012100060627573 0 0 0
1410 16 48.64743096198685 14.043304167297388 0.0428548656218969 -1 0 0
1408 2 50.518485998986414 12.963050400567012 2.001210006062757 -1 0 0
1561 1 48.64743096198732 16.20381278840801 2.001210006062757 -1 0 0
1416 20 52.38954103598585 14.043304167297388 0.04285486562189708 -1 0 0
1414 4 54.260596072985415 12.96305040056701 2.001210006062757 -1 0 0
1422 16 56.131651109984844 14.043304167297386 0.04285486562189768 -1 0 0
1567 3 52.38954103598632 16.203812788408012 2.001210006062757 -1 0 0
1573 1 56.13165110998532 16.203812788408012 2.001210006062757 -1 0 0
1428 20 59.873761183983845 14.043304167297386 0.04285486562189765 -1 0 0
1420 2 58.002706146984416 12.96305040056701 2.001210006062757 -1 0 0
1426 4 61.74481622098342 12.96305040056701 2.0012100060627573 -1 0 0
1579 3 59.87376118398432 16.203812788408012 2.001210006062757 -1 0 0
1434 16 63.615871257982846 14.043304167297386 0.04285486562189716 -1 0 0
1432 2 65.48692629498241 12.963050400567012 2.0012100060627573 -1 0 0
1440 20 67.35798133198185 14.043304167297386 0.042854865621897664 -1 0 0
1585 1 63.615871257983315 16.203812788408012 2.001210006062757 -1 0 0
1591 3 67.35798133198232 16.203812788408012 2.001210006062757 -1 0 0
1438 4 69.22903636898141 12.96305040056701 2.0012100060627573 -1 0 0
1446 16 71.10009140598085 14.043304167297386 0.042854865621897865 -1 0 0
1444 2 72.97114644298041 12.963050400567008 2.0012100060627573 -1 0 0
1597 1 71.10009140598132 16.203812788408012 2.001210006062757 -1 0 0
1452 20 74.84220147997985 14.043304167297386 0.042854865621897754 -1 0 0
1458 16 78.58431155397885 14.043304167297386 0.04285486562189762 -1 0 0
1450 4 76.71325651697941 12.963050400567013 2.001210006062757 -1 0 0
1603 3 74.84220147998032 16.203812788408012 2.0012100060627573 -1 0 0
1609 1 78.58431155397932 16.203812788408012 2.0012100060627573 -1 0 0
1456 2 80.45536659097841 12.963050400567008 2.001210006062757 -1 0 0
1464 20 82.32642162797785 14.043304167297388 0.04285486562189626 -1 0 0
1462 4 84.19747666497742 12.963050400567013 2.001210006062757 -1 0 0
1615 3 82.32642162797832 16.203812788408012 2.0012100060627573 -1 0 0
1470 16 86.06853170197685 14.043304167297386 0.042854865621898865 -1 0 0
1468 2 87.93958673897642 12.96305040056701 2.001210006062757 -1 0 0
1476 20 89.81064177597585 14.043304167297388 0.04285486562189531 -1 0 0
1621 1 86.06853170197732 16.203812788408012 2.0012100060627573 -1 0 0
1627 3 89.81064177597632 16.203812788408012 2.001210006062757 -1 0 0
1488 20 97.29486192397384 14.043304167297388 0.04285486562189747 -1 0 0
1474 4 91.6816968129754 12.96305040056701 2.001210006062757 -1 0 0
1482 16 93.55275184997484 14.043304167297386 0.042854865621899066 -1 0 0
1480 2 95.4238068869744 12.96305040056701 2.001210006062757 -1 0 0
1633 1 93.55275184997532 16.203812788408012 2.001210006062757 -1 0 0
1641 18 1.8710550369997876 17.28406655513839 0.04285486562189748 0 0 0
1647 14 5.613165110998785 17.28406655513839 0.04285486562189742 0 0 0
1642 4 1.8710550369994172 19.44457517624901 2.0012100060627573 0 0 0
1650 16 3.7421100739988504 20.524828942979386 0.042854865621897324 0 0 0
1648 2 5.613165110998418 19.44457517624901 2.0012100060627573 0 0 0
1795 3 3.200767096857329e-13 22.68533756409001 2.001210006062757 0 0 0
1801 1 3.742110073999319 22.685337564090005 2.001210006062757 0 0 0
1653 18 9.355275184997787 17.28406655513839 0.042854865621897685 0 0 0
1656 20 7.484220147997852 20.524828942979386 0.042854865621897505 0 0 0
1654 4 9.355275184997419 19.44457517624901 2.0012100060627573 0 0 0
1662 16 11.22633022199685 20.524828942979386 0.04285486562189675 0 0 0
1807 3 7.484220147998317 22.68533756409001 2.001210006062757 0 0 0
1813 1 11.22633022199732 22.68533756409001 2.0012100060627573 0 0 0
1659 14 13.097385258996786 17.28406655513839 0.04285486562189749 0 0 0
1665 18 16.83949533299578 17.28406655513839 0.042854865621897165 0 0 0
1660 2 13.097385258996418 19.44457517624901 2.0012100060627573 0 0 0
1668 20 14.96844029599585 20.524828942979383 0.04285486562189736 0 0 0
1666 4 16.83949533299542 19.44457517624901 2.0012100060627573 0 0 0
1819 3 14.968440295996317 22.685337564090005 2.001210006062757 0 0 0
1671 14 20.581605406994782 17.28406655513839 0.042854865621897546 0 0 0
1674 16 18.710550369994852 20.524828942979386 0.04285486562189759 0 0 0
1672 2 20.58160540699442 19.44457517624901 2.0012100060627573 0 0 0
1680 20 22.452660443993853 20.524828942979386 0.0428548656218976 0 0 0
1825 1 18.710550369995314 22.68533756409001 2.001210006062757 0 0 0
1831 3 22.452660443994315 22.68533756409001 2.001210006062757 0 0 0
1677 18 24.323715480993783 17.28406655513839 0.042854865621897546 0 0 0
1683 14 28.065825554992784 17.28406655513839 0.04285486562189757 0 0 0
1678 4 24.32371548099342 19.44457517624901 2.0012100060627573 0 0 0
1686 16 26.194770517992854 20.524828942979386 0.0428548656218976 0 0 0
1684 2 28.065825554992422 19.44457517624901 2.0012100060627573 0 0 0
1837 1 26.194770517993316 22.68533756409001 2.001210006062757 0 0 0
1689 18 31.807935628991782 17.28406655513839 0.04285486562189602 0 0 0
1692 20 29.936880591991855 20.524828942979386 0.04285486562189715 0 0 0
1690 4 31.807935628991416 19.44457517624901 2.0012100060627573 0 0 0
1698 16 33.678990665990845 20.524828942979386 0.04285486562189743 0 0 0
1843 3 29.936880591992317 22.68533756409001 2.001210006062757 0 0 0
1849 1 33.678990665991314 22.68533756409001 2.001210006062757 0 0 0
1695 14 35.550045702990786 17.28406655513839 0.04285486562189754 0 0 0
1701 18 39.29215577698979 17.28406655513839 0.04285486562189753 0 0 0
1696 2 35.55004570299042 19.44457517624901 2.001210006062758 0 0 0
1704 20 37.421100739989846 20.524828942979386 0.04285486562189754 0 0 0
1702 4 39.29215577698941 19.44457517624901 2.001210006062758 0 0 0
1855 3 37.421100739990315 22.68533756409001 2.001210006062757 0 0 0
1707 14 43.03426585098879 17.28406655513839 0.04285486562189753 0 0 0
1710 16 41.16321081398885 20.524828942979386 0.04285486562189754 0 0 0
1708 2 43.03426585098841 19.44457517624901 2.001210006062758 0 0 0
1716 20 44.90532088798785 20.524828942979386 0.04285486562189756 0 0 0
1861 1 41.163210813989316 22.68533756409001 2.001210006062757 0 0 0
1867 3 44.90532088798832 22.68533756409001 2.001210006062757 0 0 0
1713 18 46.77637592498779 17.28406655513839 0.04285486562189787 0 0 0
1563 14 50.51848599898678 17.28406655513839 0.042854865621897734 -1 0 0
1714 4 46.77637592498742 19.44457517624901 2.0012100060627573 0 0 0
1566 16 48.64743096198685 20.524828942979386 0.04285486562189672 -1 0 0
1564 2 50.518485998986414 19.44457517624901 2.001210006062757 -1 0 0
1717 1 48.64743096198732 22.685337564090005 2.001210006062758 -1 0 0
1569 18 54.260596072985784 17.28406655513839 0.04285486562189769 -1 0 0
1572 20 52.38954103598585 20.524828942979386 0.04285486562189693 -1 0 0
1570 4 54.260596072985415 19.44457517624901 2.0012100060627573 -1 0 0
1578 16 56.131651109984844 20.524828942979386 0.04285486562189766 -1 0 0
1723 3 52.38954103598631 22.68533756409001 2.0012100060627573 -1 0 0
1729 1 56.13165110998531 22.68533756409001 2.001210006062757 -1 0 0
1575 14 58.002706146984785 17.28406655513839 0.042854865621897664 -1 0 0
1581 18 61.744816220983786 17.28406655513839 0.04285486562189698 -1 0 0
1584 20 59.873761183983845 20.524828942979386 0.0428548656218976 -1 0 0
1576 2 58.002706146984416 19.44457517624901 2.0012100060627573 -1 0 0
1582 4 61.74481622098342 19.44457517624901 2.0012100060627573 -1 0 0
1735 3 59.873761183984314 22.68533756409001 2.001210006062757 -1 0 0
1587 14 65.48692629498278 17.28406655513839 0.04285486562189762 -1 0 0
1590 16 63.615871257982846 20.524828942979386 0.04285486562189671 -1 0 0
1588 2 65.48692629498241 19.44457517624901 2.0012100060627573 -1 0 0
1596 20 67.35798133198185 20.524828942979386 0.04285486562189763 -1 0 0
1741 1 63.615871257983315 22.685337564090005 2.001210006062757 -1 0 0
1747 3 67.35798133198232 22.68533756409001 2.001210006062757 -1 0 0
1593 18 69.22903636898178 17.28406655513839 0.04285486562189757 -1 0 0
1599 14 72.97114644298078 17.28406655513839 0.042854865621896276 -1 0 0
1594 4 69.22903636898141 19.44457517624901 2.0012100060627573 -1 0 0
1602 16 71.10009140598085 20.524828942979386 0.04285486562189775 -1 0 0
1600 2 72.97114644298041 19.44457517624901 2.0012100060627573 -1 0 0
1753 1 71.10009140598132 22.68533756409001 2.001210006062757 -1 0 0
1605 18 76.71325651697978 17.284066555138388 0.04285486562189919 -1 0 0
1608 20 74.84220147997985 20.524828942979386 0.04285486562189741 -1 0 0
1614 16 78.58431155397885 20.524828942979386 0.0428548656218975 -1 0 0
1606 4 76.71325651697941 19.444575176249014 2.001210006062757 -1 0 0
1759 3 74.84220147998032 22.68533756409001 2.001210006062757 -1 0 0
1765 1 78.58431155397932 22.68533756409001 2.001210006062757 -1 0 0
1611 14 80.45536659097878 17.28406655513839 0.04285486562189627 -1 0 0
1617 18 84.19747666497778 17.28406655513839 0.04285486562189924 -1 0 0
1612 2 80.45536659097841 19.44457517624901 2.001210006062757 -1 0 0
1620 20 82.32642162797785 20.524828942979386 0.042854865621895936 -1 0 0
1618 4 84.19747666497742 19.444575176249014 2.001210006062757 -1 0 0
1771 3 82.32642162797832 22.68533756409001 2.0012100060627573 -1 0 0
1623 14 87.93958673897679 17.28406655513839 0.0428548656218962 -1 0 0
1626 16 86.06853170197685 20.524828942979386 0.04285486562189872 -1 0 0
1624 2 87.93958673897642 19.44457517624901 2.001210006062757 -1 0 0
1632 20 89.81064177597585 20.52482894297939 0.04285486562189521 -1 0 0
1777 1 86.06853170197732 22.68533756409001 2.001210006062757 -1 0 0
1783 3 89.81064177597632 22.68533756409001 2.0012100060627573 -1 0 0
1644 20 97.29486192397384 20.524828942979386 0.04285486562189745 -1 0 0
1629 18 91.68169681297579 17.28406655513839 0.042854865621897546 -1 0 0
1635 14 95.42380688697479 17.28406655513839 0.04285486562189755 -1 0 0
1630 4 91.6816968129754 19.44457517624901 2.0012100060627573 -1 0 0
1638 16 93.55275184997484 20.524828942979386 0.042854865621898906 -1 0 0
1636 2 95.4238068869744 19.44457517624901 2.0012100060627573 -1 0 0
1789 1 93.55275184997532 22.68533756409001 2.001210006062757 -1 0 0
1797 18 1.871055036999788 23.765591330820385 0.04285486562189756 0 0 0
1803 14 5.613165110998785 23.765591330820385 0.04285486562189748 0 0 0
1798 4 1.8710550369994172 25.92609995193101 2.001210006062757 0 0 0
1804 2 5.613165110998418 25.92609995193101 2.001210006062757 0 0 0
1806 16 3.7421100739988504 27.006353718661387 0.04285486562189623 0 0 0
1809 18 9.355275184997787 23.765591330820385 0.042854865621897546 0 0 0
1810 4 9.355275184997419 25.92609995193101 2.001210006062757 0 0 0
1812 20 7.484220147997851 27.006353718661384 0.0428548656218963 0 0 0
1818 16 11.22633022199685 27.006353718661387 0.04285486562189544 0 0 0
1815 14 13.097385258996786 23.765591330820385 0.0428548656218974 0 0 0
1821 18 16.83949533299578 23.765591330820385 0.0428548656218976 0 0 0
1816 2 13.097385258996418 25.92609995193101 2.001210006062757 0 0 0
1822 4 16.83949533299542 25.92609995193101 2.001210006062757 0 0 0
1824 20 14.96844029599585 27.006353718661387 0.042854865621896394 0 0 0
1827 14 20.581605406994782 23.765591330820385 0.042854865621897636 0 0 0
1828 2 20.58160540699442 25.92609995193101 2.001210006062757 0 0 0
1830 16 18.710550369994852 27.006353718661384 0.04285486562189628 0 0 0
1836 20 22.452660443993853 27.006353718661384 0.04285486562189629 0 0 0
1833 18 24.323715480993783 23.765591330820385 0.042854865621897636 0 0 0
1839 14 28.065825554992784 23.765591330820385 0.04285486562189767 0 0 0
1834 4 24.32371548099342 25.92609995193101 2.001210006062757 0 0 0
1840 2 28.065825554992422 25.92609995193101 2.001210006062757 0 0 0
1842 16 26.194770517992854 27.006353718661384 0.04285486562189629 0 0 0
1845 18 31.807935628991782 23.76559133082039 0.04285486562189609 0 0 0
1846 4 31.807935628991416 25.926099951931008 2.0012100060627573 0 0 0
1848 20 29.936880591991855 27.006353718661387 0.0428548656218958 0 0 0
1854 16 33.678990665990845 27.006353718661387 0.042854865621896214 0 0 0
1851 14 35.550045702990786 23.765591330820385 0.04285486562189763 0 0 0