LAMMPS data file via write_data, version 29 Aug 2024, timestep = 2, units = metal

4680 atoms
24 atom types

0 97.294861923974 xlo xhi
0 97.22287163523 ylo yhi
-50 50 zlo zhi

Masses

1 44.955908
2 44.955908
3 44.955908
4 44.955908
5 44.955908
6 44.955908
7 44.955908
8 44.955908
9 127.6
10 127.6
11 127.6
12 127.6
13 127.6
14 127.6
15 127.6
16 127.6
17 127.6
18 127.6
19 127.6
20 127.6
21 127.6
22 127.6
23 127.6
24 127.6

Atoms # atomic

1174 4 1.8710550369994219 8.633392691755934e-07 2.0013147999302374 0 0 0
1182 12 3.7421100739988478 1.080254603770454 0.04300632618439564 0 0 0
1180 2 5.613165110998422 8.633392690648776e-07 2.0013147999302374 0 0 0
1327 3 3.260496014258279e-13 3.2407632511802706 2.0013147999302365 0 0 0
1333 1 3.7421100739993243 3.24076325118027 2.001314799930237 0 0 0
1329 14 1.8710550369997858 4.321016991611452 0.04300632618439615 0 0 0
1335 10 5.613165110998783 4.321016991611452 0.04300632618439619 0 0 0
1188 16 7.484220147997848 1.080254603770454 0.04300632618439573 0 0 0
1186 4 9.355275184997422 8.633392692144265e-07 2.0013147999302374 0 0 0
1194 12 11.226330221996848 1.0802546037704546 0.04300632618439512 0 0 0
1339 3 7.484220147998323 3.240763251180271 2.0013147999302365 0 0 0
1345 1 11.226330221997323 3.240763251180271 2.001314799930237 0 0 0
1341 14 9.355275184997783 4.321016991611452 0.04300632618439623 0 0 0
1192 2 13.097385258996422 8.63339269169282e-07 2.0013147999302374 0 0 0
1200 16 14.968440295995848 1.0802546037704541 0.043006326184395566 0 0 0
1198 4 16.839495332995423 8.633392690563471e-07 2.0013147999302374 0 0 0
1351 3 14.968440295996322 3.2407632511802698 2.001314799930237 0 0 0
1347 10 13.097385258996784 4.321016991611452 0.043006326184396176 0 0 0
1353 14 16.83949533299578 4.321016991611452 0.043006326184396176 0 0 0
1206 12 18.71055036999485 1.080254603770454 0.04300632618439575 0 0 0
1204 2 20.581605406994424 8.633392690319377e-07 2.0013147999302374 0 0 0
1212 16 22.45266044399385 1.080254603770454 0.04300632618439574 0 0 0
1357 1 18.71055036999532 3.240763251180271 2.0013147999302365 0 0 0
1363 3 22.452660443994322 3.240763251180271 2.0013147999302365 0 0 0
1359 10 20.581605406994782 4.321016991611452 0.043006326184396156 0 0 0
1210 4 24.323715480993425 8.633392690319377e-07 2.0013147999302374 0 0 0
1218 12 26.19477051799285 1.080254603770454 0.043006326184395746 0 0 0
1216 2 28.065825554992426 8.633392689964331e-07 2.0013147999302374 0 0 0
1369 1 26.194770517993323 3.240763251180271 2.0013147999302365 0 0 0
1365 14 24.323715480993783 4.321016991611452 0.043006326184396156 0 0 0
1371 10 28.065825554992784 4.321016991611452 0.04300632618439591 0 0 0
1224 16 29.93688059199185 1.0802546037704541 0.04300632618439579 0 0 0
1222 4 31.807935628991423 8.633392675305693e-07 2.0013147999302365 0 0 0
1230 12 33.678990665990845 1.0802546037704541 0.043006326184395885 0 0 0
1375 3 29.93688059199232 3.2407632511802715 2.0013147999302365 0 0 0
1381 1 33.67899066599132 3.240763251180271 2.0013147999302365 0 0 0
1377 14 31.807935628991785 4.321016991611453 0.04300632618439472 0 0 0
1228 2 35.55004570299042 8.633392691260108e-07 2.0013147999302374 0 0 0
1236 16 37.421100739989846 1.080254603770454 0.04300632618439592 0 0 0
1234 4 39.29215577698942 8.633392690993824e-07 2.0013147999302374 0 0 0
1387 3 37.42110073999032 3.240763251180271 2.001314799930237 0 0 0
1383 10 35.55004570299078 4.321016991611452 0.0430063261843962 0 0 0
1389 14 39.29215577698978 4.321016991611452 0.043006326184396156 0 0 0
1242 12 41.16321081398885 1.080254603770454 0.04300632618439592 0 0 0
1240 2 43.03426585098842 8.633392690982729e-07 2.0013147999302374 0 0 0
1248 16 44.90532088798785 1.080254603770454 0.04300632618439593 0 0 0
1393 1 41.16321081398932 3.240763251180271 2.001314799930237 0 0 0
1399 3 44.905320887988324 3.240763251180271 2.001314799930237 0 0 0
1395 10 43.03426585098878 4.321016991611452 0.043006326184396156 0 0 0
1246 4 46.77637592498742 8.633392692492769e-07 2.0013147999302374 0 0 0
1098 12 48.64743096198685 1.0802546037704546 0.04300632618439461 -1 0 0
1096 2 50.51848599898642 8.633392689220423e-07 2.0013147999302374 -1 0 0
1249 1 48.64743096198732 3.24076325118027 2.001314799930237 -1 0 0
1401 14 46.77637592498778 4.321016991611452 0.04300632618439577 0 0 0
1251 10 50.51848599898678 4.321016991611452 0.04300632618439636 -1 0 0
1104 16 52.38954103598584 1.0802546037704546 0.04300632618439507 -1 0 0
1102 4 54.260596072985415 8.633392692314149e-07 2.0013147999302374 -1 0 0
1110 12 56.131651109984844 1.080254603770454 0.04300632618439576 -1 0 0
1255 3 52.38954103598632 3.240763251180271 2.0013147999302365 -1 0 0
1261 1 56.13165110998532 3.240763251180271 2.0013147999302365 -1 0 0
1257 14 54.260596072985784 4.321016991611452 0.043006326184396225 -1 0 0
1116 16 59.873761183983845 1.080254603770454 0.04300632618439576 -1 0 0
1108 2 58.002706146984416 8.633392690408137e-07 2.0013147999302374 -1 0 0
1114 4 61.74481622098342 8.633392690574566e-07 2.0013147999302374 -1 0 0
1267 3 59.87376118398432 3.240763251180271 2.0013147999302365 -1 0 0
1263 10 58.002706146984785 4.321016991611452 0.04300632618439622 -1 0 0
1269 14 61.744816220983786 4.321016991611452 0.04300632618439633 -1 0 0
1122 12 63.615871257982846 1.0802546037704537 0.04300632618439621 -1 0 0
1120 2 65.48692629498242 8.633392695378774e-07 2.0013147999302374 -1 0 0
1128 16 67.35798133198185 1.080254603770454 0.04300632618439571 -1 0 0
1273 1 63.61587125798332 3.2407632511802698 2.001314799930237 -1 0 0
1279 3 67.35798133198232 3.240763251180271 2.0013147999302365 -1 0 0
1275 10 65.48692629498278 4.321016991611452 0.043006326184395746 -1 0 0
1126 4 69.22903636898143 8.633392690729898e-07 2.0013147999302374 -1 0 0
1134 12 71.10009140598085 1.0802546037704543 0.04300632618439504 -1 0 0
1132 2 72.97114644298041 8.633392670312867e-07 2.0013147999302365 -1 0 0
1285 1 71.10009140598132 3.2407632511802715 2.0013147999302365 -1 0 0
1281 14 69.22903636898178 4.321016991611452 0.04300632618439623 -1 0 0
1287 10 72.97114644298078 4.321016991611453 0.04300632618439476 -1 0 0
1140 16 74.84220147997983 1.080254603770454 0.04300632618439591 -1 0 0
1146 12 78.58431155397885 1.080254603770454 0.0430063261843957 -1 0 0
1138 4 76.71325651697941 8.633392725605757e-07 2.0013147999302374 -1 0 0
1291 3 74.84220147998032 3.240763251180271 2.0013147999302365 -1 0 0
1297 1 78.58431155397932 3.240763251180271 2.0013147999302365 -1 0 0
1293 14 76.71325651697978 4.32101699161145 0.04300632618439788 -1 0 0
1144 2 80.45536659097841 8.633392674135983e-07 2.0013147999302365 -1 0 0
1152 16 82.32642162797784 1.080254603770455 0.04300632618439445 -1 0 0
1150 4 84.19747666497742 8.633392715673951e-07 2.0013147999302374 -1 0 0
1303 3 82.32642162797832 3.240763251180271 2.0013147999302365 -1 0 0
1299 10 80.45536659097878 4.321016991611453 0.04300632618439469 -1 0 0
1305 14 84.19747666497778 4.321016991611451 0.04300632618439795 -1 0 0
1158 12 86.06853170197684 1.0802546037704528 0.043006326184397294 -1 0 0
1156 2 87.93958673897642 8.633392680934398e-07 2.0013147999302365 -1 0 0
1164 16 89.81064177597584 1.080254603770455 0.04300632618439459 -1 0 0
1309 1 86.06853170197732 3.2407632511802715 2.0013147999302365 -1 0 0
1315 3 89.81064177597632 3.240763251180271 2.001314799930237 -1 0 0
1311 10 87.93958673897679 4.321016991611453 0.043006326184394705 -1 0 0
1176 16 97.29486192397384 1.0802546037704546 0.04300632618439504 -1 0 0
1162 4 91.68169681297542 8.633392690082922e-07 2.0013147999302374 -1 0 0
1170 12 93.55275184997484 1.080254603770453 0.04300632618439732 -1 0 0
1168 2 95.42380688697442 8.633392688357623e-07 2.0013147999302374 -1 0 0
1321 1 93.55275184997532 3.2407632511802715 2.001314799930237 -1 0 0
1317 14 91.68169681297579 4.321016991611452 0.04300632618439625 -1 0 0
1323 10 95.42380688697479 4.321016991611452 0.04300632618439618 -1 0 0
1330 4 1.8710550369994217 6.48152563902127 2.0013147999302365 0 0 0
1338 12 3.7421100739988478 7.561779379452453 0.04300632618439642 0 0 0
1336 2 5.613165110998422 6.48152563902127 2.0013147999302365 0 0 0
1483 3 3.259930160674444e-13 9.722288026862271 2.0013147999302365 0 0 0
1489 1 3.7421100739993243 9.722288026862271 2.0013147999302365 0 0 0
1485 14 1.8710550369997858 10.802541767293453 0.04300632618439542 0 0 0
1491 10 5.613165110998783 10.802541767293453 0.04300632618439542 0 0 0
1344 16 7.484220147997848 7.561779379452453 0.043006326184396426 0 0 0
1342 4 9.355275184997422 6.48152563902127 2.0013147999302365 0 0 0
1350 12 11.226330221996848 7.561779379452454 0.04300632618439569 0 0 0
1495 3 7.484220147998323 9.722288026862271 2.001314799930237 0 0 0
1501 1 11.226330221997323 9.722288026862271 2.0013147999302365 0 0 0
1497 14 9.355275184997783 10.802541767293453 0.043006326184395545 0 0 0
1348 2 13.097385258996422 6.48152563902127 2.0013147999302365 0 0 0
1356 16 14.968440295995848 7.561779379452453 0.0430063261843963 0 0 0
1354 4 16.839495332995423 6.48152563902127 2.0013147999302365 0 0 0
1507 3 14.968440295996322 9.722288026862271 2.0013147999302365 0 0 0
1503 10 13.097385258996784 10.802541767293453 0.0430063261843956 0 0 0
1509 14 16.83949533299578 10.802541767293453 0.04300632618439552 0 0 0
1362 12 18.71055036999485 7.561779379452453 0.043006326184396315 0 0 0
1360 2 20.581605406994424 6.48152563902127 2.0013147999302365 0 0 0
1368 16 22.45266044399385 7.561779379452453 0.043006326184396315 0 0 0
1513 1 18.71055036999532 9.722288026862271 2.0013147999302365 0 0 0
1519 3 22.452660443994322 9.722288026862271 2.0013147999302365 0 0 0
1515 10 20.581605406994782 10.802541767293453 0.04300632618439555 0 0 0
1366 4 24.323715480993425 6.48152563902127 2.0013147999302365 0 0 0
1374 12 26.19477051799285 7.561779379452453 0.043006326184396315 0 0 0
1372 2 28.065825554992426 6.48152563902127 2.0013147999302365 0 0 0
1525 1 26.194770517993323 9.722288026862271 2.0013147999302365 0 0 0
1521 14 24.323715480993783 10.802541767293453 0.04300632618439555 0 0 0
1527 10 28.065825554992784 10.802541767293453 0.04300632618439526 0 0 0
1380 16 29.93688059199185 7.561779379452454 0.04300632618439646 0 0 0
1378 4 31.807935628991423 6.481525639021268 2.0013147999302365 0 0 0
1386 12 33.678990665990845 7.561779379452454 0.04300632618439663 0 0 0
1531 3 29.93688059199232 9.722288026862273 2.0013147999302365 0 0 0
1537 1 33.67899066599132 9.722288026862273 2.0013147999302365 0 0 0
1533 14 31.807935628991785 10.802541767293455 0.04300632618439391 0 0 0
1384 2 35.55004570299042 6.48152563902127 2.0013147999302365 0 0 0
1392 16 37.421100739989846 7.561779379452453 0.04300632618439653 0 0 0
1390 4 39.29215577698942 6.48152563902127 2.0013147999302365 0 0 0
1543 3 37.42110073999032 9.722288026862271 2.0013147999302365 0 0 0
1539 10 35.55004570299078 10.802541767293453 0.04300632618439554 0 0 0
1545 14 39.29215577698978 10.802541767293453 0.04300632618439555 0 0 0
1398 12 41.16321081398885 7.561779379452453 0.04300632618439653 0 0 0
1396 2 43.03426585098842 6.48152563902127 2.0013147999302365 0 0 0
1404 16 44.90532088798785 7.561779379452453 0.04300632618439654 0 0 0
1549 1 41.16321081398932 9.722288026862271 2.0013147999302365 0 0 0
1555 3 44.905320887988324 9.722288026862271 2.0013147999302365 0 0 0
1551 10 43.03426585098878 10.802541767293453 0.043006326184395545 0 0 0
1402 4 46.77637592498742 6.48152563902127 2.0013147999302365 0 0 0
1254 12 48.64743096198685 7.561779379452454 0.04300632618439522 -1 0 0
1252 2 50.51848599898642 6.48152563902127 2.001314799930237 -1 0 0
1405 1 48.64743096198732 9.722288026862271 2.0013147999302365 -1 0 0
1557 14 46.77637592498778 10.802541767293453 0.043006326184395094 0 0 0
1407 10 50.51848599898678 10.802541767293453 0.04300632618439571 -1 0 0
1260 16 52.38954103598584 7.561779379452454 0.04300632618439572 -1 0 0
1258 4 54.260596072985415 6.48152563902127 2.0013147999302365 -1 0 0
1266 12 56.131651109984844 7.561779379452453 0.04300632618439632 -1 0 0
1411 3 52.38954103598632 9.722288026862271 2.0013147999302365 -1 0 0
1417 1 56.13165110998532 9.722288026862271 2.001314799930237 -1 0 0
1413 14 54.260596072985784 10.802541767293453 0.04300632618439568 -1 0 0
1272 16 59.873761183983845 7.561779379452453 0.04300632618439632 -1 0 0
1264 2 58.002706146984416 6.48152563902127 2.0013147999302365 -1 0 0
1270 4 61.74481622098342 6.48152563902127 2.0013147999302365 -1 0 0
1423 3 59.87376118398432 9.722288026862271 2.001314799930237 -1 0 0
1419 10 58.002706146984785 10.802541767293453 0.04300632618439567 -1 0 0
1425 14 61.744816220983786 10.802541767293453 0.04300632618439575 -1 0 0
1278 12 63.615871257982846 7.561779379452453 0.043006326184396856 -1 0 0
1276 2 65.48692629498242 6.481525639021271 2.0013147999302365 -1 0 0
1284 16 67.35798133198185 7.561779379452453 0.04300632618439628 -1 0 0
1429 1 63.61587125798332 9.722288026862271 2.0013147999302365 -1 0 0
1435 3 67.35798133198232 9.722288026862271 2.0013147999302365 -1 0 0
1431 10 65.48692629498278 10.802541767293453 0.04300632618439522 -1 0 0
1282 4 69.22903636898143 6.48152563902127 2.0013147999302365 -1 0 0
1290 12 71.10009140598085 7.561779379452454 0.043006326184395725 -1 0 0
1288 2 72.97114644298041 6.481525639021267 2.0013147999302365 -1 0 0
1441 1 71.10009140598132 9.722288026862273 2.0013147999302365 -1 0 0
1437 14 69.22903636898178 10.802541767293453 0.04300632618439558 -1 0 0
1443 10 72.97114644298078 10.802541767293455 0.043006326184394005 -1 0 0
1296 16 74.84220147997983 7.561779379452453 0.04300632618439655 -1 0 0
1302 12 78.58431155397885 7.561779379452453 0.04300632618439633 -1 0 0
1294 4 76.71325651697941 6.481525639021273 2.0013147999302365 -1 0 0
1447 3 74.84220147998032 9.722288026862271 2.0013147999302365 -1 0 0
1453 1 78.58431155397932 9.722288026862271 2.0013147999302365 -1 0 0
1449 14 76.71325651697978 10.802541767293452 0.04300632618439717 -1 0 0
1300 2 80.45536659097841 6.481525639021267 2.0013147999302365 -1 0 0
1308 16 82.32642162797784 7.561779379452454 0.0430063261843951 -1 0 0
1306 4 84.19747666497742 6.481525639021272 2.0013147999302365 -1 0 0
1459 3 82.32642162797832 9.722288026862271 2.0013147999302365 -1 0 0
1455 10 80.45536659097878 10.802541767293455 0.043006326184394116 -1 0 0
1461 14 84.19747666497778 10.802541767293453 0.043006326184397245 -1 0 0
1314 12 86.06853170197684 7.561779379452453 0.0430063261843981 -1 0 0
1312 2 87.93958673897642 6.481525639021268 2.001314799930237 -1 0 0
1320 16 89.81064177597584 7.561779379452454 0.043006326184395254 -1 0 0
1465 1 86.06853170197732 9.722288026862273 2.0013147999302365 -1 0 0
1471 3 89.81064177597632 9.722288026862271 2.0013147999302365 -1 0 0
1467 10 87.93958673897679 10.802541767293455 0.04300632618439394 -1 0 0
1332 16 97.29486192397384 7.561779379452454 0.043006326184395614 -1 0 0
1318 4 91.68169681297542 6.48152563902127 2.001314799930237 -1 0 0
1326 12 93.55275184997484 7.561779379452453 0.04300632618439807 -1 0 0
1324 2 95.42380688697442 6.48152563902127 2.0013147999302365 -1 0 0
1477 1 93.55275184997532 9.722288026862273 2.001314799930237 -1 0 0
1473 14 91.68169681297579 10.802541767293453 0.04300632618439562 -1 0 0
1479 10 95.42380688697479 10.802541767293453 0.04300632618439552 -1 0 0
1486 4 1.8710550369994219 12.963050414703272 2.001314799930237 0 0 0
1494 12 3.7421100739988478 14.043304155134452 0.043006326184396294 0 0 0
1492 2 5.613165110998422 12.963050414703272 2.001314799930237 0 0 0
1639 3 3.261205039007633e-13 16.20381280254427 2.0013147999302365 0 0 0
1645 1 3.742110073999324 16.20381280254427 2.0013147999302365 0 0 0
1500 16 7.484220147997848 14.043304155134452 0.04300632618439622 0 0 0
1498 4 9.355275184997422 12.963050414703272 2.0013147999302365 0 0 0
1506 12 11.226330221996848 14.043304155134452 0.043006326184395524 0 0 0
1651 3 7.484220147998323 16.20381280254427 2.0013147999302365 0 0 0
1657 1 11.226330221997323 16.20381280254427 2.0013147999302365 0 0 0
1504 2 13.097385258996422 12.963050414703272 2.001314799930237 0 0 0
1512 16 14.968440295995848 14.043304155134452 0.04300632618439626 0 0 0
1510 4 16.839495332995423 12.963050414703272 2.001314799930237 0 0 0
1663 3 14.968440295996322 16.20381280254427 2.0013147999302365 0 0 0
1518 12 18.71055036999485 14.043304155134452 0.04300632618439634 0 0 0
1516 2 20.581605406994424 12.963050414703272 2.001314799930237 0 0 0
1524 16 22.45266044399385 14.043304155134452 0.04300632618439634 0 0 0
1669 1 18.71055036999532 16.20381280254427 2.0013147999302365 0 0 0
1675 3 22.452660443994322 16.20381280254427 2.0013147999302365 0 0 0
1522 4 24.323715480993425 12.963050414703272 2.001314799930237 0 0 0
1530 12 26.19477051799285 14.043304155134452 0.04300632618439634 0 0 0
1528 2 28.065825554992426 12.963050414703272 2.001314799930237 0 0 0
1681 1 26.194770517993323 16.20381280254427 2.0013147999302365 0 0 0
1536 16 29.93688059199185 14.043304155134452 0.04300632618439627 0 0 0
1534 4 31.807935628991423 12.963050414703268 2.001314799930237 0 0 0
1542 12 33.678990665990845 14.043304155134452 0.04300632618439636 0 0 0
1687 3 29.936880591992324 16.20381280254427 2.0013147999302365 0 0 0
1693 1 33.67899066599132 16.20381280254427 2.0013147999302365 0 0 0
1540 2 35.55004570299042 12.963050414703272 2.001314799930237 0 0 0
1548 16 37.421100739989846 14.043304155134452 0.0430063261843962 0 0 0
1546 4 39.29215577698942 12.963050414703272 2.001314799930237 0 0 0
1699 3 37.42110073999032 16.20381280254427 2.001314799930237 0 0 0
1554 12 41.16321081398885 14.043304155134452 0.0430063261843962 0 0 0
1552 2 43.03426585098842 12.963050414703272 2.001314799930237 0 0 0
1560 16 44.90532088798785 14.043304155134452 0.04300632618439621 0 0 0
1705 1 41.16321081398932 16.20381280254427 2.0013147999302365 0 0 0
1711 3 44.905320887988324 16.20381280254427 2.001314799930237 0 0 0
1558 4 46.77637592498742 12.963050414703272 2.001314799930237 0 0 0
1410 12 48.64743096198685 14.043304155134452 0.04300632618439514 -1 0 0
1408 2 50.51848599898642 12.963050414703272 2.0013147999302365 -1 0 0
1561 1 48.64743096198732 16.20381280254427 2.0013147999302365 -1 0 0
1416 16 52.38954103598584 14.043304155134452 0.043006326184395545 -1 0 0
1414 4 54.260596072985415 12.963050414703272 2.0013147999302365 -1 0 0
1422 12 56.131651109984844 14.043304155134452 0.04300632618439635 -1 0 0
1567 3 52.38954103598632 16.20381280254427 2.0013147999302365 -1 0 0
1573 1 56.13165110998532 16.20381280254427 2.0013147999302365 -1 0 0
1428 16 59.873761183983845 14.043304155134452 0.04300632618439634 -1 0 0
1420 2 58.002706146984416 12.963050414703272 2.0013147999302365 -1 0 0
1426 4 61.74481622098342 12.963050414703272 2.0013147999302365 -1 0 0
1579 3 59.87376118398432 16.20381280254427 2.0013147999302365 -1 0 0
1434 12 63.615871257982846 14.04330415513445 0.04300632618439689 -1 0 0
1432 2 65.48692629498242 12.963050414703272 2.001314799930237 -1 0 0
1440 16 67.35798133198185 14.043304155134452 0.043006326184396315 -1 0 0
1585 1 63.61587125798332 16.20381280254427 2.0013147999302365 -1 0 0
1591 3 67.35798133198232 16.20381280254427 2.001314799930237 -1 0 0
1438 4 69.22903636898143 12.963050414703272 2.001314799930237 -1 0 0
1446 12 71.10009140598085 14.043304155134452 0.04300632618439546 -1 0 0
1444 2 72.97114644298041 12.963050414703268 2.001314799930237 -1 0 0
1597 1 71.10009140598132 16.20381280254427 2.0013147999302365 -1 0 0
1452 16 74.84220147997983 14.043304155134452 0.043006326184396385 -1 0 0
1458 12 78.58431155397885 14.043304155134452 0.04300632618439632 -1 0 0
1450 4 76.71325651697941 12.963050414703273 2.0013147999302365 -1 0 0
1603 3 74.84220147998032 16.20381280254427 2.0013147999302365 -1 0 0
1609 1 78.58431155397932 16.20381280254427 2.0013147999302365 -1 0 0
1456 2 80.45536659097841 12.963050414703268 2.001314799930237 -1 0 0
1464 16 82.32642162797784 14.043304155134452 0.043006326184395025 -1 0 0
1462 4 84.19747666497742 12.963050414703272 2.0013147999302365 -1 0 0
1615 3 82.32642162797832 16.20381280254427 2.0013147999302365 -1 0 0
1470 12 86.06853170197684 14.04330415513445 0.043006326184397925 -1 0 0
1468 2 87.93958673897642 12.963050414703268 2.0013147999302365 -1 0 0
1476 16 89.81064177597584 14.043304155134452 0.04300632618439521 -1 0 0
1621 1 86.06853170197732 16.20381280254427 2.0013147999302365 -1 0 0
1627 3 89.81064177597632 16.20381280254427 2.001314799930237 -1 0 0
1488 16 97.29486192397384 14.043304155134452 0.043006326184395476 -1 0 0
1474 4 91.68169681297542 12.963050414703272 2.001314799930237 -1 0 0
1482 12 93.55275184997484 14.04330415513445 0.04300632618439777 -1 0 0
1480 2 95.42380688697442 12.96305041470327 2.0013147999302365 -1 0 0
1633 1 93.55275184997532 16.20381280254427 2.001314799930237 -1 0 0
1641 14 1.8710550369997856 17.284066542975456 0.04300632618439652 0 0 0
1647 10 5.613165110998783 17.284066542975456 0.043006326184396426 0 0 0
1642 4 1.8710550369994219 19.444575190385272 2.0013147999302365 0 0 0
1650 12 3.7421100739988478 20.52482893081645 0.04300632618439574 0 0 0
1648 2 5.613165110998422 19.444575190385272 2.0013147999302365 0 0 0
1795 3 3.2595807517078736e-13 22.68533757822627 2.0013147999302365 0 0 0
1801 1 3.7421100739993243 22.685337578226267 2.0013147999302365 0 0 0
1653 14 9.355275184997783 17.284066542975456 0.04300632618439662 0 0 0
1656 16 7.484220147997848 20.52482893081645 0.04300632618439599 0 0 0
1654 4 9.355275184997422 19.444575190385272 2.0013147999302365 0 0 0
1662 12 11.226330221996848 20.52482893081645 0.04300632618439527 0 0 0
1807 3 7.484220147998323 22.68533757822627 2.0013147999302365 0 0 0
1813 1 11.226330221997323 22.68533757822627 2.0013147999302365 0 0 0
1659 10 13.097385258996784 17.284066542975456 0.04300632618439635 0 0 0
1665 14 16.83949533299578 17.284066542975456 0.04300632618439654 0 0 0
1660 2 13.097385258996422 19.444575190385272 2.0013147999302365 0 0 0
1668 16 14.968440295995848 20.52482893081645 0.04300632618439559 0 0 0
1666 4 16.839495332995423 19.444575190385272 2.0013147999302365 0 0 0
1819 3 14.968440295996322 22.685337578226267 2.0013147999302365 0 0 0
1671 10 20.581605406994782 17.284066542975456 0.04300632618439656 0 0 0
1674 12 18.71055036999485 20.52482893081645 0.0430063261843958 0 0 0
1672 2 20.581605406994424 19.444575190385272 2.0013147999302365 0 0 0
1680 16 22.45266044399385 20.52482893081645 0.0430063261843958 0 0 0
1825 1 18.71055036999532 22.68533757822627 2.0013147999302365 0 0 0
1831 3 22.452660443994322 22.68533757822627 2.0013147999302365 0 0 0
1677 14 24.323715480993783 17.284066542975456 0.04300632618439656 0 0 0
1683 10 28.065825554992784 17.284066542975456 0.043006326184396565 0 0 0
1678 4 24.323715480993425 19.444575190385272 2.0013147999302365 0 0 0
1686 12 26.19477051799285 20.52482893081645 0.0430063261843958 0 0 0
1684 2 28.065825554992426 19.444575190385272 2.0013147999302365 0 0 0
1837 1 26.194770517993323 22.68533757822627 2.0013147999302365 0 0 0
1689 14 31.807935628991785 17.284066542975456 0.04300632618439467 0 0 0
1692 16 29.93688059199185 20.52482893081645 0.04300632618439587 0 0 0
1690 4 31.807935628991423 19.44457519038527 2.0013147999302365 0 0 0
1698 12 33.678990665990845 20.52482893081645 0.04300632618439595 0 0 0
1843 3 29.936880591992324 22.68533757822627 2.0013147999302365 0 0 0
1849 1 33.67899066599132 22.68533757822627 2.0013147999302365 0 0 0
1695 10 35.55004570299078 17.284066542975456 0.0430063261843966 0 0 0
1701 14 39.29215577698978 17.284066542975456 0.04300632618439656 0 0 0
1696 2 35.55004570299042 19.444575190385272 2.0013147999302365 0 0 0
1704 16 37.421100739989846 20.52482893081645 0.0430063261843959 0 0 0
1702 4 39.29215577698942 19.444575190385272 2.0013147999302365 0 0 0
1855 3 37.42110073999032 22.68533757822627 2.001314799930237 0 0 0
1707 10 43.03426585098878 17.284066542975456 0.043006326184396565 0 0 0
1710 12 41.16321081398885 20.52482893081645 0.0430063261843959 0 0 0
1708 2 43.03426585098842 19.444575190385272 2.0013147999302365 0 0 0
1716 16 44.90532088798785 20.52482893081645 0.04300632618439591 0 0 0
1861 1 41.16321081398932 22.68533757822627 2.001314799930237 0 0 0
1867 3 44.905320887988324 22.68533757822627 2.001314799930237 0 0 0
1713 14 46.77637592498778 17.284066542975456 0.04300632618439609 0 0 0
1563 10 50.51848599898678 17.284066542975456 0.04300632618439661 -1 0 0
1714 4 46.77637592498742 19.444575190385272 2.001314799930237 0 0 0
1566 12 48.64743096198685 20.52482893081645 0.04300632618439456 -1 0 0
1564 2 50.51848599898642 19.444575190385272 2.0013147999302365 -1 0 0
1717 1 48.64743096198732 22.685337578226267 2.0013147999302365 -1 0 0
1569 14 54.260596072985784 17.284066542975456 0.04300632618439665 -1 0 0
1572 16 52.38954103598584 20.52482893081645 0.043006326184395274 -1 0 0
1570 4 54.260596072985415 19.444575190385272 2.0013147999302365 -1 0 0
1578 12 56.131651109984844 20.52482893081645 0.0430063261843959 -1 0 0
1723 3 52.38954103598632 22.68533757822627 2.0013147999302365 -1 0 0
1729 1 56.13165110998532 22.68533757822627 2.0013147999302365 -1 0 0
1575 10 58.002706146984785 17.284066542975456 0.04300632618439664 -1 0 0
1581 14 61.744816220983786 17.284066542975456 0.043006326184396496 -1 0 0
1584 16 59.873761183983845 20.52482893081645 0.043006326184395885 -1 0 0
1576 2 58.002706146984416 19.444575190385272 2.0013147999302365 -1 0 0
1582 4 61.74481622098342 19.444575190385272 2.0013147999302365 -1 0 0
1735 3 59.87376118398432 22.68533757822627 2.0013147999302365 -1 0 0
1587 10 65.48692629498278 17.284066542975456 0.043006326184396114 -1 0 0
1590 12 63.615871257982846 20.52482893081645 0.04300632618439627 -1 0 0
1588 2 65.48692629498242 19.444575190385272 2.0013147999302365 -1 0 0
1596 16 67.35798133198185 20.52482893081645 0.04300632618439577 -1 0 0
1741 1 63.61587125798332 22.685337578226267 2.0013147999302365 -1 0 0
1747 3 67.35798133198232 22.68533757822627 2.0013147999302365 -1 0 0
1593 14 69.22903636898178 17.284066542975456 0.04300632618439656 -1 0 0
1599 10 72.97114644298078 17.284066542975456 0.04300632618439493 -1 0 0
1594 4 69.22903636898143 19.444575190385272 2.0013147999302365 -1 0 0
1602 12 71.10009140598085 20.52482893081645 0.043006326184395136 -1 0 0
1600 2 72.97114644298041 19.44457519038527 2.0013147999302365 -1 0 0
1753 1 71.10009140598132 22.68533757822627 2.0013147999302365 -1 0 0
1605 14 76.71325651697978 17.284066542975456 0.04300632618439797 -1 0 0
1608 16 74.84220147997983 20.52482893081645 0.04300632618439609 -1 0 0
1614 12 78.58431155397885 20.52482893081645 0.043006326184396065 -1 0 0
1606 4 76.71325651697941 19.444575190385276 2.001314799930237 -1 0 0
1759 3 74.84220147998032 22.68533757822627 2.0013147999302365 -1 0 0
1765 1 78.58431155397932 22.68533757822627 2.0013147999302365 -1 0 0
1611 10 80.45536659097878 17.284066542975456 0.04300632618439495 -1 0 0
1617 14 84.19747666497778 17.284066542975456 0.043006326184398036 -1 0 0
1612 2 80.45536659097841 19.44457519038527 2.0013147999302365 -1 0 0
1620 16 82.32642162797784 20.52482893081645 0.043006326184394865 -1 0 0
1618 4 84.19747666497742 19.444575190385272 2.001314799930237 -1 0 0
1771 3 82.32642162797832 22.68533757822627 2.0013147999302365 -1 0 0
1623 10 87.93958673897679 17.284066542975456 0.043006326184394886 -1 0 0
1626 12 86.06853170197684 20.524828930816447 0.04300632618439757 -1 0 0
1624 2 87.93958673897642 19.444575190385272 2.0013147999302365 -1 0 0
1632 16 89.81064177597584 20.52482893081645 0.043006326184394754 -1 0 0
1777 1 86.06853170197732 22.685337578226267 2.0013147999302365 -1 0 0
1783 3 89.81064177597632 22.68533757822627 2.0013147999302365 -1 0 0
1644 16 97.29486192397384 20.52482893081645 0.043006326184395344 -1 0 0
1629 14 91.68169681297579 17.284066542975456 0.04300632618439657 -1 0 0
1635 10 95.42380688697479 17.284066542975456 0.04300632618439658 -1 0 0
1630 4 91.68169681297542 19.444575190385272 2.0013147999302365 -1 0 0
1638 12 93.55275184997484 20.524828930816447 0.04300632618439742 -1 0 0
1636 2 95.42380688697442 19.444575190385272 2.0013147999302365 -1 0 0
1789 1 93.55275184997532 22.68533757822627 2.001314799930237 -1 0 0
1797 14 1.871055036999786 23.765591318657453 0.043006326184396766 0 0 0
1803 10 5.613165110998783 23.765591318657453 0.04300632618439661 0 0 0
1798 4 1.8710550369994219 25.926099966067273 2.0013147999302365 0 0 0
1804 2 5.613165110998422 25.926099966067273 2.0013147999302365 0 0 0
1806 12 3.7421100739988478 27.00635370649845 0.043006326184394705 0 0 0
1809 14 9.355275184997783 23.765591318657453 0.043006326184396655 0 0 0
1810 4 9.355275184997422 25.926099966067273 2.0013147999302365 0 0 0
1812 16 7.484220147997848 27.00635370649845 0.043006326184394685 0 0 0
1818 12 11.226330221996848 27.00635370649845 0.04300632618439403 0 0 0
1815 10 13.097385258996784 23.765591318657453 0.043006326184396676 0 0 0
1821 14 16.83949533299578 23.765591318657453 0.04300632618439673 0 0 0
1816 2 13.097385258996422 25.926099966067273 2.0013147999302365 0 0 0
1822 4 16.839495332995423 25.926099966067273 2.0013147999302365 0 0 0
1824 16 14.968440295995848 27.00635370649845 0.04300632618439469 0 0 0
1827 10 20.581605406994782 23.765591318657453 0.043006326184396516 0 0 0
1828 2 20.581605406994424 25.926099966067273 2.0013147999302365 0 0 0
1830 12 18.71055036999485 27.00635370649845 0.04300632618439477 0 0 0
1836 16 22.45266044399385 27.00635370649845 0.04300632618439477 0 0 0
1833 14 24.323715480993783 23.765591318657453 0.043006326184396516 0 0 0
1839 10 28.065825554992784 23.765591318657453 0.04300632618439652 0 0 0
1834 4 24.323715480993425 25.926099966067273 2.0013147999302365 0 0 0
1840 2 28.065825554992426 25.926099966067273 2.001314799930237 0 0 0
1842 12 26.19477051799285 27.00635370649845 0.04300632618439477 0 0 0
1845 14 31.807935628991785 23.765591318657453 0.04300632618439484 0 0 0
1846 4 31.807935628991423 25.92609996606727 2.001314799930237 0 0 0
1848 16 29.93688059199185 27.00635370649845 0.043006326184394685 0 0 0
1854 12 33.678990665990845 27.00635370649845 0.04300632618439463 0 0 0
1851 10 35.55004570299078 23.765591318657453 0.04300632618439661 0 0 0
1857 14 39.29215577698978 23.765591318657453 0.04300632618439657 0 0 0
1852 2 35.55004570299042 25.926099966067273 2.0013147999302365 0 0 0