LAMMPS data file via write_data, version 29 Aug 2024, timestep = 0, units = metal

3312 atoms
4 atom types

0 99.429 xlo xhi
0 100.62 ylo yhi
0 105 zlo zhi

Masses

1 12.011
2 12.011
3 32.06
4 32.06

Atoms # atomic

1704 4 1.1258999999999943 1.3974999999999937 0 0 0 0
1703 2 0 1.3974999999999937 1.466700000000003 0 0 0
1705 1 2.1614999999999966 0 0.2483000000000004 0 0 0
1707 2 4.323 1.3974999999999937 1.466700000000003 0 0 0
1708 4 5.448899999999995 1.3974999999999937 0 0 0 0
1709 1 6.484499999999997 0 0.2483000000000004 0 0 0
1711 2 8.646 1.3974999999999937 1.466700000000003 0 0 0
1712 4 9.771899999999995 1.3974999999999937 0 0 0 0
1713 1 10.807499999999997 0 0.2483000000000004 0 0 0
1715 2 12.968999999999994 1.3974999999999937 1.466700000000003 0 0 0
1716 4 14.094899999999996 1.3974999999999937 0 0 0 0
1717 1 15.13049999999999 0 0.2483000000000004 0 0 0
1719 2 17.291999999999994 1.3974999999999937 1.466700000000003 0 0 0
1721 1 19.4535 0 0.2483000000000004 0 0 0
1720 4 18.417899999999996 1.3974999999999937 0 0 0 0
1723 2 21.615000000000002 1.3974999999999937 1.466700000000003 0 0 0
1725 1 23.77649999999999 0 0.2483000000000004 0 0 0
1724 4 22.740900000000003 1.3974999999999937 0 0 0 0
1728 4 27.063899999999997 1.3974999999999937 0 0 0 0
1727 2 25.937999999999995 1.3974999999999937 1.466700000000003 0 0 0
1729 1 28.0995 0 0.2483000000000004 0 0 0
1732 4 31.386900000000004 1.3974999999999937 0 0 0 0
1731 2 30.261000000000003 1.3974999999999937 1.466700000000003 0 0 0
1733 1 32.42249999999999 0 0.2483000000000004 0 0 0
1735 2 34.583999999999996 1.3974999999999937 1.466700000000003 0 0 0
1736 4 35.7099 1.3974999999999937 0 0 0 0
1737 1 36.7455 0 0.2483000000000004 0 0 0
1739 2 38.907000000000004 1.3974999999999937 1.466700000000003 0 0 0
1740 4 40.03289999999999 1.3974999999999937 0 0 0 0
1741 1 41.06849999999999 0 0.2483000000000004 0 0 0
1743 2 43.23 1.3974999999999937 1.466700000000003 0 0 0
1744 4 44.3559 1.3974999999999937 0 0 0 0
1745 1 45.3915 0 0.2483000000000004 0 0 0
1747 2 47.553000000000004 1.3974999999999937 1.466700000000003 0 0 0
1748 4 48.67889999999999 1.3974999999999937 0 0 0 0
1657 1 49.7145 0 0.2483000000000004 -1 0 0
1659 2 51.876 1.3974999999999937 1.466700000000003 -1 0 0
1661 1 54.0375 0 0.2483000000000004 -1 0 0
1660 4 53.0019 1.3974999999999937 0 -1 0 0
1663 2 56.199 1.3974999999999937 1.466700000000003 -1 0 0
1665 1 58.3605 0 0.2483000000000004 -1 0 0
1664 4 57.3249 1.3974999999999937 0 -1 0 0
1668 4 61.6479 1.3974999999999937 0 -1 0 0
1667 2 60.522 1.3974999999999937 1.466700000000003 -1 0 0
1669 1 62.6835 0 0.2483000000000004 -1 0 0
1672 4 65.9709 1.3974999999999937 0 -1 0 0
1671 2 64.845 1.3974999999999937 1.466700000000003 -1 0 0
1673 1 67.0065 0 0.2483000000000004 -1 0 0
1675 2 69.168 1.3974999999999937 1.466700000000003 -1 0 0
1676 4 70.29390000000001 1.3974999999999937 0 -1 0 0
1677 1 71.3295 0 0.2483000000000004 -1 0 0
1679 2 73.491 1.3974999999999937 1.466700000000003 -1 0 0
1680 4 74.6169 1.3974999999999937 0 -1 0 0
1681 1 75.6525 0 0.2483000000000004 -1 0 0
1683 2 77.814 1.3974999999999937 1.466700000000003 -1 0 0
1684 4 78.9399 1.3974999999999937 0 -1 0 0
1685 1 79.9755 0 0.2483000000000004 -1 0 0
1687 2 82.137 1.3974999999999937 1.466700000000003 -1 0 0
1689 1 84.29849999999999 0 0.2483000000000004 -1 0 0
1688 4 83.2629 1.3974999999999937 0 -1 0 0
1691 2 86.46000000000001 1.3974999999999937 1.466700000000003 -1 0 0
1693 1 88.6215 0 0.2483000000000004 -1 0 0
1692 4 87.58590000000001 1.3974999999999937 0 -1 0 0
1695 2 90.783 1.3974999999999937 1.466700000000003 -1 0 0
1697 1 92.9445 0 0.2483000000000004 -1 0 0
1696 4 91.9089 1.3974999999999937 0 -1 0 0
1700 4 96.2319 1.3974999999999937 0 -1 0 0
1699 2 95.106 1.3974999999999937 1.466700000000003 -1 0 0
1701 1 97.2675 0 0.2483000000000004 -1 0 0
1797 1 2.1614999999999966 2.7949999999999946 0.2483000000000004 0 0 0
1801 1 6.484499999999997 2.7949999999999946 0.2483000000000004 0 0 0
1805 1 10.807499999999997 2.7949999999999946 0.2483000000000004 0 0 0
1809 1 15.13049999999999 2.7949999999999946 0.2483000000000004 0 0 0
1813 1 19.4535 2.7949999999999946 0.2483000000000004 0 0 0
1817 1 23.77649999999999 2.7949999999999946 0.2483000000000004 0 0 0
1821 1 28.0995 2.7949999999999946 0.2483000000000004 0 0 0
1825 1 32.42249999999999 2.7949999999999946 0.2483000000000004 0 0 0
1829 1 36.7455 2.7949999999999946 0.2483000000000004 0 0 0
1833 1 41.06849999999999 2.7949999999999946 0.2483000000000004 0 0 0
1837 1 45.3915 2.7949999999999946 0.2483000000000004 0 0 0
1749 1 49.7145 2.7949999999999946 0.2483000000000004 -1 0 0
1753 1 54.0375 2.7949999999999946 0.2483000000000004 -1 0 0
1757 1 58.3605 2.7949999999999946 0.2483000000000004 -1 0 0
1761 1 62.6835 2.7949999999999946 0.2483000000000004 -1 0 0
1765 1 67.0065 2.7949999999999946 0.2483000000000004 -1 0 0
1769 1 71.3295 2.7949999999999946 0.2483000000000004 -1 0 0
1773 1 75.6525 2.7949999999999946 0.2483000000000004 -1 0 0
1777 1 79.9755 2.7949999999999946 0.2483000000000004 -1 0 0
1781 1 84.29849999999999 2.7949999999999946 0.2483000000000004 -1 0 0
1785 1 88.6215 2.7949999999999946 0.2483000000000004 -1 0 0
1789 1 92.9445 2.7949999999999946 0.2483000000000004 -1 0 0
1793 1 97.2675 2.7949999999999946 0.2483000000000004 -1 0 0
1796 4 1.1258999999999943 4.1924999999999955 0 0 0 0
1795 2 0 4.1924999999999955 1.466700000000003 0 0 0
1799 2 4.323 4.1924999999999955 1.466700000000003 0 0 0
1800 4 5.448899999999995 4.1924999999999955 0 0 0 0
1803 2 8.646 4.1924999999999955 1.466700000000003 0 0 0
1804 4 9.771899999999995 4.1924999999999955 0 0 0 0
1807 2 12.968999999999994 4.1924999999999955 1.466700000000003 0 0 0
1808 4 14.094899999999996 4.1924999999999955 0 0 0 0
1811 2 17.291999999999994 4.1924999999999955 1.466700000000003 0 0 0
1812 4 18.417899999999996 4.1924999999999955 0 0 0 0
1815 2 21.615000000000002 4.1924999999999955 1.466700000000003 0 0 0
1816 4 22.740900000000003 4.1924999999999955 0 0 0 0
1820 4 27.063899999999997 4.1924999999999955 0 0 0 0
1819 2 25.937999999999995 4.1924999999999955 1.466700000000003 0 0 0
1824 4 31.386900000000004 4.1924999999999955 0 0 0 0
1823 2 30.261000000000003 4.1924999999999955 1.466700000000003 0 0 0
1827 2 34.583999999999996 4.1924999999999955 1.466700000000003 0 0 0
1828 4 35.7099 4.1924999999999955 0 0 0 0
1831 2 38.907000000000004 4.1924999999999955 1.466700000000003 0 0 0
1832 4 40.03289999999999 4.1924999999999955 0 0 0 0
1835 2 43.23 4.1924999999999955 1.466700000000003 0 0 0
1836 4 44.3559 4.1924999999999955 0 0 0 0
1839 2 47.553000000000004 4.1924999999999955 1.466700000000003 0 0 0
1840 4 48.67889999999999 4.1924999999999955 0 0 0 0
1751 2 51.876 4.1924999999999955 1.466700000000003 -1 0 0
1752 4 53.0019 4.1924999999999955 0 -1 0 0
1755 2 56.199 4.1924999999999955 1.466700000000003 -1 0 0
1756 4 57.3249 4.1924999999999955 0 -1 0 0
1760 4 61.6479 4.1924999999999955 0 -1 0 0
1759 2 60.522 4.1924999999999955 1.466700000000003 -1 0 0
1764 4 65.9709 4.1924999999999955 0 -1 0 0
1763 2 64.845 4.1924999999999955 1.466700000000003 -1 0 0
1767 2 69.168 4.1924999999999955 1.466700000000003 -1 0 0
1768 4 70.29390000000001 4.1924999999999955 0 -1 0 0
1771 2 73.491 4.1924999999999955 1.466700000000003 -1 0 0
1772 4 74.6169 4.1924999999999955 0 -1 0 0
1775 2 77.814 4.1924999999999955 1.466700000000003 -1 0 0
1776 4 78.9399 4.1924999999999955 0 -1 0 0
1779 2 82.137 4.1924999999999955 1.466700000000003 -1 0 0
1780 4 83.2629 4.1924999999999955 0 -1 0 0
1783 2 86.46000000000001 4.1924999999999955 1.466700000000003 -1 0 0
1784 4 87.58590000000001 4.1924999999999955 0 -1 0 0
1787 2 90.783 4.1924999999999955 1.466700000000003 -1 0 0
1788 4 91.9089 4.1924999999999955 0 -1 0 0
1792 4 96.2319 4.1924999999999955 0 -1 0 0
1791 2 95.106 4.1924999999999955 1.466700000000003 -1 0 0
1889 1 2.1614999999999966 5.589999999999996 0.2483000000000004 0 0 0
1893 1 6.484499999999997 5.589999999999996 0.2483000000000004 0 0 0
1897 1 10.807499999999997 5.589999999999996 0.2483000000000004 0 0 0
1901 1 15.13049999999999 5.589999999999996 0.2483000000000004 0 0 0
1905 1 19.4535 5.589999999999996 0.2483000000000004 0 0 0
1909 1 23.77649999999999 5.589999999999996 0.2483000000000004 0 0 0
1913 1 28.0995 5.589999999999996 0.2483000000000004 0 0 0
1917 1 32.42249999999999 5.589999999999996 0.2483000000000004 0 0 0
1921 1 36.7455 5.589999999999996 0.2483000000000004 0 0 0
1925 1 41.06849999999999 5.589999999999996 0.2483000000000004 0 0 0
1929 1 45.3915 5.589999999999996 0.2483000000000004 0 0 0
1841 1 49.7145 5.589999999999996 0.2483000000000004 -1 0 0
1845 1 54.0375 5.589999999999996 0.2483000000000004 -1 0 0
1849 1 58.3605 5.589999999999996 0.2483000000000004 -1 0 0
1853 1 62.6835 5.589999999999996 0.2483000000000004 -1 0 0
1857 1 67.0065 5.589999999999996 0.2483000000000004 -1 0 0
1861 1 71.3295 5.589999999999996 0.2483000000000004 -1 0 0
1865 1 75.6525 5.589999999999996 0.2483000000000004 -1 0 0
1869 1 79.9755 5.589999999999996 0.2483000000000004 -1 0 0
1873 1 84.29849999999999 5.589999999999996 0.2483000000000004 -1 0 0
1877 1 88.6215 5.589999999999996 0.2483000000000004 -1 0 0
1881 1 92.9445 5.589999999999996 0.2483000000000004 -1 0 0
1885 1 97.2675 5.589999999999996 0.2483000000000004 -1 0 0
1888 4 1.1258999999999943 6.987499999999997 0 0 0 0
1887 2 0 6.987499999999997 1.466700000000003 0 0 0
1891 2 4.323 6.987499999999997 1.466700000000003 0 0 0
1892 4 5.448899999999995 6.987499999999997 0 0 0 0
1895 2 8.646 6.987499999999997 1.466700000000003 0 0 0
1896 4 9.771899999999995 6.987499999999997 0 0 0 0
1899 2 12.968999999999994 6.987499999999997 1.466700000000003 0 0 0
1900 4 14.094899999999996 6.987499999999997 0 0 0 0
1903 2 17.291999999999994 6.987499999999997 1.466700000000003 0 0 0
1904 4 18.417899999999996 6.987499999999997 0 0 0 0
1907 2 21.615000000000002 6.987499999999997 1.466700000000003 0 0 0
1908 4 22.740900000000003 6.987499999999997 0 0 0 0
1912 4 27.063899999999997 6.987499999999997 0 0 0 0
1911 2 25.937999999999995 6.987499999999997 1.466700000000003 0 0 0
1916 4 31.386900000000004 6.987499999999997 0 0 0 0
1915 2 30.261000000000003 6.987499999999997 1.466700000000003 0 0 0
1919 2 34.583999999999996 6.987499999999997 1.466700000000003 0 0 0
1920 4 35.7099 6.987499999999997 0 0 0 0
1923 2 38.907000000000004 6.987499999999997 1.466700000000003 0 0 0
1924 4 40.03289999999999 6.987499999999997 0 0 0 0
1927 2 43.23 6.987499999999997 1.466700000000003 0 0 0
1928 4 44.3559 6.987499999999997 0 0 0 0
1931 2 47.553000000000004 6.987499999999997 1.466700000000003 0 0 0
1932 4 48.67889999999999 6.987499999999997 0 0 0 0
1843 2 51.876 6.987499999999997 1.466700000000003 -1 0 0
1844 4 53.0019 6.987499999999997 0 -1 0 0
1847 2 56.199 6.987499999999997 1.466700000000003 -1 0 0
1848 4 57.3249 6.987499999999997 0 -1 0 0
1852 4 61.6479 6.987499999999997 0 -1 0 0
1851 2 60.522 6.987499999999997 1.466700000000003 -1 0 0
1856 4 65.9709 6.987499999999997 0 -1 0 0
1855 2 64.845 6.987499999999997 1.466700000000003 -1 0 0
1859 2 69.168 6.987499999999997 1.466700000000003 -1 0 0
1860 4 70.29390000000001 6.987499999999997 0 -1 0 0
1863 2 73.491 6.987499999999997 1.466700000000003 -1 0 0
1864 4 74.6169 6.987499999999997 0 -1 0 0
1867 2 77.814 6.987499999999997 1.466700000000003 -1 0 0
1868 4 78.9399 6.987499999999997 0 -1 0 0
1871 2 82.137 6.987499999999997 1.466700000000003 -1 0 0
1872 4 83.2629 6.987499999999997 0 -1 0 0
1875 2 86.46000000000001 6.987499999999997 1.466700000000003 -1 0 0
1876 4 87.58590000000001 6.987499999999997 0 -1 0 0
1879 2 90.783 6.987499999999997 1.466700000000003 -1 0 0
1880 4 91.9089 6.987499999999997 0 -1 0 0
1884 4 96.2319 6.987499999999997 0 -1 0 0
1883 2 95.106 6.987499999999997 1.466700000000003 -1 0 0
1981 1 2.1614999999999966 8.384999999999998 0.2483000000000004 0 0 0
1985 1 6.484499999999997 8.384999999999998 0.2483000000000004 0 0 0
1989 1 10.807499999999997 8.384999999999998 0.2483000000000004 0 0 0
1993 1 15.13049999999999 8.384999999999998 0.2483000000000004 0 0 0
1997 1 19.4535 8.384999999999998 0.2483000000000004 0 0 0
2001 1 23.77649999999999 8.384999999999998 0.2483000000000004 0 0 0
2005 1 28.0995 8.384999999999998 0.2483000000000004 0 0 0
2009 1 32.42249999999999 8.384999999999998 0.2483000000000004 0 0 0
2013 1 36.7455 8.384999999999998 0.2483000000000004 0 0 0
2017 1 41.06849999999999 8.384999999999998 0.2483000000000004 0 0 0
2021 1 45.3915 8.384999999999998 0.2483000000000004 0 0 0
1933 1 49.7145 8.384999999999998 0.2483000000000004 -1 0 0
1937 1 54.0375 8.384999999999998 0.2483000000000004 -1 0 0
1941 1 58.3605 8.384999999999998 0.2483000000000004 -1 0 0
1945 1 62.6835 8.384999999999998 0.2483000000000004 -1 0 0
1949 1 67.0065 8.384999999999998 0.2483000000000004 -1 0 0
1953 1 71.3295 8.384999999999998 0.2483000000000004 -1 0 0
1957 1 75.6525 8.384999999999998 0.2483000000000004 -1 0 0
1961 1 79.9755 8.384999999999998 0.2483000000000004 -1 0 0
1965 1 84.29849999999999 8.384999999999998 0.2483000000000004 -1 0 0
1969 1 88.6215 8.384999999999998 0.2483000000000004 -1 0 0
1973 1 92.9445 8.384999999999998 0.2483000000000004 -1 0 0
1977 1 97.2675 8.384999999999998 0.2483000000000004 -1 0 0
1980 4 1.1258999999999943 9.782499999999999 0 0 0 0
1979 2 0 9.782499999999999 1.466700000000003 0 0 0
1983 2 4.323 9.782499999999999 1.466700000000003 0 0 0
1984 4 5.448899999999995 9.782499999999999 0 0 0 0
1987 2 8.646 9.782499999999999 1.466700000000003 0 0 0
1988 4 9.771899999999995 9.782499999999999 0 0 0 0
1991 2 12.968999999999994 9.782499999999999 1.466700000000003 0 0 0
1992 4 14.094899999999996 9.782499999999999 0 0 0 0
1995 2 17.291999999999994 9.782499999999999 1.466700000000003 0 0 0
1996 4 18.417899999999996 9.782499999999999 0 0 0 0
1999 2 21.615000000000002 9.782499999999999 1.466700000000003 0 0 0
2000 4 22.740900000000003 9.782499999999999 0 0 0 0
2004 4 27.063899999999997 9.782499999999999 0 0 0 0
2003 2 25.937999999999995 9.782499999999999 1.466700000000003 0 0 0
2008 4 31.386900000000004 9.782499999999999 0 0 0 0
2007 2 30.261000000000003 9.782499999999999 1.466700000000003 0 0 0
2011 2 34.583999999999996 9.782499999999999 1.466700000000003 0 0 0
2012 4 35.7099 9.782499999999999 0 0 0 0
2015 2 38.907000000000004 9.782499999999999 1.466700000000003 0 0 0
2016 4 40.03289999999999 9.782499999999999 0 0 0 0
2019 2 43.23 9.782499999999999 1.466700000000003 0 0 0
2020 4 44.3559 9.782499999999999 0 0 0 0
2023 2 47.553000000000004 9.782499999999999 1.466700000000003 0 0 0
2024 4 48.67889999999999 9.782499999999999 0 0 0 0
1935 2 51.876 9.782499999999999 1.466700000000003 -1 0 0
1936 4 53.0019 9.782499999999999 0 -1 0 0
1939 2 56.199 9.782499999999999 1.466700000000003 -1 0 0
1940 4 57.3249 9.782499999999999 0 -1 0 0
1944 4 61.6479 9.782499999999999 0 -1 0 0
1943 2 60.522 9.782499999999999 1.466700000000003 -1 0 0
1948 4 65.9709 9.782499999999999 0 -1 0 0
1947 2 64.845 9.782499999999999 1.466700000000003 -1 0 0
1951 2 69.168 9.782499999999999 1.466700000000003 -1 0 0
1952 4 70.29390000000001 9.782499999999999 0 -1 0 0
1955 2 73.491 9.782499999999999 1.466700000000003 -1 0 0
1956 4 74.6169 9.782499999999999 0 -1 0 0
1959 2 77.814 9.782499999999999 1.466700000000003 -1 0 0
1960 4 78.9399 9.782499999999999 0 -1 0 0
1963 2 82.137 9.782499999999999 1.466700000000003 -1 0 0
1964 4 83.2629 9.782499999999999 0 -1 0 0
1967 2 86.46000000000001 9.782499999999999 1.466700000000003 -1 0 0
1968 4 87.58590000000001 9.782499999999999 0 -1 0 0
1971 2 90.783 9.782499999999999 1.466700000000003 -1 0 0
1972 4 91.9089 9.782499999999999 0 -1 0 0
1976 4 96.2319 9.782499999999999 0 -1 0 0
1975 2 95.106 9.782499999999999 1.466700000000003 -1 0 0
2073 1 2.1614999999999966 11.18 0.2483000000000004 0 0 0
2077 1 6.484499999999997 11.18 0.2483000000000004 0 0 0
2081 1 10.807499999999997 11.18 0.2483000000000004 0 0 0
2085 1 15.13049999999999 11.18 0.2483000000000004 0 0 0
2089 1 19.4535 11.18 0.2483000000000004 0 0 0
2093 1 23.77649999999999 11.18 0.2483000000000004 0 0 0
2097 1 28.0995 11.18 0.2483000000000004 0 0 0
2101 1 32.42249999999999 11.18 0.2483000000000004 0 0 0
2105 1 36.7455 11.18 0.2483000000000004 0 0 0
2109 1 41.06849999999999 11.18 0.2483000000000004 0 0 0
2113 1 45.3915 11.18 0.2483000000000004 0 0 0
2025 1 49.7145 11.18 0.2483000000000004 -1 0 0
2029 1 54.0375 11.18 0.2483000000000004 -1 0 0
2033 1 58.3605 11.18 0.2483000000000004 -1 0 0
2037 1 62.6835 11.18 0.2483000000000004 -1 0 0
2041 1 67.0065 11.18 0.2483000000000004 -1 0 0
2045 1 71.3295 11.18 0.2483000000000004 -1 0 0
2049 1 75.6525 11.18 0.2483000000000004 -1 0 0
2053 1 79.9755 11.18 0.2483000000000004 -1 0 0
2057 1 84.29849999999999 11.18 0.2483000000000004 -1 0 0
2061 1 88.6215 11.18 0.2483000000000004 -1 0 0
2065 1 92.9445 11.18 0.2483000000000004 -1 0 0
2069 1 97.2675 11.18 0.2483000000000004 -1 0 0
2072 4 1.1258999999999943 12.577499999999993 0 0 0 0
2071 2 0 12.577499999999993 1.466700000000003 0 0 0
2075 2 4.323 12.577499999999993 1.466700000000003 0 0 0
2076 4 5.448899999999995 12.577499999999993 0 0 0 0
2079 2 8.646 12.577499999999993 1.466700000000003 0 0 0
2080 4 9.771899999999995 12.577499999999993 0 0 0 0
2083 2 12.968999999999994 12.577499999999993 1.466700000000003 0 0 0
2084 4 14.094899999999996 12.577499999999993 0 0 0 0
2087 2 17.291999999999994 12.577499999999993 1.466700000000003 0 0 0
2088 4 18.417899999999996 12.577499999999993 0 0 0 0
2091 2 21.615000000000002 12.577499999999993 1.466700000000003 0 0 0
2092 4 22.740900000000003 12.577499999999993 0 0 0 0
2096 4 27.063899999999997 12.577499999999993 0 0 0 0
2095 2 25.937999999999995 12.577499999999993 1.466700000000003 0 0 0
2100 4 31.386900000000004 12.577499999999993 0 0 0 0
2099 2 30.261000000000003 12.577499999999993 1.466700000000003 0 0 0
2103 2 34.583999999999996 12.577499999999993 1.466700000000003 0 0 0
2104 4 35.7099 12.577499999999993 0 0 0 0
2107 2 38.907000000000004 12.577499999999993 1.466700000000003 0 0 0
2108 4 40.03289999999999 12.577499999999993 0 0 0 0
2111 2 43.23 12.577499999999993 1.466700000000003 0 0 0
2112 4 44.3559 12.577499999999993 0 0 0 0
2115 2 47.553000000000004 12.577499999999993 1.466700000000003 0 0 0
2116 4 48.67889999999999 12.577499999999993 0 0 0 0
2027 2 51.876 12.577499999999993 1.466700000000003 -1 0 0
2028 4 53.0019 12.577499999999993 0 -1 0 0
2031 2 56.199 12.577499999999993 1.466700000000003 -1 0 0
2032 4 57.3249 12.577499999999993 0 -1 0 0
2036 4 61.6479 12.577499999999993 0 -1 0 0
2035 2 60.522 12.577499999999993 1.466700000000003 -1 0 0
2040 4 65.9709 12.577499999999993 0 -1 0 0
2039 2 64.845 12.577499999999993 1.466700000000003 -1 0 0
2043 2 69.168 12.577499999999993 1.466700000000003 -1 0 0
2044 4 70.29390000000001 12.577499999999993 0 -1 0 0
2047 2 73.491 12.577499999999993 1.466700000000003 -1 0 0
2048 4 74.6169 12.577499999999993 0 -1 0 0
2051 2 77.814 12.577499999999993 1.466700000000003 -1 0 0
2052 4 78.9399 12.577499999999993 0 -1 0 0
2055 2 82.137 12.577499999999993 1.466700000000003 -1 0 0
2056 4 83.2629 12.577499999999993 0 -1 0 0
2059 2 86.46000000000001 12.577499999999993 1.466700000000003 -1 0 0
2060 4 87.58590000000001 12.577499999999993 0 -1 0 0
2063 2 90.783 12.577499999999993 1.466700000000003 -1 0 0
2064 4 91.9089 12.577499999999993 0 -1 0 0
2068 4 96.2319 12.577499999999993 0 -1 0 0
2067 2 95.106 12.577499999999993 1.466700000000003 -1 0 0
2165 1 2.1614999999999966 13.975000000000001 0.2483000000000004 0 0 0
2169 1 6.484499999999997 13.975000000000001 0.2483000000000004 0 0 0
2173 1 10.807499999999997 13.975000000000001 0.2483000000000004 0 0 0
2177 1 15.13049999999999 13.975000000000001 0.2483000000000004 0 0 0
2181 1 19.4535 13.975000000000001 0.2483000000000004 0 0 0
2185 1 23.77649999999999 13.975000000000001 0.2483000000000004 0 0 0
2189 1 28.0995 13.975000000000001 0.2483000000000004 0 0 0
2193 1 32.42249999999999 13.975000000000001 0.2483000000000004 0 0 0
2197 1 36.7455 13.975000000000001 0.2483000000000004 0 0 0
2201 1 41.06849999999999 13.975000000000001 0.2483000000000004 0 0 0
2205 1 45.3915 13.975000000000001 0.2483000000000004 0 0 0
2117 1 49.7145 13.975000000000001 0.2483000000000004 -1 0 0
2121 1 54.0375 13.975000000000001 0.2483000000000004 -1 0 0
2125 1 58.3605 13.975000000000001 0.2483000000000004 -1 0 0
2129 1 62.6835 13.975000000000001 0.2483000000000004 -1 0 0
2133 1 67.0065 13.975000000000001 0.2483000000000004 -1 0 0
2137 1 71.3295 13.975000000000001 0.2483000000000004 -1 0 0
2141 1 75.6525 13.975000000000001 0.2483000000000004 -1 0 0
2145 1 79.9755 13.975000000000001 0.2483000000000004 -1 0 0
2149 1 84.29849999999999 13.975000000000001 0.2483000000000004 -1 0 0
2153 1 88.6215 13.975000000000001 0.2483000000000004 -1 0 0
2157 1 92.9445 13.975000000000001 0.2483000000000004 -1 0 0
2161 1 97.2675 13.975000000000001 0.2483000000000004 -1 0 0
2164 4 1.1258999999999943 15.372499999999995 0 0 0 0
2163 2 0 15.372499999999995 1.466700000000003 0 0 0
2167 2 4.323 15.372499999999995 1.466700000000003 0 0 0
2168 4 5.448899999999995 15.372499999999995 0 0 0 0
2171 2 8.646 15.372499999999995 1.466700000000003 0 0 0
2172 4 9.771899999999995 15.372499999999995 0 0 0 0
2175 2 12.968999999999994 15.372499999999995 1.466700000000003 0 0 0
2176 4 14.094899999999996 15.372499999999995 0 0 0 0
2179 2 17.291999999999994 15.372499999999995 1.466700000000003 0 0 0
2180 4 18.417899999999996 15.372499999999995 0 0 0 0
2183 2 21.615000000000002 15.372499999999995 1.466700000000003 0 0 0
2184 4 22.740900000000003 15.372499999999995 0 0 0 0
2188 4 27.063899999999997 15.372499999999995 0 0 0 0
2187 2 25.937999999999995 15.372499999999995 1.466700000000003 0 0 0
2192 4 31.386900000000004 15.372499999999995 0 0 0 0
2191 2 30.261000000000003 15.372499999999995 1.466700000000003 0 0 0
2195 2 34.583999999999996 15.372499999999995 1.466700000000003 0 0 0
2196 4 35.7099 15.372499999999995 0 0 0 0
2199 2 38.907000000000004 15.372499999999995 1.466700000000003 0 0 0
2200 4 40.03289999999999 15.372499999999995 0 0 0 0
2203 2 43.23 15.372499999999995 1.466700000000003 0 0 0
2204 4 44.3559 15.372499999999995 0 0 0 0
2207 2 47.553000000000004 15.372499999999995 1.466700000000003 0 0 0
2208 4 48.67889999999999 15.372499999999995 0 0 0 0
2119 2 51.876 15.372499999999995 1.466700000000003 -1 0 0
2120 4 53.0019 15.372499999999995 0 -1 0 0
2123 2 56.199 15.372499999999995 1.466700000000003 -1 0 0
2124 4 57.3249 15.372499999999995 0 -1 0 0
2128 4 61.6479 15.372499999999995 0 -1 0 0
2127 2 60.522 15.372499999999995 1.466700000000003 -1 0 0
2132 4 65.9709 15.372499999999995 0 -1 0 0
2131 2 64.845 15.372499999999995 1.466700000000003 -1 0 0
2135 2 69.168 15.372499999999995 1.466700000000003 -1 0 0
2136 4 70.29390000000001 15.372499999999995 0 -1 0 0
2139 2 73.491 15.372499999999995 1.466700000000003 -1 0 0
2140 4 74.6169 15.372499999999995 0 -1 0 0
2143 2 77.814 15.372499999999995 1.466700000000003 -1 0 0
2144 4 78.9399 15.372499999999995 0 -1 0 0
2147 2 82.137 15.372499999999995 1.466700000000003 -1 0 0
2148 4 83.2629 15.372499999999995 0 -1 0 0
2151 2 86.46000000000001 15.372499999999995 1.466700000000003 -1 0 0
2152 4 87.58590000000001 15.372499999999995 0 -1 0 0
2155 2 90.783 15.372499999999995 1.466700000000003 -1 0 0
2156 4 91.9089 15.372499999999995 0 -1 0 0
2160 4 96.2319 15.372499999999995 0 -1 0 0
2159 2 95.106 15.372499999999995 1.466700000000003 -1 0 0
2257 1 2.1614999999999966 16.770000000000003 0.2483000000000004 0 0 0
2261 1 6.484499999999997 16.770000000000003 0.2483000000000004 0 0 0
2265 1 10.807499999999997 16.770000000000003 0.2483000000000004 0 0 0
2269 1 15.13049999999999 16.770000000000003 0.2483000000000004 0 0 0
2273 1 19.4535 16.770000000000003 0.2483000000000004 0 0 0
2277 1 23.77649999999999 16.770000000000003 0.2483000000000004 0 0 0
2281 1 28.0995 16.770000000000003 0.2483000000000004 0 0 0
2285 1 32.42249999999999 16.770000000000003 0.2483000000000004 0 0 0
2289 1 36.7455 16.770000000000003 0.2483000000000004 0 0 0
2293 1 41.06849999999999 16.770000000000003 0.2483000000000004 0 0 0
2297 1 45.3915 16.770000000000003 0.2483000000000004 0 0 0
2209 1 49.7145 16.770000000000003 0.2483000000000004 -1 0 0
2213 1 54.0375 16.770000000000003 0.2483000000000004 -1 0 0
2217 1 58.3605 16.770000000000003 0.2483000000000004 -1 0 0
2221 1 62.6835 16.770000000000003 0.2483000000000004 -1 0 0
2225 1 67.0065 16.770000000000003 0.2483000000000004 -1 0 0
2229 1 71.3295 16.770000000000003 0.2483000000000004 -1 0 0
2233 1 75.6525 16.770000000000003 0.2483000000000004 -1 0 0
2237 1 79.9755 16.770000000000003 0.2483000000000004 -1 0 0
2241 1 84.29849999999999 16.770000000000003 0.2483000000000004 -1 0 0
2245 1 88.6215 16.770000000000003 0.2483000000000004 -1 0 0
2249 1 92.9445 16.770000000000003 0.2483000000000004 -1 0 0
2253 1 97.2675 16.770000000000003 0.2483000000000004 -1 0 0
2256 4 1.1258999999999943 18.167499999999997 0 0 0 0
2255 2 0 18.167499999999997 1.466700000000003 0 0 0
2259 2 4.323 18.167499999999997 1.466700000000003 0 0 0
2260 4 5.448899999999995 18.167499999999997 0 0 0 0
2263 2 8.646 18.167499999999997 1.466700000000003 0 0 0
2264 4 9.771899999999995 18.167499999999997 0 0 0 0
2267 2 12.968999999999994 18.167499999999997 1.466700000000003 0 0 0
2268 4 14.094899999999996 18.167499999999997 0 0 0 0
2271 2 17.291999999999994 18.167499999999997 1.466700000000003 0 0 0
2272 4 18.417899999999996 18.167499999999997 0 0 0 0
2275 2 21.615000000000002 18.167499999999997 1.466700000000003 0 0 0
2276 4 22.740900000000003 18.167499999999997 0 0 0 0
2280 4 27.063899999999997 18.167499999999997 0 0 0 0
2279 2 25.937999999999995 18.167499999999997 1.466700000000003 0 0 0
2284 4 31.386900000000004 18.167499999999997 0 0 0 0
2283 2 30.261000000000003 18.167499999999997 1.466700000000003 0 0 0
2287 2 34.583999999999996 18.167499999999997 1.466700000000003 0 0 0
2288 4 35.7099 18.167499999999997 0 0 0 0
2291 2 38.907000000000004 18.167499999999997 1.466700000000003 0 0 0
2292 4 40.03289999999999 18.167499999999997 0 0 0 0
2295 2 43.23 18.167499999999997 1.466700000000003 0 0 0
2296 4 44.3559 18.167499999999997 0 0 0 0
2299 2 47.553000000000004 18.167499999999997 1.466700000000003 0 0 0
2300 4 48.67889999999999 18.167499999999997 0 0 0 0
2211 2 51.876 18.167499999999997 1.466700000000003 -1 0 0
2212 4 53.0019 18.167499999999997 0 -1 0 0
2215 2 56.199 18.167499999999997 1.466700000000003 -1 0 0
2216 4 57.3249 18.167499999999997 0 -1 0 0
2220 4 61.6479 18.167499999999997 0 -1 0 0
2219 2 60.522 18.167499999999997 1.466700000000003 -1 0 0
2224 4 65.9709 18.167499999999997 0 -1 0 0
2223 2 64.845 18.167499999999997 1.466700000000003 -1 0 0
2227 2 69.168 18.167499999999997 1.466700000000003 -1 0 0
2228 4 70.29390000000001 18.167499999999997 0 -1 0 0
2231 2 73.491 18.167499999999997 1.466700000000003 -1 0 0
2232 4 74.6169 18.167499999999997 0 -1 0 0
2235 2 77.814 18.167499999999997 1.466700000000003 -1 0 0
2236 4 78.9399 18.167499999999997 0 -1 0 0
2239 2 82.137 18.167499999999997 1.466700000000003 -1 0 0
2240 4 83.2629 18.167499999999997 0 -1 0 0
2243 2 86.46000000000001 18.167499999999997 1.466700000000003 -1 0 0
2244 4 87.58590000000001 18.167499999999997 0 -1 0 0
2247 2 90.783 18.167499999999997 1.466700000000003 -1 0 0
2248 4 91.9089 18.167499999999997 0 -1 0 0
2252 4 96.2319 18.167499999999997 0 -1 0 0
2251 2 95.106 18.167499999999997 1.466700000000003 -1 0 0
2348 4 1.1258999999999943 20.9625 0 0 0 0
2347 2 0 20.9625 1.466700000000003 0 0 0
2349 1 2.1614999999999966 19.56499999999999 0.2483000000000004 0 0 0
2351 2 4.323 20.9625 1.466700000000003 0 0 0
2352 4 5.448899999999995 20.9625 0 0 0 0
2353 1 6.484499999999997 19.56499999999999 0.2483000000000004 0 0 0
2355 2 8.646 20.9625 1.466700000000003 0 0 0
2356 4 9.771899999999995 20.9625 0 0 0 0
2357 1 10.807499999999997 19.56499999999999 0.2483000000000004 0 0 0
2359 2 12.968999999999994 20.9625 1.466700000000003 0 0 0
2360 4 14.094899999999996 20.9625 0 0 0 0
2361 1 15.13049999999999 19.56499999999999 0.2483000000000004 0 0 0
2363 2 17.291999999999994 20.9625 1.466700000000003 0 0 0
2365 1 19.4535 19.56499999999999 0.2483000000000004 0 0 0
2364 4 18.417899999999996 20.9625 0 0 0 0
2367 2 21.615000000000002 20.9625 1.466700000000003 0 0 0
2369 1 23.77649999999999 19.56499999999999 0.2483000000000004 0 0 0
2368 4 22.740900000000003 20.9625 0 0 0 0
2372 4 27.063899999999997 20.9625 0 0 0 0
2371 2 25.937999999999995 20.9625 1.466700000000003 0 0 0
2373 1 28.0995 19.56499999999999 0.2483000000000004 0 0 0
2376 4 31.386900000000004 20.9625 0 0 0 0
2375 2 30.261000000000003 20.9625 1.466700000000003 0 0 0
2377 1 32.42249999999999 19.56499999999999 0.2483000000000004 0 0 0
2379 2 34.583999999999996 20.9625 1.466700000000003 0 0 0
2380 4 35.7099 20.9625 0 0 0 0
2381 1 36.7455 19.56499999999999 0.2483000000000004 0 0 0
2383 2 38.907000000000004 20.9625 1.466700000000003 0 0 0
2384 4 40.03289999999999 20.9625 0 0 0 0
2385 1 41.06849999999999 19.56499999999999 0.2483000000000004 0 0 0
2387 2 43.23 20.9625 1.466700000000003 0 0 0
2388 4 44.3559 20.9625 0 0 0 0
2389 1 45.3915 19.56499999999999 0.2483000000000004 0 0 0
2391 2 47.553000000000004 20.9625 1.466700000000003 0 0 0
2392 4 48.67889999999999 20.9625 0 0 0 0
2301 1 49.7145 19.56499999999999 0.2483000000000004 -1 0 0
2303 2 51.876 20.9625 1.466700000000003 -1 0 0
2305 1 54.0375 19.56499999999999 0.2483000000000004 -1 0 0
2304 4 53.0019 20.9625 0 -1 0 0
2307 2 56.199 20.9625 1.466700000000003 -1 0 0
2309 1 58.3605 19.56499999999999 0.2483000000000004 -1 0 0
2308 4 57.3249 20.9625 0 -1 0 0
2312 4 61.6479 20.9625 0 -1 0 0
2311 2 60.522 20.9625 1.466700000000003 -1 0 0
2313 1 62.6835 19.56499999999999 0.2483000000000004 -1 0 0
2316 4 65.9709 20.9625 0 -1 0 0
2315 2 64.845 20.9625 1.466700000000003 -1 0 0
2317 1 67.0065 19.56499999999999 0.2483000000000004 -1 0 0
2319 2 69.168 20.9625 1.466700000000003 -1 0 0
2320 4 70.29390000000001 20.9625 0 -1 0 0
2321 1 71.3295 19.56499999999999 0.2483000000000004 -1 0 0
2323 2 73.491 20.9625 1.466700000000003 -1 0 0
2324 4 74.6169 20.9625 0 -1 0 0
2325 1 75.6525 19.56499999999999 0.2483000000000004 -1 0 0
2327 2 77.814 20.9625 1.466700000000003 -1 0 0