LAMMPS data file via write_data, version 29 Aug 2024, timestep = 2, units = metal

9936 atoms
12 atom types

0 99.429 xlo xhi
0 100.62 ylo yhi
-50 115.67570069836194 zlo zhi

Masses

1 12.011
2 12.011
3 12.011
4 12.011
5 12.011
6 12.011
7 32.06
8 32.06
9 32.06
10 32.06
11 32.06
12 32.06

Atoms # atomic

1704 8 1.1261491366966647 1.3974999999999957 0.003116859753048574 0 0 0
1705 1 2.1605420067461782 0 0.24929341207059472 0 0 0
1708 8 5.449149136696665 1.3974999999999957 0.003116859753048628 0 0 0
1797 1 2.1605420067461787 2.794999999999995 0.24929341207059472 0 0 0
1796 8 1.1261491366966658 4.1924999999999955 0.0031168597530493005 0 0 0
1800 8 5.449149136696666 4.1924999999999955 0.0031168597530493725 0 0 0
1889 1 2.1605420067461787 5.589999999999996 0.24929341207059463 0 0 0
1709 1 6.483542006746179 0 0.24929341207059463 0 0 0
1712 8 9.772149136696665 1.3974999999999957 0.003116859753048305 0 0 0
1713 1 10.806542006746177 0 0.24929341207059424 0 0 0
1801 1 6.483542006746179 2.794999999999995 0.2492934120705947 0 0 0
1805 1 10.806542006746177 2.794999999999995 0.24929341207059424 0 0 0
1804 8 9.772149136696667 4.1924999999999955 0.0031168597530492675 0 0 0
1893 1 6.483542006746179 5.589999999999996 0.24929341207059477 0 0 0
1897 1 10.806542006746179 5.589999999999996 0.24929341207059405 0 0 0
1716 8 14.095149136696662 1.3974999999999957 0.00311685975304759 0 0 0
1717 1 15.129542006746174 0 0.2492934120705947 0 0 0
1809 1 15.129542006746176 2.794999999999995 0.2492934120705948 0 0 0
1808 8 14.095149136696664 4.1924999999999955 0.003116859753048466 0 0 0
1901 1 15.129542006746176 5.589999999999996 0.24929341207059452 0 0 0
1721 1 19.452542006746178 0 0.24929341207059497 0 0 0
1720 8 18.418149136696666 1.397499999999996 0.003116859753050212 0 0 0
1724 8 22.741149136696666 1.3974999999999957 0.003116859753047994 0 0 0
1813 1 19.452542006746178 2.7949999999999955 0.249293412070595 0 0 0
1812 8 18.418149136696666 4.1924999999999955 0.0031168597530506293 0 0 0
1816 8 22.741149136696666 4.1924999999999955 0.0031168597530489266 0 0 0
1905 1 19.452542006746178 5.589999999999996 0.2492934120705951 0 0 0
1725 1 23.77554200674618 0 0.24929341207059316 0 0 0
1728 8 27.064149136696667 1.397499999999996 0.0031168597530502155 0 0 0
1729 1 28.09854200674618 0 0.24929341207059497 0 0 0
1817 1 23.77554200674618 2.7949999999999955 0.2492934120705933 0 0 0
1821 1 28.09854200674618 2.7949999999999955 0.249293412070595 0 0 0
1820 8 27.064149136696667 4.1924999999999955 0.0031168597530505616 0 0 0
1909 1 23.77554200674618 5.589999999999996 0.2492934120705934 0 0 0
1913 1 28.09854200674618 5.589999999999996 0.2492934120705951 0 0 0
1732 8 31.387149136696667 1.3974999999999957 0.003116859753047996 0 0 0
1733 1 32.42154200674618 0 0.2492934120705932 0 0 0
1825 1 32.42154200674618 2.7949999999999955 0.2492934120705933 0 0 0
1824 8 31.387149136696667 4.1924999999999955 0.0031168597530489292 0 0 0
1917 1 32.42154200674618 5.589999999999996 0.24929341207059344 0 0 0
1736 8 35.710149136696664 1.3974999999999957 0.0031168597530498573 0 0 0
1737 1 36.74454200674618 0 0.24929341207059613 0 0 0
1740 8 40.03314913669666 1.3974999999999957 0.0031168597530463107 0 0 0
1829 1 36.74454200674618 2.794999999999995 0.24929341207059627 0 0 0
1828 8 35.710149136696664 4.1924999999999955 0.0031168597530502064 0 0 0
1832 8 40.033149136696665 4.1924999999999955 0.003116859753048342 0 0 0
1921 1 36.74454200674618 5.589999999999996 0.2492934120705964 0 0 0
1741 1 41.06754200674617 0 0.24929341207059513 0 0 0
1744 8 44.356149136696665 1.3974999999999957 0.003116859753049866 0 0 0
1745 1 45.39054200674618 0 0.2492934120705961 0 0 0
1833 1 41.06754200674617 2.7949999999999946 0.24929341207059533 0 0 0
1837 1 45.39054200674618 2.794999999999995 0.24929341207059627 0 0 0
1836 8 44.356149136696665 4.1924999999999955 0.0031168597530501965 0 0 0
1925 1 41.06754200674618 5.589999999999996 0.24929341207059616 0 0 0
1929 1 45.39054200674618 5.589999999999996 0.2492934120705965 0 0 0
1748 8 48.67914913669667 1.3974999999999957 0.003116859753047819 0 0 0
1657 1 49.71354200674618 0 0.24929341207059336 -1 0 0
1749 1 49.71354200674618 2.7949999999999955 0.2492934120705934 -1 0 0
1840 8 48.679149136696665 4.1924999999999955 0.003116859753049507 0 0 0
1841 1 49.71354200674618 5.589999999999996 0.24929341207059358 -1 0 0
1661 1 54.03654200674618 0 0.24929341207059408 -1 0 0
1660 8 53.002149136696666 1.3974999999999957 0.0031168597530475267 -1 0 0
1665 1 58.35954200674618 0 0.24929341207059527 -1 0 0
1664 8 57.325149136696666 1.3974999999999957 0.0031168597530496513 -1 0 0
1753 1 54.03654200674618 2.7949999999999955 0.24929341207059413 -1 0 0
1757 1 58.35954200674618 2.7949999999999955 0.24929341207059544 -1 0 0
1752 8 53.002149136696666 4.1924999999999955 0.0031168597530479318 -1 0 0
1756 8 57.325149136696666 4.1924999999999955 0.003116859753050069 -1 0 0
1845 1 54.03654200674618 5.589999999999996 0.24929341207059422 -1 0 0
1849 1 58.35954200674618 5.589999999999996 0.24929341207059544 -1 0 0
1668 8 61.64814913669667 1.3974999999999957 0.00311685975304753 -1 0 0
1669 1 62.68254200674618 0 0.24929341207059397 -1 0 0
1761 1 62.68254200674618 2.7949999999999955 0.24929341207059416 -1 0 0
1760 8 61.64814913669667 4.1924999999999955 0.0031168597530479357 -1 0 0
1853 1 62.68254200674618 5.589999999999996 0.24929341207059422 -1 0 0
1672 8 65.97114913669667 1.3974999999999957 0.003116859753049728 -1 0 0
1673 1 67.00554200674618 0 0.24929341207059247 -1 0 0
1765 1 67.00554200674618 2.7949999999999937 0.2492934120705926 -1 0 0
1764 8 65.97114913669668 4.192499999999996 0.0031168597530511037 -1 0 0
1857 1 67.00554200674618 5.589999999999996 0.24929341207059394 -1 0 0
1676 8 70.29414913669667 1.3974999999999957 0.0031168597530472513 -1 0 0
1677 1 71.32854200674618 0 0.24929341207059452 -1 0 0
1680 8 74.61714913669667 1.3974999999999957 0.003116859753049706 -1 0 0
1681 1 75.65154200674618 0 0.2492934120705934 -1 0 0
1769 1 71.32854200674619 2.7949999999999955 0.24929341207059477 -1 0 0
1773 1 75.65154200674618 2.7949999999999937 0.24929341207059355 -1 0 0
1768 8 70.29414913669667 4.1924999999999955 0.0031168597530475866 -1 0 0
1772 8 74.61714913669668 4.192499999999996 0.0031168597530509797 -1 0 0
1861 1 71.32854200674619 5.589999999999996 0.24929341207059483 -1 0 0
1865 1 75.65154200674618 5.589999999999996 0.24929341207059497 -1 0 0
1684 8 78.94014913669666 1.3974999999999957 0.0031168597530466012 -1 0 0
1685 1 79.97454200674618 0 0.2492934120705922 -1 0 0
1777 1 79.97454200674618 2.7949999999999937 0.24929341207059233 -1 0 0
1776 8 78.94014913669668 4.192499999999996 0.003116859753047865 -1 0 0
1869 1 79.97454200674618 5.589999999999996 0.24929341207059363 -1 0 0
1689 1 84.29754200674618 0 0.24929341207059633 -1 0 0
1688 8 83.26314913669667 1.3974999999999957 0.0031168597530475883 -1 0 0
1692 8 87.58614913669666 1.3974999999999957 0.0031168597530502875 -1 0 0
1781 1 84.29754200674618 2.7949999999999955 0.24929341207059658 -1 0 0
1780 8 83.26314913669667 4.1924999999999955 0.003116859753047929 -1 0 0
1784 8 87.58614913669666 4.1924999999999955 0.003116859753050702 -1 0 0
1873 1 84.29754200674618 5.589999999999996 0.2492934120705966 -1 0 0
1693 1 88.62054200674618 0 0.24929341207059494 -1 0 0
1697 1 92.94354200674618 0 0.2492934120705934 -1 0 0
1696 8 91.90914913669667 1.3974999999999957 0.0031168597530497073 -1 0 0
1785 1 88.62054200674619 2.7949999999999955 0.24929341207059516 -1 0 0
1789 1 92.94354200674618 2.7949999999999937 0.24929341207059355 -1 0 0
1788 8 91.90914913669668 4.192499999999996 0.0031168597530509814 -1 0 0
1877 1 88.62054200674618 5.589999999999996 0.24929341207059524 -1 0 0
1881 1 92.94354200674618 5.589999999999996 0.24929341207059497 -1 0 0
1700 8 96.23214913669666 1.3974999999999957 0.0031168597530465865 -1 0 0
1701 1 97.26654200674618 0 0.24929341207059227 -1 0 0
1793 1 97.26654200674618 2.7949999999999937 0.24929341207059239 -1 0 0
1792 8 96.23214913669668 4.192499999999996 0.0031168597530478637 -1 0 0
1885 1 97.26654200674618 5.589999999999996 0.2492934120705937 -1 0 0
1888 8 1.1261491366966658 6.987499999999997 0.003116859753049308 0 0 0
1892 8 5.449149136696666 6.987499999999997 0.0031168597530493525 0 0 0
1981 1 2.1605420067461787 8.384999999999998 0.24929341207059466 0 0 0
1980 8 1.1261491366966658 9.782499999999999 0.0031168597530494627 0 0 0
1984 8 5.449149136696667 9.782499999999999 0.0031168597530495208 0 0 0
2073 1 2.1605420067461796 11.179999999999998 0.24929341207059458 0 0 0
1896 8 9.772149136696667 6.987499999999997 0.003116859753049329 0 0 0
1985 1 6.4835420067461795 8.384999999999998 0.24929341207059486 0 0 0
1989 1 10.806542006746179 8.384999999999998 0.24929341207059402 0 0 0
1988 8 9.772149136696667 9.782499999999999 0.003116859753049313 0 0 0
2077 1 6.48354200674618 11.179999999999998 0.24929341207059436 0 0 0
2081 1 10.806542006746179 11.179999999999998 0.24929341207059388 0 0 0
1900 8 14.095149136696664 6.987499999999997 0.0031168597530485246 0 0 0
1993 1 15.129542006746176 8.384999999999998 0.2492934120705945 0 0 0
1992 8 14.095149136696664 9.782499999999997 0.0031168597530485042 0 0 0
2085 1 15.129542006746176 11.179999999999998 0.24929341207059416 0 0 0
1904 8 18.418149136696666 6.987499999999997 0.003116859753050612 0 0 0
1908 8 22.741149136696666 6.987499999999997 0.003116859753048919 0 0 0
1997 1 19.452542006746178 8.384999999999998 0.24929341207059516 0 0 0
1996 8 18.418149136696666 9.782499999999999 0.0031168597530511124 0 0 0
2000 8 22.741149136696666 9.782499999999999 0.003116859753048949 0 0 0
2089 1 19.452542006746178 11.179999999999998 0.24929341207059474 0 0 0
1912 8 27.064149136696667 6.987499999999997 0.0031168597530505456 0 0 0
2001 1 23.77554200674618 8.384999999999998 0.24929341207059344 0 0 0
2005 1 28.09854200674618 8.384999999999998 0.24929341207059516 0 0 0
2004 8 27.064149136696667 9.782499999999999 0.0031168597530511063 0 0 0
2093 1 23.77554200674618 11.179999999999998 0.24929341207059297 0 0 0
2097 1 28.09854200674618 11.179999999999998 0.24929341207059486 0 0 0
1916 8 31.387149136696667 6.987499999999997 0.0031168597530489206 0 0 0
2009 1 32.42154200674618 8.384999999999998 0.2492934120705934 0 0 0
2008 8 31.387149136696667 9.782499999999999 0.0031168597530489926 0 0 0
2101 1 32.42154200674618 11.179999999999998 0.24929341207059363 0 0 0
1920 8 35.710149136696664 6.987499999999997 0.0031168597530501956 0 0 0
1924 8 40.033149136696665 6.987499999999997 0.0031168597530482657 0 0 0
2013 1 36.74454200674618 8.384999999999998 0.24929341207059633 0 0 0
2012 8 35.71014913669667 9.782499999999999 0.0031168597530506275 0 0 0
2016 8 40.033149136696665 9.782499999999999 0.003116859753048617 0 0 0
2105 1 36.74454200674618 11.179999999999998 0.24929341207059455 0 0 0
1928 8 44.356149136696665 6.987499999999997 0.003116859753050178 0 0 0
2017 1 41.06754200674618 8.384999999999998 0.24929341207059608 0 0 0
2021 1 45.39054200674618 8.384999999999998 0.2492934120705964 0 0 0
2020 8 44.35614913669667 9.782499999999999 0.0031168597530506137 0 0 0
2109 1 41.06754200674618 11.179999999999998 0.2492934120705943 0 0 0
2113 1 45.39054200674618 11.179999999999998 0.24929341207059466 0 0 0
1932 8 48.679149136696665 6.987499999999997 0.0031168597530494943 0 0 0
1933 1 49.71354200674618 8.384999999999998 0.24929341207059363 -1 0 0
2024 8 48.679149136696665 9.782499999999999 0.003116859753049438 0 0 0
2025 1 49.71354200674618 11.179999999999998 0.2492934120705939 -1 0 0
1844 8 53.002149136696666 6.987499999999997 0.003116859753047914 -1 0 0
1848 8 57.325149136696666 6.987499999999997 0.0031168597530500516 -1 0 0
1937 1 54.03654200674618 8.384999999999998 0.24929341207059436 -1 0 0
1941 1 58.35954200674618 8.384999999999998 0.2492934120705954 -1 0 0
1936 8 53.002149136696666 9.782499999999999 0.0031168597530490056 -1 0 0
1940 8 57.32514913669667 9.782499999999999 0.003116859753050436 -1 0 0
2029 1 54.03654200674618 11.179999999999998 0.24929341207059466 -1 0 0
2033 1 58.35954200674618 11.179999999999998 0.24929341207059363 -1 0 0
1852 8 61.64814913669667 6.987499999999997 0.003116859753047918 -1 0 0
1945 1 62.68254200674618 8.384999999999998 0.24929341207059436 -1 0 0
1944 8 61.64814913669667 9.782499999999999 0.0031168597530490004 -1 0 0
2037 1 62.68254200674618 11.179999999999998 0.2492934120705947 -1 0 0
1856 8 65.97114913669668 6.987499999999997 0.003116859753050964 -1 0 0
1949 1 67.00554200674618 8.384999999999998 0.2492934120705939 -1 0 0
1948 8 65.97114913669668 9.782499999999999 0.003116859753051003 -1 0 0
2041 1 67.00554200674618 11.179999999999998 0.24929341207059422 -1 0 0
1860 8 70.29414913669667 6.987499999999997 0.0031168597530475796 -1 0 0
1864 8 74.61714913669668 6.987499999999997 0.0031168597530508383 -1 0 0
1953 1 71.32854200674618 8.384999999999998 0.2492934120705947 -1 0 0
1957 1 75.65154200674618 8.384999999999998 0.24929341207059497 -1 0 0
1952 8 70.29414913669667 9.7825 0.0031168597530483086 -1 0 0
1956 8 74.61714913669668 9.782499999999999 0.003116859753050975 -1 0 0
2045 1 71.32854200674619 11.179999999999998 0.24929341207059094 -1 0 0
2049 1 75.65154200674618 11.179999999999998 0.24929341207059513 -1 0 0
1868 8 78.94014913669668 6.987499999999997 0.0031168597530477305 -1 0 0
1961 1 79.97454200674618 8.384999999999998 0.24929341207059363 -1 0 0
1960 8 78.94014913669668 9.782499999999999 0.0031168597530478676 -1 0 0
2053 1 79.97454200674618 11.179999999999998 0.24929341207059383 -1 0 0
1872 8 83.26314913669667 6.987499999999997 0.0031168597530479205 -1 0 0
1876 8 87.58614913669666 6.987499999999997 0.0031168597530506874 -1 0 0
1965 1 84.29754200674618 8.384999999999998 0.2492934120705965 -1 0 0
1964 8 83.26314913669667 9.7825 0.0031168597530486625 -1 0 0
1968 8 87.58614913669668 9.7825 0.00311685975305137 -1 0 0
2057 1 84.29754200674618 11.179999999999998 0.24929341207059263 -1 0 0
1880 8 91.90914913669668 6.987499999999997 0.003116859753050839 -1 0 0
1969 1 88.62054200674618 8.384999999999998 0.2492934120705951 -1 0 0
1973 1 92.94354200674618 8.384999999999998 0.24929341207059497 -1 0 0
1972 8 91.90914913669668 9.782499999999999 0.003116859753050976 -1 0 0
2061 1 88.62054200674619 11.179999999999998 0.2492934120705913 -1 0 0
2065 1 92.94354200674618 11.179999999999998 0.24929341207059513 -1 0 0
1884 8 96.23214913669668 6.987499999999997 0.003116859753047729 -1 0 0
1977 1 97.26654200674618 8.384999999999998 0.24929341207059366 -1 0 0
1976 8 96.23214913669668 9.782499999999999 0.0031168597530478563 -1 0 0
2069 1 97.26654200674618 11.179999999999998 0.24929341207059388 -1 0 0
2072 8 1.1261491366966654 12.577499999999999 0.0031168597530493673 0 0 0
2076 8 5.449149136696666 12.577499999999999 0.0031168597530495013 0 0 0
2165 1 2.1605420067461787 13.974999999999998 0.24929341207059483 0 0 0
2164 8 1.1261491366966654 15.372499999999999 0.0031168597530493764 0 0 0
2168 8 5.449149136696666 15.372499999999999 0.003116859753049615 0 0 0
2257 1 2.1605420067461787 16.769999999999996 0.24929341207059466 0 0 0
2080 8 9.772149136696667 12.577499999999999 0.0031168597530492653 0 0 0
2169 1 6.4835420067461795 13.974999999999998 0.24929341207059488 0 0 0
2173 1 10.806542006746179 13.974999999999998 0.24929341207059402 0 0 0
2172 8 9.772149136696667 15.372499999999999 0.0031168597530493664 0 0 0
2261 1 6.4835420067461795 16.769999999999996 0.24929341207059477 0 0 0
2265 1 10.806542006746179 16.769999999999996 0.24929341207059416 0 0 0
2084 8 14.095149136696664 12.577499999999999 0.003116859753048433 0 0 0
2177 1 15.129542006746176 13.974999999999998 0.2492934120705944 0 0 0
2176 8 14.095149136696662 15.372499999999999 0.003116859753048414 0 0 0
2269 1 15.129542006746174 16.769999999999996 0.24929341207059447 0 0 0
2088 8 18.418149136696666 12.577499999999999 0.0031168597530510608 0 0 0
2092 8 22.741149136696666 12.577499999999999 0.003116859753048888 0 0 0
2181 1 19.452542006746178 13.974999999999996 0.24929341207059513 0 0 0
2180 8 18.418149136696666 15.372499999999999 0.0031168597530507307 0 0 0
2184 8 22.741149136696666 15.372499999999999 0.0031168597530490134 0 0 0
2273 1 19.452542006746178 16.769999999999996 0.24929341207059472 0 0 0
2096 8 27.064149136696667 12.577499999999999 0.0031168597530510625 0 0 0
2185 1 23.77554200674618 13.974999999999996 0.2492934120705934 0 0 0
2189 1 28.09854200674618 13.974999999999996 0.24929341207059513 0 0 0
2188 8 27.064149136696667 15.372499999999999 0.00311685975305074 0 0 0
2277 1 23.77554200674618 16.769999999999996 0.2492934120705933 0 0 0
2281 1 28.09854200674618 16.769999999999996 0.2492934120705947 0 0 0
2100 8 31.387149136696667 12.577499999999999 0.0031168597530489327 0 0 0
2193 1 32.42154200674618 13.974999999999996 0.24929341207059338 0 0 0
2192 8 31.387149136696667 15.372499999999999 0.0031168597530490125 0 0 0
2285 1 32.42154200674618 16.769999999999996 0.2492934120705933 0 0 0
2104 8 35.710149136696664 12.577499999999999 0.0031168597530505655 0 0 0
2108 8 40.033149136696665 12.577499999999999 0.003116859753048574 0 0 0
2197 1 36.74454200674618 13.974999999999998 0.2492934120705963 0 0 0
2196 8 35.710149136696664 15.372499999999999 0.0031168597530503933 0 0 0
2200 8 40.033149136696665 15.372499999999999 0.0031168597530484283 0 0 0
2289 1 36.74454200674618 16.769999999999996 0.24929341207059627 0 0 0
2112 8 44.356149136696665 12.577499999999999 0.003116859753050549 0 0 0
2201 1 41.06754200674618 13.974999999999998 0.24929341207059605 0 0 0
2205 1 45.39054200674618 13.974999999999998 0.24929341207059638 0 0 0
2204 8 44.356149136696665 15.372499999999999 0.003116859753050376 0 0 0
2293 1 41.06754200674618 16.77 0.2492934120705953 0 0 0
2297 1 45.39054200674618 16.769999999999996 0.24929341207059633 0 0 0
2116 8 48.679149136696665 12.577499999999999 0.003116859753049357 0 0 0
2117 1 49.71354200674618 13.974999999999998 0.24929341207059363 -1 0 0
2208 8 48.679149136696665 15.372499999999999 0.0031168597530495867 0 0 0
2209 1 49.71354200674618 16.769999999999996 0.24929341207059338 -1 0 0
2028 8 53.002149136696666 12.577499999999999 0.003116859753048967 -1 0 0
2032 8 57.325149136696666 12.577499999999999 0.003116859753050359 -1 0 0
2121 1 54.03654200674618 13.974999999999996 0.2492934120705943 -1 0 0
2125 1 58.35954200674618 13.974999999999998 0.24929341207059535 -1 0 0
2120 8 53.002149136696666 15.372499999999999 0.003116859753048055 -1 0 0
2124 8 57.325149136696666 15.372499999999999 0.0031168597530501813 -1 0 0
2213 1 54.03654200674618 16.769999999999996 0.2492934120705941 -1 0 0
2217 1 58.35954200674618 16.769999999999996 0.2492934120705953 -1 0 0
2036 8 61.64814913669667 12.577499999999999 0.0031168597530489613 -1 0 0
2129 1 62.68254200674618 13.974999999999996 0.2492934120705943 -1 0 0
2128 8 61.64814913669667 15.372499999999999 0.0031168597530480606 -1 0 0
2221 1 62.68254200674618 16.769999999999996 0.249293412070594 -1 0 0
2040 8 65.97114913669667 12.577499999999999 0.0031168597530509376 -1 0 0
2133 1 67.00554200674618 13.974999999999996 0.24929341207059388 -1 0 0
2132 8 65.97114913669668 15.372499999999999 0.0031168597530512165 -1 0 0
2225 1 67.00554200674618 16.77 0.24929341207059263 -1 0 0
2044 8 70.29414913669667 12.577499999999997 0.003116859753048242 -1 0 0
2048 8 74.61714913669667 12.577499999999999 0.003116859753050932 -1 0 0
2137 1 71.32854200674618 13.974999999999998 0.24929341207059466 -1 0 0
2141 1 75.65154200674618 13.974999999999996 0.24929341207059488 -1 0 0
2136 8 70.29414913669667 15.372499999999999 0.003116859753047674 -1 0 0
2140 8 74.61714913669668 15.372499999999999 0.0031168597530512113 -1 0 0
2229 1 71.32854200674619 16.769999999999996 0.24929341207059474 -1 0 0
2233 1 75.65154200674618 16.77 0.2492934120705935 -1 0 0
2052 8 78.94014913669668 12.577499999999999 0.0031168597530478 -1 0 0
2145 1 79.97454200674618 13.974999999999996 0.2492934120705936 -1 0 0
2144 8 78.94014913669668 15.372499999999999 0.003116859753047975 -1 0 0
2237 1 79.97454200674618 16.77 0.2492934120705922 -1 0 0
2056 8 83.26314913669667 12.577499999999997 0.003116859753048592 -1 0 0
2060 8 87.58614913669668 12.577499999999997 0.003116859753051293 -1 0 0
2149 1 84.29754200674618 13.974999999999998 0.24929341207059647 -1 0 0
2148 8 83.26314913669667 15.372499999999999 0.0031168597530479075 -1 0 0
2152 8 87.58614913669666 15.372499999999999 0.0031168597530507763 -1 0 0
2241 1 84.29754200674618 16.769999999999996 0.2492934120705964 -1 0 0
2064 8 91.90914913669667 12.577499999999999 0.0031168597530509337 -1 0 0
2153 1 88.62054200674618 13.974999999999998 0.24929341207059508 -1 0 0
2157 1 92.94354200674618 13.974999999999996 0.24929341207059488 -1 0 0
2156 8 91.90914913669668 15.372499999999999 0.0031168597530512117 -1 0 0
2245 1 88.62054200674619 16.769999999999996 0.24929341207059513 -1 0 0
2249 1 92.94354200674618 16.77 0.2492934120705935 -1 0 0
2068 8 96.23214913669668 12.577499999999999 0.003116859753047798 -1 0 0
2161 1 97.26654200674618 13.974999999999996 0.24929341207059366 -1 0 0
2160 8 96.23214913669668 15.372499999999999 0.0031168597530479643 -1 0 0
2253 1 97.26654200674618 16.77 0.24929341207059222 -1 0 0
2256 8 1.1261491366966643 18.167499999999997 0.0031168597530478797 0 0 0
2260 8 5.449149136696665 18.167499999999997 0.003116859753048038 0 0 0
2348 8 1.1261491366966652 20.962499999999995 0.0031168597530492927 0 0 0
2349 1 2.1605420067461782 19.564999999999998 0.24929341207059463 0 0 0
2352 8 5.449149136696666 20.962499999999995 0.0031168597530495216 0 0 0
2441 1 2.1605420067461787 22.359999999999996 0.24929341207059483 0 0 0
2264 8 9.772149136696665 18.167499999999997 0.0031168597530476317 0 0 0
2353 1 6.4835420067461795 19.564999999999998 0.24929341207059472 0 0 0
2356 8 9.772149136696665 20.962499999999995 0.0031168597530492944 0 0 0
2357 1 10.806542006746177 19.564999999999998 0.24929341207059413 0 0 0
2445 1 6.4835420067461795 22.359999999999996 0.24929341207059497 0 0 0
2449 1 10.806542006746179 22.359999999999996 0.24929341207059402 0 0 0
2268 8 14.095149136696662 18.167499999999997 0.0031168597530470614 0 0 0
2360 8 14.095149136696662 20.962499999999995 0.003116859753048366 0 0 0
2361 1 15.129542006746174 19.564999999999998 0.2492934120705944 0 0 0
2453 1 15.129542006746176 22.359999999999996 0.24929341207059422 0 0 0
2272 8 18.418149136696666 18.167499999999997 0.0031168597530494783 0 0 0
2276 8 22.741149136696666 18.167499999999997 0.003116859753047494 0 0 0
2365 1 19.452542006746178 19.564999999999998 0.24929341207059463 0 0 0
2364 8 18.418149136696666 20.962499999999995 0.0031168597530506752 0 0 0
2368 8 22.741149136696666 20.962499999999995 0.0031168597530489405 0 0 0
2457 1 19.452542006746178 22.359999999999996 0.24929341207059508 0 0 0
2280 8 27.064149136696667 18.167499999999997 0.003116859753049494 0 0 0
2369 1 23.77554200674618 19.564999999999998 0.24929341207059325 0 0 0
2372 8 27.064149136696667 20.962499999999995 0.0031168597530506865 0 0 0
2373 1 28.09854200674618 19.564999999999998 0.24929341207059463 0 0 0
2461 1 23.77554200674618 22.359999999999996 0.24929341207059338 0 0 0
2465 1 28.09854200674618 22.359999999999996 0.24929341207059508 0 0 0
2284 8 31.387149136696667 18.167499999999997 0.0031168597530474938 0 0 0
2376 8 31.387149136696667 20.962499999999995 0.0031168597530489405 0 0 0
2377 1 32.42154200674618 19.564999999999998 0.24929341207059325 0 0 0
2469 1 32.42154200674618 22.359999999999996 0.2492934120705934 0 0 0
2288 8 35.710149136696664 18.167499999999997 0.003116859753049376 0 0 0
2292 8 40.03314913669666 18.167499999999997 0.003116859753045851 0 0 0
2380 8 35.710149136696664 20.962499999999995 0.003116859753050303 0 0 0
2381 1 36.74454200674618 19.564999999999998 0.24929341207059622 0 0 0
2384 8 40.033149136696665 20.962499999999995 0.0031168597530483607 0 0 0
2473 1 36.74454200674618 22.359999999999996 0.24929341207059638 0 0 0
2296 8 44.356149136696665 18.167499999999997 0.0031168597530493456 0 0 0
2385 1 41.06754200674617 19.564999999999998 0.24929341207059527 0 0 0
2388 8 44.356149136696665 20.962499999999995 0.003116859753050282 0 0 0
2389 1 45.39054200674618 19.564999999999998 0.2492934120705963 0 0 0
2477 1 41.06754200674618 22.359999999999996 0.24929341207059613 0 0 0
2481 1 45.39054200674618 22.359999999999996 0.24929341207059638 0 0 0
2300 8 48.679149136696665 18.167499999999997 0.0031168597530474088 0 0 0
2392 8 48.679149136696665 20.962499999999995 0.0031168597530495056 0 0 0
2301 1 49.71354200674618 19.564999999999998 0.24929341207059333 -1 0 0
2393 1 49.71354200674618 22.359999999999996 0.24929341207059358 -1 0 0
2212 8 53.002149136696666 18.167499999999997 0.0031168597530470315 -1 0 0
2216 8 57.325149136696666 18.167499999999997 0.0031168597530492437 -1 0 0
2305 1 54.03654200674618 19.564999999999998 0.24929341207059405 -1 0 0
2304 8 53.002149136696666 20.962499999999995 0.003116859753047975 -1 0 0
2309 1 58.35954200674618 19.564999999999998 0.24929341207059527 -1 0 0
2308 8 57.325149136696666 20.962499999999995 0.0031168597530500833 -1 0 0
2397 1 54.03654200674618 22.359999999999996 0.24929341207059416 -1 0 0
2401 1 58.35954200674618 22.359999999999996 0.24929341207059538 -1 0 0
2220 8 61.64814913669667 18.167499999999997 0.003116859753047034 -1 0 0
2312 8 61.64814913669667 20.962499999999995 0.003116859753047982 -1 0 0
2313 1 62.68254200674618 19.564999999999998 0.24929341207059397 -1 0 0
2405 1 62.68254200674618 22.359999999999996 0.24929341207059416 -1 0 0
2224 8 65.97114913669667 18.167499999999997 0.0031168597530493564 -1 0 0
2316 8 65.97114913669668 20.962499999999995 0.003116859753051125 -1 0 0
2317 1 67.00554200674618 19.564999999999994 0.24929341207059258 -1 0 0
2409 1 67.00554200674618 22.359999999999996 0.2492934120705939 -1 0 0
2228 8 70.29414913669666 18.167499999999997 0.0031168597530467426 -1 0 0
2232 8 74.61714913669667 18.167499999999997 0.0031168597530492293 -1 0 0
2320 8 70.29414913669667 20.962499999999995 0.003116859753047585 -1 0 0
2321 1 71.32854200674619 19.564999999999998 0.24929341207059472 -1 0 0
2324 8 74.61714913669668 20.962499999999995 0.0031168597530511085 -1 0 0
2325 1 75.65154200674618 19.564999999999994 0.24929341207059347 -1 0 0
2413 1 71.32854200674618 22.359999999999996 0.2492934120705948 -1 0 0
2417 1 75.65154200674618 22.359999999999996 0.24929341207059494 -1 0 0
2236 8 78.94014913669666 18.167499999999997 0.003116859753046246 -1 0 0
2328 8 78.94014913669668 20.962499999999995 0.0031168597530478867 -1 0 0
2329 1 79.97454200674618 19.564999999999994 0.24929341207059214 -1 0 0
2421 1 79.97454200674618 22.359999999999996 0.24929341207059363 -1 0 0
2240 8 83.26314913669667 18.167499999999997 0.003116859753047355 -1 0 0
2244 8 87.58614913669666 18.167499999999997 0.0031168597530499362 -1 0 0
2333 1 84.29754200674618 19.564999999999998 0.24929341207059638 -1 0 0
2332 8 83.26314913669667 20.962499999999995 0.0031168597530478247 -1 0 0
2336 8 87.58614913669666 20.962499999999995 0.0031168597530506904 -1 0 0
2425 1 84.29754200674618 22.359999999999996 0.2492934120705966 -1 0 0
2248 8 91.90914913669667 18.167499999999997 0.0031168597530492298 -1 0 0
2337 1 88.62054200674619 19.564999999999998 0.2492934120705951 -1 0 0
2341 1 92.94354200674618 19.564999999999994 0.24929341207059347 -1 0 0
2340 8 91.90914913669668 20.962499999999995 0.003116859753051109 -1 0 0
2429 1 88.62054200674618 22.359999999999996 0.24929341207059522 -1 0 0
2433 1 92.94354200674618 22.359999999999996 0.24929341207059494 -1 0 0
2252 8 96.23214913669666 18.167499999999997 0.0031168597530462304 -1 0 0
2344 8 96.23214913669668 20.962499999999995 0.0031168597530478806 -1 0 0
2345 1 97.26654200674618 19.564999999999994 0.2492934120705922 -1 0 0
2437 1 97.26654200674618 22.359999999999996 0.24929341207059366 -1 0 0
2440 8 1.1261491366966656 23.757499999999997 0.0031168597530492593 0 0 0
2444 8 5.449149136696666 23.757499999999997 0.003116859753049437 0 0 0
2533 1 2.1605420067461787 25.154999999999998 0.24929341207059477 0 0 0
2532 8 1.126149136696666 26.552499999999995 0.0031168597530494575 0 0 0
2536 8 5.449149136696667 26.552499999999995 0.0031168597530495112 0 0 0
2625 1 2.1605420067461805 27.949999999999996 0.24929341207059447 0 0 0
2624 8 1.126149136696666 29.347499999999997 0.003116859753049434 0 0 0
2628 8 5.449149136696667 29.347499999999997 0.003116859753049488 0 0 0
2448 8 9.772149136696667 23.757499999999997 0.0031168597530493256 0 0 0
2537 1 6.4835420067461795 25.154999999999998 0.24929341207059483 0 0 0
2541 1 10.806542006746179 25.154999999999998 0.24929341207059405 0 0 0
2540 8 9.772149136696667 26.552499999999995 0.003116859753049448 0 0 0
2629 1 6.483542006746181 27.949999999999996 0.24929341207059455 0 0 0
2633 1 10.80654200674618 27.949999999999996 0.24929341207059427 0 0 0
2632 8 9.772149136696667 29.347499999999997 0.0031168597530494228 0 0 0
2452 8 14.095149136696664 23.757499999999997 0.0031168597530483923 0 0 0
2545 1 15.129542006746176 25.154999999999998 0.24929341207059424 0 0 0
2544 8 14.095149136696664 26.552499999999995 0.0031168597530486174 0 0 0
2637 1 15.129542006746178 27.949999999999996 0.2492934120705942 0 0 0
2636 8 14.095149136696664 29.347499999999997 0.0031168597530485944 0 0 0
2456 8 18.418149136696666 23.757499999999997 0.0031168597530506228 0 0 0
2460 8 22.741149136696666 23.757499999999997 0.003116859753048918 0 0 0
2549 1 19.452542006746178 25.154999999999998 0.24929341207059502 0 0 0
2548 8 18.418149136696666 26.552499999999995 0.003116859753051102 0 0 0
2552 8 22.741149136696666 26.552499999999995 0.0031168597530491764 0 0 0
2641 1 19.452542006746178 27.949999999999996 0.24929341207059527 0 0 0
2640 8 18.418149136696666 29.347499999999997 0.003116859753051076 0 0 0
2644 8 22.741149136696666 29.347499999999997 0.003116859753049152 0 0 0
2464 8 27.064149136696667 23.757499999999997 0.0031168597530506262 0 0 0
2553 1 23.77554200674618 25.154999999999998 0.2492934120705933 0 0 0
2557 1 28.09854200674618 25.154999999999998 0.24929341207059502 0 0 0
2556 8 27.064149136696667 26.552499999999995 0.0031168597530510976 0 0 0
2645 1 23.775542006746182 27.949999999999996 0.2492934120705925 0 0 0