LAMMPS data file via write_data, version 29 Aug 2024, timestep = 2, units = metal

6624 atoms
8 atom types

0 99.429 xlo xhi
0 100.62 ylo yhi
-50 110.33785034918097 zlo zhi

Masses

1 12.011
2 12.011
3 12.011
4 12.011
5 32.06
6 32.06
7 32.06
8 32.06

Atoms # atomic

1704 6 1.1262515425903068 1.397499999999996 0.0033142485809611547 0 0 0
1705 1 2.1603422886528834 0 0.2492305092120986 0 0 0
1707 2 4.320824725886417 1.397499999999996 1.4652292232762671 0 0 0
1708 6 5.449251542590307 1.3974999999999957 0.003314248580960907 0 0 0
1797 1 2.160342288652884 2.7949999999999955 0.2492305092120987 0 0 0
1796 6 1.1262515425903077 4.1924999999999955 0.0033142485809619345 0 0 0
1799 2 4.320824725886416 4.1924999999999955 1.4652292232762665 0 0 0
1800 6 5.449251542590308 4.1924999999999955 0.0033142485809619614 0 0 0
1889 1 2.160342288652884 5.589999999999996 0.24923050921209883 0 0 0
1709 1 6.483342288652883 0 0.24923050921209874 0 0 0
1711 2 8.643824725886416 1.397499999999996 1.465229223276267 0 0 0
1712 6 9.772251542590308 1.397499999999996 0.0033142485809609665 0 0 0
1801 1 6.483342288652884 2.7949999999999955 0.24923050921209877 0 0 0
1805 1 10.806342288652884 2.7949999999999955 0.2492305092120982 0 0 0
1803 2 8.643824725886416 4.1924999999999955 1.4652292232762667 0 0 0
1804 6 9.77225154259031 4.1924999999999955 0.0033142485809617194 0 0 0
1893 1 6.483342288652884 5.589999999999996 0.24923050921209858 0 0 0
1897 1 10.806342288652884 5.589999999999996 0.2492305092120979 0 0 0
1715 2 12.966824725886413 1.3974999999999957 1.4652292232762676 0 0 0
1716 6 14.095251542590304 1.3974999999999957 0.0033142485809599005 0 0 0
1717 1 15.12934228865288 0 0.24923050921209863 0 0 0
1719 2 17.28982472588641 1.3974999999999962 1.4652292232762654 0 0 0
1809 1 15.12934228865288 2.794999999999995 0.24923050921209877 0 0 0
1807 2 12.966824725886413 4.1924999999999955 1.4652292232762667 0 0 0
1808 6 14.095251542590304 4.1924999999999955 0.0033142485809607852 0 0 0
1811 2 17.28982472588641 4.1924999999999955 1.4652292232762658 0 0 0
1901 1 15.12934228865288 5.589999999999996 0.24923050921209905 0 0 0
1720 6 18.418251542590305 1.3974999999999957 0.0033142485809626483 0 0 0
1723 2 21.61282472588642 1.397499999999996 1.4652292232762665 0 0 0
1724 6 22.74125154259031 1.397499999999996 0.0033142485809602375 0 0 0
1813 1 19.452342288652886 2.7949999999999955 0.2492305092121 0 0 0
1812 6 18.41825154259031 4.1924999999999955 0.0033142485809629684 0 0 0
1815 2 21.612824725886416 4.1924999999999955 1.465229223276267 0 0 0
1816 6 22.74125154259031 4.1924999999999955 0.003314248580960739 0 0 0
1905 1 19.452342288652883 5.589999999999996 0.24923050921210008 0 0 0
1725 1 23.775342288652883 0 0.24923050921209766 0 0 0
1728 6 27.064251542590306 1.3974999999999957 0.003314248580962649 0 0 0
1727 2 25.935824725886413 1.3974999999999962 1.4652292232762656 0 0 0
1817 1 23.775342288652883 2.7949999999999955 0.24923050921209736 0 0 0
1821 1 28.098342288652887 2.7949999999999955 0.2492305092121 0 0 0
1820 6 27.06425154259031 4.1924999999999955 0.003314248580962972 0 0 0
1819 2 25.935824725886413 4.1924999999999955 1.4652292232762658 0 0 0
1909 1 23.775342288652883 5.589999999999996 0.24923050921209733 0 0 0
1913 1 28.098342288652884 5.589999999999996 0.24923050921210008 0 0 0
1732 6 31.38725154259031 1.397499999999996 0.0033142485809601325 0 0 0
1731 2 30.25882472588642 1.397499999999996 1.4652292232762665 0 0 0
1733 1 32.42134228865289 0 0.24923050921209688 0 0 0
1735 2 34.58182472588641 1.397499999999996 1.4652292232762683 0 0 0
1825 1 32.42134228865288 2.7949999999999955 0.24923050921209652 0 0 0
1824 6 31.38725154259031 4.1924999999999955 0.0033142485809606248 0 0 0
1823 2 30.258824725886416 4.1924999999999955 1.4652292232762667 0 0 0
1827 2 34.58182472588641 4.1924999999999955 1.4652292232762647 0 0 0
1917 1 32.42134228865288 5.589999999999996 0.24923050921209658 0 0 0
1736 6 35.71025154259031 1.3974999999999957 0.0033142485809617584 0 0 0
1737 1 36.74434228865289 0 0.24923050921209788 0 0 0
1739 2 38.90482472588642 1.397499999999996 1.4652292232762678 0 0 0
1740 6 40.03325154259031 1.3974999999999957 0.003314248580960138 0 0 0
1829 1 36.74434228865289 2.7949999999999946 0.24923050921209805 0 0 0
1828 6 35.71025154259031 4.1924999999999955 0.0033142485809641345 0 0 0
1831 2 38.904824725886414 4.1924999999999955 1.4652292232762683 0 0 0
1832 6 40.03325154259031 4.1924999999999955 0.0033142485809606118 0 0 0
1921 1 36.74434228865289 5.589999999999996 0.24923050921209902 0 0 0
1743 2 43.227824725886414 1.397499999999996 1.465229223276268 0 0 0
1744 6 44.356251542590314 1.3974999999999957 0.003314248580961755 0 0 0
1745 1 45.39034228865289 0 0.24923050921209788 0 0 0
1833 1 41.06734228865288 2.7949999999999955 0.24923050921209697 0 0 0
1837 1 45.39034228865289 2.7949999999999946 0.24923050921209802 0 0 0
1835 2 43.227824725886414 4.1924999999999955 1.4652292232762645 0 0 0
1836 6 44.356251542590314 4.1924999999999955 0.0033142485809641298 0 0 0
1925 1 41.06734228865288 5.589999999999996 0.24923050921209705 0 0 0
1929 1 45.39034228865289 5.589999999999996 0.24923050921209902 0 0 0
1747 2 47.55082472588642 1.397499999999996 1.4652292232762685 0 0 0
1748 6 48.67925154259031 1.397499999999996 0.003314248580960685 0 0 0
1657 1 49.71334228865288 0 0.24923050921209908 -1 0 0
1659 2 51.87382472588642 1.397499999999996 1.4652292232762663 -1 0 0
1749 1 49.71334228865288 2.7949999999999946 0.24923050921209922 -1 0 0
1839 2 47.55082472588642 4.1924999999999955 1.4652292232762671 0 0 0
1840 6 48.67925154259031 4.1924999999999955 0.0033142485809616903 0 0 0
1751 2 51.87382472588642 4.1924999999999955 1.465229223276265 -1 0 0
1841 1 49.71334228865289 5.589999999999996 0.24923050921210005 -1 0 0
1661 1 54.03634228865289 0 0.24923050921209988 -1 0 0
1660 6 53.00225154259031 1.397499999999996 0.003314248580960027 -1 0 0
1663 2 56.19682472588642 1.397499999999996 1.4652292232762674 -1 0 0
1665 1 58.35934228865289 0 0.24923050921209816 -1 0 0
1664 6 57.325251542590316 1.3974999999999957 0.003314248580961958 -1 0 0
1753 1 54.03634228865289 2.794999999999994 0.24923050921210008 -1 0 0
1757 1 58.35934228865289 2.7949999999999946 0.2492305092120983 -1 0 0
1752 6 53.00225154259031 4.1924999999999955 0.0033142485809608572 -1 0 0
1755 2 56.196824725886415 4.192499999999997 1.4652292232762643 -1 0 0
1756 6 57.325251542590316 4.1924999999999955 0.003314248580964259 -1 0 0
1845 1 54.03634228865289 5.589999999999996 0.24923050921209947 -1 0 0
1849 1 58.35934228865289 5.589999999999996 0.24923050921209935 -1 0 0
1668 6 61.64825154259031 1.397499999999996 0.0033142485809600393 -1 0 0
1667 2 60.51982472588642 1.3974999999999962 1.4652292232762665 -1 0 0
1669 1 62.68234228865288 0 0.24923050921209985 -1 0 0
1761 1 62.68234228865289 2.794999999999994 0.24923050921210005 -1 0 0
1760 6 61.64825154259031 4.1924999999999955 0.003314248580960884 -1 0 0
1759 2 60.51982472588642 4.1924999999999955 1.4652292232762651 -1 0 0
1853 1 62.68234228865289 5.589999999999996 0.24923050921209933 -1 0 0
1672 6 65.97125154259031 1.3974999999999957 0.003314248580964146 -1 0 0
1671 2 64.84282472588642 1.397499999999996 1.4652292232762631 -1 0 0
1675 2 69.16582472588642 1.397499999999996 1.4652292232762647 -1 0 0
1765 1 67.0053422886529 2.7949999999999955 0.24923050921210044 -1 0 0
1764 6 65.97125154259031 4.1924999999999955 0.0033142485809643995 -1 0 0
1763 2 64.84282472588642 4.192499999999996 1.4652292232762643 -1 0 0
1767 2 69.16582472588642 4.1924999999999955 1.465229223276265 -1 0 0
1857 1 67.0053422886529 5.589999999999996 0.24923050921210052 -1 0 0
1676 6 70.29425154259032 1.397499999999996 0.0033142485809619943 -1 0 0
1679 2 73.48882472588642 1.397499999999996 1.465229223276263 -1 0 0
1680 6 74.61725154259031 1.397499999999996 0.003314248580963566 -1 0 0
1769 1 71.32834228865289 2.7949999999999955 0.24923050921209544 -1 0 0
1773 1 75.65134228865288 2.7949999999999955 0.2492305092120983 -1 0 0
1768 6 70.29425154259032 4.1924999999999955 0.0033142485809624232 -1 0 0
1771 2 73.48882472588642 4.1924999999999955 1.4652292232762634 -1 0 0
1772 6 74.61725154259031 4.1924999999999955 0.0033142485809639502 -1 0 0
1861 1 71.32834228865289 5.589999999999996 0.24923050921209564 -1 0 0
1865 1 75.65134228865288 5.589999999999996 0.24923050921209838 -1 0 0
1683 2 77.81182472588642 1.397499999999996 1.4652292232762674 -1 0 0
1684 6 78.9402515425903 1.3974999999999957 0.0033142485809602063 -1 0 0
1777 1 79.97434228865289 2.7949999999999955 0.24923050921209994 -1 0 0
1775 2 77.81182472588641 4.1924999999999955 1.4652292232762678 -1 0 0
1776 6 78.94025154259032 4.1924999999999955 0.0033142485809606334 -1 0 0
1869 1 79.97434228865289 5.589999999999996 0.24923050921210002 -1 0 0
1687 2 82.13482472588642 1.397499999999996 1.4652292232762647 -1 0 0
1688 6 83.26325154259031 1.397499999999996 0.0033142485809619458 -1 0 0
1691 2 86.45782472588641 1.3974999999999962 1.4652292232762685 -1 0 0
1692 6 87.58625154259032 1.397499999999996 0.003314248580962806 -1 0 0
1781 1 84.29734228865289 2.794999999999995 0.2492305092120944 -1 0 0
1779 2 82.13482472588642 4.1924999999999955 1.465229223276265 -1 0 0
1780 6 83.26325154259031 4.1924999999999955 0.0033142485809624102 -1 0 0
1783 2 86.45782472588641 4.192499999999996 1.4652292232762638 -1 0 0
1784 6 87.58625154259032 4.1924999999999955 0.0033142485809660475 -1 0 0
1873 1 84.29734228865289 5.589999999999996 0.24923050921209458 -1 0 0
1695 2 90.78082472588642 1.397499999999996 1.465229223276263 -1 0 0
1696 6 91.90925154259031 1.397499999999996 0.003314248580963566 -1 0 0
1785 1 88.62034228865289 2.7949999999999955 0.24923050921209564 -1 0 0
1789 1 92.94334228865289 2.7949999999999955 0.24923050921209833 -1 0 0
1787 2 90.78082472588642 4.1924999999999955 1.4652292232762634 -1 0 0
1788 6 91.90925154259031 4.1924999999999955 0.003314248580963951 -1 0 0
1877 1 88.62034228865289 5.589999999999996 0.2492305092120961 -1 0 0
1881 1 92.94334228865289 5.589999999999996 0.24923050921209838 -1 0 0
1703 2 99.42682472588642 1.3974999999999955 1.4652292232762658 -1 0 0
1795 2 99.42682472588642 4.1924999999999955 1.4652292232762656 -1 0 0
1700 6 96.2322515425903 1.3974999999999957 0.003314248580960193 -1 0 0
1699 2 95.10382472588643 1.397499999999996 1.4652292232762674 -1 0 0
1793 1 97.2663422886529 2.7949999999999955 0.24923050921210005 -1 0 0
1792 6 96.23225154259032 4.1924999999999955 0.0033142485809606204 -1 0 0
1791 2 95.10382472588641 4.1924999999999955 1.4652292232762678 -1 0 0
1885 1 97.2663422886529 5.589999999999996 0.2492305092121001 -1 0 0
1888 6 1.1262515425903077 6.987499999999997 0.003314248580961901 0 0 0
1891 2 4.320824725886416 6.987499999999997 1.4652292232762667 0 0 0
1892 6 5.449251542590308 6.987499999999997 0.0033142485809619887 0 0 0
1981 1 2.160342288652884 8.384999999999998 0.24923050921209886 0 0 0
1980 6 1.126251542590308 9.782499999999999 0.0033142485809619813 0 0 0
1983 2 4.320824725886415 9.782499999999999 1.4652292232762667 0 0 0
1984 6 5.449251542590308 9.782499999999999 0.0033142485809620013 0 0 0
2073 1 2.1603422886528847 11.179999999999998 0.24923050921209824 0 0 0
1895 2 8.643824725886416 6.987499999999997 1.4652292232762667 0 0 0
1896 6 9.77225154259031 6.987499999999997 0.003314248580961671 0 0 0
1985 1 6.483342288652884 8.384999999999998 0.24923050921209855 0 0 0
1989 1 10.806342288652884 8.384999999999998 0.2492305092120979 0 0 0
1987 2 8.643824725886416 9.782499999999999 1.465229223276267 0 0 0
1988 6 9.772251542590308 9.782499999999999 0.003314248580961664 0 0 0
2077 1 6.483342288652885 11.179999999999998 0.24923050921209838 0 0 0
2081 1 10.806342288652884 11.179999999999998 0.24923050921209827 0 0 0
1899 2 12.966824725886413 6.987499999999997 1.465229223276267 0 0 0
1900 6 14.095251542590304 6.987499999999997 0.0033142485809607375 0 0 0
1903 2 17.28982472588641 6.987499999999997 1.4652292232762658 0 0 0
1993 1 15.12934228865288 8.384999999999998 0.24923050921209902 0 0 0
1991 2 12.966824725886413 9.782499999999999 1.4652292232762671 0 0 0
1992 6 14.095251542590304 9.782499999999999 0.0033142485809607904 0 0 0
1995 2 17.28982472588641 9.782499999999999 1.4652292232762663 0 0 0
2085 1 15.12934228865288 11.179999999999998 0.24923050921209783 0 0 0
1904 6 18.41825154259031 6.987499999999997 0.0033142485809629528 0 0 0
1907 2 21.612824725886416 6.987499999999997 1.4652292232762667 0 0 0
1908 6 22.74125154259031 6.987499999999997 0.003314248580960733 0 0 0
1997 1 19.452342288652883 8.384999999999998 0.24923050921210005 0 0 0
1996 6 18.41825154259031 9.782499999999999 0.003314248580963088 0 0 0
1999 2 21.612824725886416 9.782499999999999 1.4652292232762674 0 0 0
2000 6 22.74125154259031 9.782499999999999 0.0033142485809606716 0 0 0
2089 1 19.452342288652886 11.179999999999998 0.2492305092120982 0 0 0
1912 6 27.06425154259031 6.987499999999997 0.0033142485809629554 0 0 0
1911 2 25.935824725886413 6.987499999999997 1.4652292232762658 0 0 0
2001 1 23.775342288652883 8.384999999999998 0.24923050921209733 0 0 0
2005 1 28.098342288652884 8.384999999999998 0.24923050921210005 0 0 0
2004 6 27.06425154259031 9.782499999999999 0.003314248580963088 0 0 0
2003 2 25.935824725886413 9.782499999999999 1.4652292232762663 0 0 0
2093 1 23.775342288652883 11.179999999999998 0.2492305092120968 0 0 0
2097 1 28.098342288652887 11.179999999999998 0.24923050921209816 0 0 0
1916 6 31.38725154259031 6.987499999999997 0.0033142485809606074 0 0 0
1915 2 30.258824725886416 6.987499999999997 1.4652292232762667 0 0 0
1919 2 34.58182472588641 6.987499999999997 1.4652292232762647 0 0 0
2009 1 32.42134228865288 8.384999999999998 0.24923050921209658 0 0 0
2008 6 31.38725154259031 9.782499999999999 0.0033142485809606217 0 0 0
2007 2 30.258824725886416 9.782499999999999 1.4652292232762671 0 0 0
2011 2 34.58182472588641 9.782499999999999 1.4652292232762647 0 0 0
2101 1 32.42134228865288 11.179999999999998 0.24923050921209686 0 0 0
1920 6 35.71025154259031 6.987499999999997 0.003314248580964045 0 0 0
1923 2 38.904824725886414 6.987499999999997 1.4652292232762683 0 0 0
1924 6 40.03325154259031 6.987499999999997 0.003314248580960608 0 0 0
2013 1 36.74434228865289 8.384999999999998 0.24923050921209902 0 0 0
2012 6 35.71025154259031 9.782499999999999 0.003314248580964053 0 0 0
2015 2 38.904824725886414 9.782499999999999 1.4652292232762685 0 0 0
2016 6 40.03325154259031 9.782499999999999 0.0033142485809603997 0 0 0
2105 1 36.74434228865289 11.179999999999998 0.24923050921209922 0 0 0
1927 2 43.227824725886414 6.987499999999997 1.4652292232762645 0 0 0
1928 6 44.356251542590314 6.987499999999997 0.0033142485809640396 0 0 0
2017 1 41.06734228865288 8.384999999999998 0.24923050921209705 0 0 0
2021 1 45.39034228865289 8.384999999999998 0.24923050921209902 0 0 0
2019 2 43.227824725886414 9.782499999999999 1.4652292232762645 0 0 0
2020 6 44.356251542590314 9.782499999999999 0.0033142485809640543 0 0 0
2109 1 41.06734228865288 11.179999999999998 0.2492305092120973 0 0 0
2113 1 45.39034228865289 11.179999999999998 0.2492305092120992 0 0 0
1931 2 47.55082472588642 6.987499999999997 1.4652292232762671 0 0 0
1932 6 48.67925154259031 6.987499999999997 0.0033142485809616027 0 0 0
1843 2 51.87382472588642 6.987499999999997 1.465229223276265 -1 0 0
1933 1 49.71334228865289 8.384999999999998 0.24923050921210005 -1 0 0
2023 2 47.55082472588642 9.782499999999999 1.4652292232762674 0 0 0
2024 6 48.67925154259031 9.782499999999999 0.0033142485809615086 0 0 0
1935 2 51.873824725886415 9.782499999999999 1.4652292232762658 -1 0 0
2025 1 49.71334228865289 11.179999999999998 0.2492305092120987 -1 0 0
1844 6 53.00225154259031 6.987499999999997 0.003314248580960664 -1 0 0
1847 2 56.196824725886415 6.987499999999997 1.465229223276265 -1 0 0
1848 6 57.325251542590316 6.987499999999997 0.0033142485809641445 -1 0 0
1937 1 54.03634228865289 8.384999999999998 0.24923050921209938 -1 0 0
1941 1 58.35934228865289 8.384999999999998 0.24923050921209935 -1 0 0
1936 6 53.00225154259031 9.782499999999999 0.003314248580961039 -1 0 0
1939 2 56.196824725886415 9.782499999999999 1.4652292232762651 -1 0 0
1940 6 57.325251542590316 9.782499999999999 0.003314248580964169 -1 0 0
2029 1 54.03634228865289 11.179999999999998 0.249230509212097 -1 0 0
2033 1 58.35934228865289 11.179999999999998 0.24923050921209805 -1 0 0
1852 6 61.64825154259031 6.987499999999997 0.003314248580960689 -1 0 0
1851 2 60.51982472588642 6.987499999999997 1.4652292232762651 -1 0 0
1945 1 62.68234228865289 8.384999999999998 0.24923050921209924 -1 0 0
1944 6 61.64825154259031 9.782499999999999 0.00331424858096106 -1 0 0
1943 2 60.519824725886416 9.782499999999999 1.465229223276266 -1 0 0
2037 1 62.68234228865289 11.179999999999998 0.2492305092120969 -1 0 0
1856 6 65.97125154259031 6.987499999999997 0.0033142485809643423 -1 0 0
1855 2 64.84282472588642 6.987499999999997 1.465229223276265 -1 0 0
1859 2 69.16582472588642 6.987499999999997 1.465229223276265 -1 0 0
1949 1 67.0053422886529 8.384999999999998 0.2492305092121005 -1 0 0
1948 6 65.97125154259031 9.782499999999999 0.003314248580964504 -1 0 0
1947 2 64.84282472588642 9.782499999999999 1.4652292232762651 -1 0 0
1951 2 69.16582472588642 9.782499999999999 1.465229223276265 -1 0 0
2041 1 67.0053422886529 11.179999999999998 0.2492305092121007 -1 0 0
1860 6 70.29425154259032 6.987499999999997 0.003314248580962401 -1 0 0
1863 2 73.48882472588642 6.987499999999997 1.4652292232762634 -1 0 0
1864 6 74.61725154259031 6.987499999999997 0.0033142485809639277 -1 0 0
1953 1 71.32834228865289 8.384999999999998 0.24923050921209564 -1 0 0
1957 1 75.65134228865288 8.384999999999998 0.24923050921209838 -1 0 0
1952 6 70.29425154259032 9.782499999999999 0.0033142485809624367 -1 0 0
1955 2 73.48882472588642 9.782499999999999 1.4652292232762634 -1 0 0
1956 6 74.61725154259031 9.782499999999999 0.0033142485809639407 -1 0 0
2045 1 71.32834228865289 11.179999999999998 0.2492305092120959 -1 0 0
2049 1 75.65134228865288 11.179999999999998 0.2492305092120986 -1 0 0
1867 2 77.81182472588641 6.987499999999997 1.4652292232762678 -1 0 0
1868 6 78.94025154259032 6.987499999999997 0.003314248580960616 -1 0 0
1961 1 79.97434228865289 8.384999999999998 0.24923050921210002 -1 0 0
1959 2 77.81182472588641 9.782499999999999 1.4652292232762678 -1 0 0
1960 6 78.94025154259032 9.782499999999999 0.0033142485809605337 -1 0 0
2053 1 79.97434228865289 11.179999999999998 0.24923050921210022 -1 0 0
1871 2 82.13482472588642 6.987499999999997 1.465229223276265 -1 0 0
1872 6 83.26325154259031 6.987499999999997 0.0033142485809624107 -1 0 0
1875 2 86.45782472588641 6.987499999999997 1.4652292232762638 -1 0 0
1876 6 87.58625154259032 6.987499999999997 0.0033142485809660267 -1 0 0
1965 1 84.29734228865289 8.384999999999998 0.24923050921209458 -1 0 0
1963 2 82.13482472588642 9.782499999999999 1.465229223276265 -1 0 0
1964 6 83.26325154259031 9.782499999999999 0.0033142485809624206 -1 0 0
1967 2 86.45782472588641 9.782499999999999 1.4652292232762638 -1 0 0
1968 6 87.58625154259032 9.782499999999999 0.003314248580966045 -1 0 0
2057 1 84.29734228865289 11.179999999999998 0.24923050921209486 -1 0 0
1879 2 90.78082472588642 6.987499999999997 1.4652292232762634 -1 0 0
1880 6 91.90925154259031 6.987499999999997 0.00331424858096393 -1 0 0
1969 1 88.62034228865289 8.384999999999998 0.2492305092120961 -1 0 0
1973 1 92.94334228865289 8.384999999999998 0.24923050921209838 -1 0 0
1971 2 90.78082472588642 9.782499999999999 1.4652292232762634 -1 0 0
1972 6 91.90925154259031 9.782499999999999 0.0033142485809639433 -1 0 0
2061 1 88.62034228865289 11.179999999999998 0.2492305092120964 -1 0 0
2065 1 92.94334228865289 11.179999999999998 0.2492305092120986 -1 0 0
1887 2 99.42682472588642 6.987499999999997 1.4652292232762656 -1 0 0
1979 2 99.42682472588642 9.782499999999997 1.4652292232762656 -1 0 0
1884 6 96.23225154259032 6.987499999999997 0.003314248580960615 -1 0 0
1883 2 95.10382472588641 6.987499999999997 1.4652292232762678 -1 0 0
1977 1 97.2663422886529 8.384999999999998 0.2492305092121001 -1 0 0
1976 6 96.23225154259032 9.782499999999999 0.0033142485809605103 -1 0 0
1975 2 95.10382472588641 9.782499999999999 1.4652292232762678 -1 0 0
2069 1 97.2663422886529 11.179999999999998 0.2492305092121003 -1 0 0
2072 6 1.1262515425903075 12.577499999999999 0.003314248580961919 0 0 0
2075 2 4.320824725886416 12.577499999999999 1.465229223276267 0 0 0
2076 6 5.449251542590308 12.577499999999999 0.00331424858096184 0 0 0
2165 1 2.160342288652884 13.974999999999998 0.24923050921209886 0 0 0
2164 6 1.1262515425903081 15.3725 0.0033142485809620325 0 0 0
2167 2 4.320824725886415 15.3725 1.4652292232762667 0 0 0
2168 6 5.449251542590308 15.3725 0.003314248580962094 0 0 0
2257 1 2.160342288652884 16.769999999999996 0.24923050921209852 0 0 0
2079 2 8.643824725886416 12.577499999999999 1.4652292232762665 0 0 0
2080 6 9.772251542590308 12.577499999999999 0.00331424858096188 0 0 0
2169 1 6.483342288652884 13.974999999999998 0.2492305092120986 0 0 0
2173 1 10.806342288652884 13.974999999999998 0.24923050921209797 0 0 0
2171 2 8.643824725886416 15.3725 1.4652292232762667 0 0 0
2172 6 9.77225154259031 15.3725 0.0033142485809617454 0 0 0
2261 1 6.483342288652884 16.769999999999996 0.24923050921209866 0 0 0
2265 1 10.806342288652884 16.769999999999996 0.24923050921209866 0 0 0
2083 2 12.966824725886413 12.577499999999999 1.4652292232762671 0 0 0
2084 6 14.095251542590304 12.577499999999999 0.0033142485809606855 0 0 0
2087 2 17.28982472588641 12.577499999999999 1.4652292232762663 0 0 0
2177 1 15.12934228865288 13.974999999999998 0.24923050921209897 0 0 0
2175 2 12.966824725886413 15.3725 1.4652292232762667 0 0 0
2176 6 14.095251542590304 15.3725 0.003314248580960866 0 0 0
2179 2 17.28982472588641 15.3725 1.4652292232762658 0 0 0
2269 1 15.12934228865288 16.769999999999996 0.24923050921209844 0 0 0
2088 6 18.41825154259031 12.577499999999999 0.003314248580963042 0 0 0
2091 2 21.612824725886416 12.577499999999999 1.4652292232762674 0 0 0
2092 6 22.74125154259031 12.577499999999999 0.0033142485809605827 0 0 0
2181 1 19.452342288652883 13.974999999999998 0.24923050921210002 0 0 0
2180 6 18.41825154259031 15.3725 0.0033142485809631197 0 0 0
2183 2 21.612824725886416 15.3725 1.465229223276267 0 0 0
2184 6 22.74125154259031 15.3725 0.0033142485809608394 0 0 0
2273 1 19.452342288652883 16.769999999999996 0.2492305092120995 0 0 0
2096 6 27.06425154259031 12.577499999999999 0.0033142485809630395 0 0 0
2095 2 25.935824725886413 12.577499999999999 1.4652292232762663 0 0 0
2185 1 23.775342288652883 13.974999999999996 0.24923050921209747 0 0 0
2189 1 28.098342288652884 13.974999999999998 0.24923050921210002 0 0 0
2188 6 27.06425154259031 15.3725 0.003314248580963121 0 0 0
2187 2 25.935824725886413 15.3725 1.465229223276266 0 0 0
2277 1 23.775342288652883 16.769999999999996 0.2492305092120971 0 0 0
2281 1 28.098342288652884 16.769999999999996 0.2492305092120996 0 0 0
2100 6 31.38725154259031 12.577499999999999 0.0033142485809605276 0 0 0
2099 2 30.258824725886416 12.577499999999999 1.4652292232762671 0 0 0
2103 2 34.58182472588641 12.577499999999999 1.4652292232762647 0 0 0
2193 1 32.42134228865288 13.974999999999996 0.24923050921209672 0 0 0
2192 6 31.38725154259031 15.3725 0.0033142485809607106 0 0 0
2191 2 30.258824725886416 15.3725 1.465229223276267 0 0 0
2195 2 34.58182472588641 15.3725 1.4652292232762647 0 0 0
2285 1 32.42134228865288 16.769999999999996 0.24923050921209627 0 0 0
2104 6 35.71025154259031 12.577499999999999 0.003314248580964012 0 0 0
2107 2 38.904824725886414 12.577499999999999 1.4652292232762685 0 0 0
2108 6 40.03325154259031 12.577499999999999 0.0033142485809603576 0 0 0
2197 1 36.74434228865289 13.974999999999998 0.249230509212099 0 0 0
2196 6 35.71025154259031 15.3725 0.0033142485809642516 0 0 0
2199 2 38.904824725886414 15.3725 1.4652292232762683 0 0 0
2200 6 40.03325154259031 15.3725 0.003314248580960722 0 0 0
2289 1 36.74434228865289 16.77 0.249230509212098 0 0 0
2111 2 43.227824725886414 12.577499999999999 1.4652292232762645 0 0 0
2112 6 44.356251542590314 12.577499999999999 0.003314248580964011 0 0 0
2201 1 41.06734228865288 13.974999999999998 0.24923050921209708 0 0 0
2205 1 45.39034228865289 13.974999999999998 0.249230509212099 0 0 0
2203 2 43.227824725886414 15.3725 1.4652292232762645 0 0 0
2204 6 44.356251542590314 15.3725 0.0033142485809642425 0 0 0
2293 1 41.06734228865288 16.769999999999996 0.2492305092120969 0 0 0
2297 1 45.39034228865289 16.77 0.249230509212098 0 0 0
2115 2 47.55082472588642 12.577499999999999 1.4652292232762674 0 0 0
2116 6 48.67925154259031 12.577499999999999 0.003314248580961401 0 0 0
2027 2 51.873824725886415 12.577499999999999 1.4652292232762658 -1 0 0
2117 1 49.71334228865289 13.974999999999998 0.24923050921210005 -1 0 0
2207 2 47.55082472588642 15.3725 1.4652292232762674 0 0 0
2208 6 48.67925154259031 15.3725 0.0033142485809617935 0 0 0
2119 2 51.87382472588642 15.3725 1.465229223276265 -1 0 0
2209 1 49.71334228865289 16.77 0.24923050921209902 -1 0 0
2028 6 53.00225154259031 12.577499999999999 0.0033142485809609847 -1 0 0
2031 2 56.196824725886415 12.577499999999999 1.4652292232762651 -1 0 0
2032 6 57.32525154259031 12.577499999999999 0.00331424858096412 -1 0 0
2121 1 54.03634228865289 13.974999999999998 0.24923050921209933 -1 0 0
2125 1 58.35934228865289 13.974999999999998 0.24923050921209935 -1 0 0
2120 6 53.00225154259031 15.3725 0.003314248580960991 -1 0 0
2123 2 56.196824725886415 15.372499999999999 1.4652292232762645 -1 0 0
2124 6 57.325251542590316 15.3725 0.0033142485809643605 -1 0 0
2213 1 54.03634228865289 16.77 0.24923050921209994 -1 0 0
2217 1 58.35934228865289 16.77 0.24923050921209836 -1 0 0
2036 6 61.64825154259031 12.577499999999999 0.0033142485809610055 -1 0 0
2035 2 60.519824725886416 12.577499999999999 1.465229223276266 -1 0 0
2129 1 62.68234228865289 13.974999999999998 0.24923050921209924 -1 0 0
2128 6 61.64825154259031 15.3725 0.0033142485809610047 -1 0 0
2127 2 60.51982472588642 15.3725 1.4652292232762654 -1 0 0
2221 1 62.68234228865289 16.77 0.24923050921210002 -1 0 0
2040 6 65.97125154259031 12.577499999999999 0.003314248580964456 -1 0 0
2039 2 64.84282472588642 12.577499999999999 1.4652292232762651 -1 0 0
2043 2 69.16582472588642 12.577499999999999 1.465229223276265 -1 0 0
2133 1 67.0053422886529 13.974999999999998 0.24923050921210047 -1 0 0
2132 6 65.97125154259031 15.3725 0.0033142485809645127 -1 0 0
2131 2 64.84282472588642 15.372499999999999 1.4652292232762643 -1 0 0
2135 2 69.16582472588642 15.3725 1.465229223276265 -1 0 0
2225 1 67.0053422886529 16.769999999999996 0.24923050921210038 -1 0 0
2044 6 70.29425154259032 12.577499999999999 0.0033142485809623855 -1 0 0
2047 2 73.48882472588642 12.577499999999999 1.4652292232762634 -1 0 0
2048 6 74.61725154259031 12.577499999999999 0.003314248580963887 -1 0 0
2137 1 71.32834228865289 13.974999999999996 0.24923050921209572 -1 0 0
2141 1 75.65134228865288 13.974999999999998 0.24923050921209836 -1 0 0
2136 6 70.29425154259032 15.3725 0.003314248580962526 -1 0 0
2139 2 73.48882472588642 15.3725 1.4652292232762634 -1 0 0
2140 6 74.61725154259031 15.3725 0.0033142485809640613 -1 0 0
2229 1 71.32834228865289 16.769999999999996 0.24923050921209539 -1 0 0
2233 1 75.65134228865288 16.769999999999996 0.24923050921209813 -1 0 0
2051 2 77.81182472588642 12.577499999999999 1.4652292232762678 -1 0 0
2052 6 78.94025154259032 12.577499999999999 0.0033142485809604955 -1 0 0
2145 1 79.97434228865289 13.974999999999998 0.2492305092121 -1 0 0
2143 2 77.81182472588641 15.3725 1.4652292232762678 -1 0 0
2144 6 78.94025154259032 15.3725 0.003314248580960755 -1 0 0
2237 1 79.97434228865289 16.769999999999996 0.2492305092120999 -1 0 0
2055 2 82.13482472588642 12.577499999999999 1.465229223276265 -1 0 0
2056 6 83.26325154259031 12.577499999999999 0.0033142485809623604 -1 0 0
2059 2 86.45782472588641 12.577499999999999 1.4652292232762638 -1 0 0
2060 6 87.58625154259032 12.577499999999999 0.003314248580965987 -1 0 0
2149 1 84.29734228865289 13.974999999999996 0.2492305092120947 -1 0 0
2147 2 82.13482472588642 15.3725 1.4652292232762651 -1 0 0
2148 6 83.26325154259031 15.3725 0.0033142485809625195 -1 0 0
2151 2 86.45782472588641 15.372499999999999 1.465229223276264 -1 0 0
2152 6 87.58625154259032 15.3725 0.003314248580966025 -1 0 0
2241 1 84.29734228865289 16.769999999999996 0.24923050921209422 -1 0 0
2063 2 90.78082472588642 12.577499999999999 1.4652292232762634 -1 0 0
2064 6 91.90925154259031 12.577499999999999 0.0033142485809638895 -1 0 0
2153 1 88.62034228865289 13.974999999999996 0.24923050921209622 -1 0 0
2157 1 92.94334228865289 13.974999999999998 0.24923050921209836 -1 0 0
2155 2 90.78082472588642 15.3725 1.4652292232762636 -1 0 0
2156 6 91.90925154259031 15.3725 0.003314248580964063 -1 0 0
2245 1 88.62034228865289 16.769999999999996 0.24923050921209558 -1 0 0
2249 1 92.94334228865289 16.769999999999996 0.24923050921209813 -1 0 0
2071 2 99.42682472588642 12.577499999999999 1.4652292232762656 -1 0 0
2163 2 99.42682472588642 15.3725 1.4652292232762656 -1 0 0
2068 6 96.23225154259032 12.577499999999999 0.0033142485809604777 -1 0 0
2067 2 95.10382472588643 12.577499999999999 1.4652292232762678 -1 0 0
2161 1 97.2663422886529 13.974999999999998 0.24923050921210008 -1 0 0
2160 6 96.23225154259032 15.3725 0.003314248580960763 -1 0 0
2159 2 95.10382472588641 15.3725 1.4652292232762678 -1 0 0
2253 1 97.2663422886529 16.769999999999996 0.24923050921209985 -1 0 0
2256 6 1.1262515425903057 18.167499999999997 0.003314248580960417 0 0 0
2259 2 4.320824725886418 18.167499999999997 1.4652292232762674 0 0 0
2260 6 5.449251542590306 18.167499999999997 0.0033142485809603637 0 0 0
2348 6 1.1262515425903077 20.962499999999995 0.0033142485809619653 0 0 0
2349 1 2.1603422886528834 19.564999999999998 0.24923050921209844 0 0 0
2351 2 4.320824725886416 20.962499999999995 1.4652292232762665 0 0 0
2352 6 5.449251542590308 20.962499999999995 0.0033142485809620186 0 0 0
2441 1 2.160342288652884 22.359999999999996 0.24923050921209883 0 0 0