LAMMPS data file via write_data, version 29 Aug 2024, timestep = 90, units = metal

6480 atoms
24 atom types

0 98.81992088196 xlo xhi
0 102.696674260464 ylo yhi
-50 50 zlo zhi

Masses

1 55.845
2 55.845
3 55.845
4 55.845
5 55.845
6 55.845
7 55.845
8 55.845
9 78.971
10 78.971
11 78.971
12 78.971
13 78.971
14 78.971
15 78.971
16 78.971
17 78.971
18 78.971
19 78.971
20 78.971
21 78.971
22 78.971
23 78.971
24 78.971

Atoms # atomic

1713 10 1.8042817675109348 1.0524152590137643 2.1850241790625033 0 0 0
1711 15 0.42815624328742174 0.2497251298373897 1.6657687008375957 0 0 0
1719 2 5.361287085160073 1.091851275596579 0.2163675421032736 0 0 0
1714 16 2.278235376046732 2.620716631804635 1.257738896616365 0 0 0
1720 14 5.3006469681563155 3.7501170388253096 1.5925970471845008 0 0 0
1716 12 0.3841486834690257 3.5628687825445984 1.6945783623506783 0 0 0
1722 4 3.6889259542812813 3.9325942323834204 -0.0912760539914482 0 0 0
1897 13 2.8033560071881944 5.189251113850957 1.68527386035077 0 0 0
1712 9 1.8074475096372633 2.1175856223301888 2.1075375995818715 0 0 0
1718 1 4.968579811632775 0.34558183662356845 1.9499128314786223 0 0 0
1727 11 5.6855479146687475 3.9529164692971768 1.1784044896450303 0 0 0
1723 15 7.016150968751476 0.24972512983747042 1.665768700837629 0 0 0
1725 10 8.392276492974926 1.0524152590137652 2.1850241790625087 0 0 0
1726 16 8.86623010151073 2.6207166318046347 1.257738896616359 0 0 0
1728 12 6.97214340893294 3.5628687825445944 1.694578362350657 0 0 0
1734 4 10.27692067974529 3.93259423238342 -0.09127605399144767 0 0 0
1909 13 9.3913507326522 5.189251113850951 1.6852738603507709 0 0 0
1724 9 8.395442235101257 2.117585622330185 2.1075375995818764 0 0 0
1730 1 11.556574537096786 0.34558183662359454 1.9499128314786331 0 0 0
1731 2 11.949281810624052 1.0918512755965872 0.2163675421032392 0 0 0
1732 14 11.888641693620322 3.7501170388253025 1.592597047184497 0 0 0
1735 15 13.604145694215447 0.24972512983745987 1.6657687008376234 0 0 0
1737 10 14.980271218438919 1.05241525901378 2.185024179062498 0 0 0
1738 16 15.454224826974727 2.620716631804637 1.2577388966163618 0 0 0
1740 12 13.560138134396924 3.562868782544593 1.694578362350658 0 0 0
1746 4 16.864915405209285 3.9325942323834164 -0.09127605399144507 0 0 0
1921 13 15.9793454581162 5.189251113850962 1.6852738603507664 0 0 0
1736 9 14.983436960565262 2.117585622330202 2.1075375995818777 0 0 0
1739 11 12.273542640132755 3.952916469297173 1.1784044896450379 0 0 0
1743 2 18.537276536088072 1.0918512755965781 0.21636754210327094 0 0 0
1747 15 20.19214041967948 0.24972512983747536 1.6657687008376185 0 0 0
1749 10 21.56826594390294 1.0524152590137732 2.1850241790625002 0 0 0
1744 14 18.476636419084315 3.7501170388253127 1.5925970471845001 0 0 0
1750 16 22.04221955243871 2.6207166318046258 1.2577388966163456 0 0 0
1752 12 20.14813285986097 3.562868782544589 1.6945783623506643 0 0 0
1933 13 22.567340183580203 5.189251113850954 1.6852738603507613 0 0 0
1742 1 18.14456926256079 0.34558183662355274 1.9499128314786285 0 0 0
1748 9 21.571431686029282 2.1175856223302127 2.1075375995818635 0 0 0
1751 11 18.86153736559674 3.952916469297187 1.1784044896450323 0 0 0
1758 4 23.452910130673285 3.9325942323834013 -0.09127605399143422 0 0 0
1755 2 25.12527126155206 1.0918512755965752 0.21636754210324216 0 0 0
1759 15 26.78013514514346 0.249725129837441 1.6657687008376139 0 0 0
1761 10 28.156260669366933 1.052415259013772 2.185024179062507 0 0 0
1756 14 25.064631144548322 3.7501170388253144 1.5925970471844981 0 0 0
1762 16 28.630214277902716 2.620716631804643 1.2577388966163652 0 0 0
1764 12 26.73612758532496 3.5628687825445824 1.6945783623506645 0 0 0
1754 1 24.732563988024765 0.34558183662360276 1.9499128314786058 0 0 0
1760 9 28.159426411493264 2.1175856223301954 2.107537599581873 0 0 0
1763 11 25.449532091060743 3.9529164692972083 1.1784044896450319 0 0 0
1767 2 31.713265987016097 1.0918512755965708 0.21636754210328663 0 0 0
1771 15 33.3681298706075 0.24972512983746323 1.6657687008376314 0 0 0
1773 10 34.74425539483092 1.0524152590137605 2.185024179062501 0 0 0
1768 14 31.652625870012308 3.750117038825311 1.5925970471844921 0 0 0
1770 4 30.04090485613727 3.9325942323834244 -0.09127605399144363 0 0 0
1776 12 33.32412231078894 3.5628687825445837 1.6945783623506592 0 0 0
1945 13 29.155334909044193 5.1892511138509585 1.6852738603507762 0 0 0
1766 1 31.320558713488786 0.3455818366235266 1.9499128314786167 0 0 0
1772 9 34.74742113695725 2.117585622330198 2.107537599581874 0 0 0
1775 11 32.03752681652473 3.9529164692971843 1.1784044896450256 0 0 0
1774 16 35.21820900336671 2.6207166318046364 1.2577388966163556 0 0 0
1779 2 38.30126071248004 1.0918512755965661 0.21636754210327713 0 0 0
1783 15 39.956124596071476 0.2497251298374288 1.6657687008376318 0 0 0
1780 14 38.240620595476315 3.7501170388253033 1.5925970471844941 0 0 0
1782 4 36.62889958160128 3.932594232383414 -0.09127605399144316 0 0 0
1788 12 39.91211703625297 3.562868782544595 1.6945783623506658 0 0 0
1957 13 35.7433296345082 5.189251113850953 1.685273860350768 0 0 0
1778 1 37.90855343895277 0.3455818366235694 1.9499128314786067 0 0 0
1787 11 38.62552154198873 3.952916469297172 1.1784044896450354 0 0 0
1785 10 41.33225012029494 1.0524152590137865 2.185024179062486 0 0 0
1791 2 44.88925543794404 1.0918512755965624 0.21636754210326975 0 0 0
1786 16 41.80620372883071 2.6207166318046293 1.2577388966163492 0 0 0
1792 14 44.82861532094032 3.7501170388253042 1.592597047184504 0 0 0
1794 4 43.216894307065274 3.9325942323834 -0.09127605399145035 0 0 0
1800 12 46.50011176171695 3.5628687825445855 1.6945783623506672 0 0 0
1969 13 42.33132435997221 5.189251113850955 1.6852738603507642 0 0 0
1784 9 41.33541586242128 2.117585622330206 2.1075375995818595 0 0 0
1790 1 44.49654816441678 0.34558183662358166 1.9499128314786272 0 0 0
1799 11 45.21351626745273 3.9529164692971976 1.1784044896450339 0 0 0
1795 15 46.54411932153546 0.24972512983742792 1.665768700837618 0 0 0
1797 10 47.92024484575894 1.0524152590137628 2.1850241790624887 0 0 0
1623 2 51.47725016340807 1.0918512755965761 0.21636754210326875 -1 0 0
1798 16 48.39419845429473 2.62071663180464 1.2577388966163827 0 0 0
1624 14 51.41661004640431 3.7501170388253096 1.5925970471844904 -1 0 0
1626 4 49.80488903252927 3.9325942323834338 -0.09127605399145347 -1 0 0
1801 13 48.919319085436186 5.189251113850966 1.6852738603507704 -1 0 0
1796 9 47.92341058788524 2.117585622330182 2.107537599581887 0 0 0
1622 1 51.08454288988079 0.34558183662353337 1.9499128314786076 -1 0 0
1631 11 51.80151099291674 3.952916469297152 1.178404489645027 -1 0 0
1627 15 53.132114046999455 0.24972512983743064 1.6657687008376134 -1 0 0
1629 10 54.50823957122294 1.0524152590137645 2.1850241790624945 -1 0 0
1635 2 58.06524488887204 1.0918512755965784 0.2163675421032674 -1 0 0
1630 16 54.98219317975871 2.6207166318046338 1.2577388966163612 -1 0 0
1636 14 58.0046047718683 3.750117038825305 1.5925970471844921 -1 0 0
1632 12 53.08810648718095 3.5628687825446077 1.6945783623506647 -1 0 0
1638 4 56.392883757993275 3.9325942323834138 -0.09127605399144116 -1 0 0
1813 13 55.507313810900186 5.189251113850957 1.68527386035076 -1 0 0
1628 9 54.51140531334924 2.117585622330191 2.1075375995818675 -1 0 0
1634 1 57.672537615344794 0.34558183662352815 1.949912831478619 -1 0 0
1639 15 59.72010877246344 0.249725129837427 1.665768700837604 -1 0 0
1641 10 61.096234296686944 1.052415259013777 2.185024179062499 -1 0 0
1642 16 61.57018790522273 2.620716631804652 1.2577388966163872 -1 0 0
1644 12 59.67610121264495 3.5628687825445766 1.6945783623506698 -1 0 0
1650 4 62.98087848345727 3.9325942323834386 -0.09127605399144728 -1 0 0
1825 13 62.095308536364186 5.189251113850961 1.6852738603507842 -1 0 0
1640 9 61.09940003881324 2.1175856223301825 2.107537599581886 -1 0 0
1643 11 58.38950571838074 3.9529164692971794 1.1784044896450283 -1 0 0
1647 2 64.65323961433602 1.091851275596583 0.2163675421032669 -1 0 0
1651 15 66.30810349792739 0.2497251298374003 1.6657687008376119 -1 0 0
1653 10 67.68422902215094 1.0524152590137847 2.1850241790625025 -1 0 0
1648 14 64.5925994973323 3.7501170388253056 1.5925970471844906 -1 0 0
1654 16 68.15818263068668 2.620716631804613 1.2577388966163543 -1 0 0
1656 12 66.26409593810894 3.562868782544597 1.694578362350662 -1 0 0
1662 4 69.56887320892126 3.9325942323833876 -0.09127605399141533 -1 0 0
1837 13 68.68330326182817 5.189251113850947 1.6852738603507633 -1 0 0
1646 1 64.26053234080884 0.3455818366235675 1.9499128314786711 -1 0 0
1652 9 67.68739476427727 2.117585622330204 2.107537599581877 -1 0 0
1655 11 64.97750044384475 3.9529164692971586 1.1784044896450308 -1 0 0
1659 2 71.24123433980003 1.0918512755965681 0.21636754210324877 -1 0 0
1663 15 72.89609822339142 0.24972512983741163 1.665768700837598 -1 0 0
1665 10 74.27222374761493 1.052415259013766 2.185024179062496 -1 0 0
1660 14 71.1805942227963 3.7501170388253233 1.5925970471844957 -1 0 0
1666 16 74.74617735615068 2.620716631804635 1.2577388966164027 -1 0 0
1668 12 72.85209066357308 3.5628687825446126 1.6945783623506843 -1 0 0
1849 13 75.27129798729214 5.1892511138509585 1.6852738603507673 -1 0 0
1658 1 70.84852706627278 0.3455818366235509 1.9499128314786012 -1 0 0
1664 9 74.27538948974124 2.117585622330175 2.1075375995818892 -1 0 0
1667 11 71.5654951693087 3.952916469297204 1.1784044896450292 -1 0 0
1671 2 77.82922906526406 1.0918512755965726 0.21636754210323836 -1 0 0
1675 15 79.48409294885543 0.24972512983741021 1.6657687008376023 -1 0 0
1677 10 80.86021847307894 1.0524152590137772 2.1850241790625065 -1 0 0
1672 14 77.76858894826024 3.7501170388253033 1.5925970471844877 -1 0 0
1678 16 81.33417208161465 2.6207166318046236 1.2577388966163656 -1 0 0
1674 4 76.15686793438522 3.932594232383404 -0.09127605399143691 -1 0 0
1680 12 79.44008538903707 3.5628687825446295 1.694578362350681 -1 0 0
1670 1 77.43652179173681 0.3455818366235856 1.9499128314786225 -1 0 0
1676 9 80.86338421520526 2.1175856223302127 2.1075375995818613 -1 0 0
1679 11 78.15348989477268 3.9529164692971754 1.1784044896450134 -1 0 0
1683 2 84.41722379072799 1.0918512755965628 0.21636754210326015 -1 0 0
1687 15 86.0720876743194 0.2497251298374178 1.6657687008375999 -1 0 0
1684 14 84.35658367372427 3.7501170388253033 1.5925970471844921 -1 0 0
1686 4 82.74486265984922 3.932594232383397 -0.0912760539914107 -1 0 0
1692 12 86.028080114501 3.562868782544633 1.6945783623506672 -1 0 0
1861 13 81.85929271275616 5.189251113850953 1.6852738603507802 -1 0 0
1682 1 84.02451651720075 0.34558183662357944 1.9499128314786092 -1 0 0
1691 11 84.74148462023666 3.952916469297181 1.178404489645021 -1 0 0
1689 10 87.44821319854293 1.052415259013778 2.18502417906251 -1 0 0
1695 2 91.00521851619204 1.0918512755965573 0.21636754210325945 -1 0 0
1699 15 92.66008239978345 0.24972512983740075 1.665768700837618 -1 0 0
1690 16 87.92216680707871 2.6207166318046156 1.2577388966163263 -1 0 0
1696 14 90.94457839918834 3.750117038825301 1.592597047184527 -1 0 0
1698 4 89.3328573853133 3.932594232383371 -0.09127605399142744 -1 0 0
1704 12 92.61607483996495 3.56286878254455 1.6945783623506747 -1 0 0
1873 13 88.44728743822023 5.189251113850929 1.6852738603507593 -1 0 0
1688 9 87.4513789406693 2.117585622330228 2.107537599581852 -1 0 0
1694 1 90.61251124266477 0.3455818366235904 1.9499128314786203 -1 0 0
1703 11 91.32947934570073 3.952916469297224 1.1784044896450667 -1 0 0
1701 10 94.03620792400692 1.0524152590137896 2.185024179062509 -1 0 0
1707 2 97.59321324165604 1.0918512755965453 0.2163675421032344 -1 0 0
1702 16 94.51016153254267 2.620716631804628 1.2577388966163436 -1 0 0
1708 14 97.53257312465232 3.7501170388253002 1.592597047184503 -1 0 0
1710 4 95.92085211077728 3.9325942323833725 -0.09127605399140999 -1 0 0
1885 13 95.03528216368422 5.189251113850944 1.6852738603507638 -1 0 0
1715 11 97.91747407116469 3.9529164692972185 1.1784044896450234 -1 0 0
1700 9 94.0393736661333 2.117585622330223 2.107537599581862 -1 0 0
1706 1 97.2005059681288 0.34558183662356246 1.9499128314786158 -1 0 0
1893 10 1.8042817675109328 6.757786051261759 2.1850241790625042 0 0 0
1891 15 0.42815624328749263 5.955095922085404 1.665768700837635 0 0 0
1899 2 5.361287085160056 6.797222067844564 0.2163675421032747 0 0 0
1894 16 2.2782353760467196 8.326087424052632 1.2577388966163447 0 0 0
1900 14 5.3006469681563155 9.455487831073302 1.5925970471844944 0 0 0
1896 12 0.3841486834689693 9.26823957479257 1.6945783623506685 0 0 0
1902 4 3.6889259542812867 9.63796502463141 -0.09127605399144903 0 0 0
2077 13 2.803356007188202 10.894621906098948 1.6852738603507633 0 0 0
1892 9 1.807447509637261 7.822956414578197 2.10753759958187 0 0 0
1898 1 4.968579811632789 6.050952628871584 1.949912831478612 0 0 0
1907 11 5.685547914668746 9.658287261545187 1.1784044896450279 0 0 0
1903 15 7.016150968751458 5.95509592208539 1.6657687008376267 0 0 0
1905 10 8.392276492974933 6.7577860512617605 2.1850241790625047 0 0 0
1906 16 8.866230101510723 8.326087424052643 1.2577388966163436 0 0 0
1908 12 6.9721434089329515 9.268239574792581 1.6945783623506585 0 0 0
1914 4 10.276920679745295 9.637965024631415 -0.09127605399145362 0 0 0
2089 13 9.391350732652208 10.894621906098955 1.6852738603507633 0 0 0
1904 9 8.395442235101259 7.822956414578198 2.107537599581868 0 0 0
1910 1 11.556574537096793 6.050952628871582 1.9499128314786192 0 0 0
1911 2 11.949281810624061 6.797222067844561 0.21636754210327055 0 0 0
1912 14 11.888641693620322 9.455487831073302 1.5925970471844977 0 0 0
1915 15 13.60414569421546 5.955095922085391 1.6657687008376267 0 0 0
1917 10 14.980271218438936 6.757786051261765 2.1850241790625113 0 0 0
1918 16 15.454224826974707 8.326087424052634 1.2577388966163379 0 0 0
1920 12 13.560138134396926 9.268239574792585 1.6945783623506547 0 0 0
1926 4 16.864915405209292 9.6379650246314 -0.0912760539914368 0 0 0
2101 13 15.97934545811621 10.894621906098946 1.6852738603507618 0 0 0
1916 9 14.983436960565275 7.82295641457821 2.1075375995818675 0 0 0
1919 11 12.273542640132753 9.658287261545189 1.1784044896450336 0 0 0
1923 2 18.537276536088036 6.797222067844561 0.21636754210327389 0 0 0
1927 15 20.19214041967945 5.95509592208539 1.6657687008376196 0 0 0
1929 10 21.568265943902944 6.757786051261756 2.1850241790625082 0 0 0
1924 14 18.476636419084315 9.455487831073304 1.5925970471844966 0 0 0
1930 16 22.04221955243871 8.326087424052638 1.2577388966163465 0 0 0
1932 12 20.14813285986098 9.268239574792572 1.694578362350663 0 0 0
2113 13 22.5673401835802 10.894621906098955 1.6852738603507642 0 0 0
1922 1 18.144569262560786 6.050952628871594 1.9499128314786103 0 0 0
1928 9 21.571431686029264 7.822956414578201 2.1075375995818693 0 0 0
1931 11 18.861537365596735 9.658287261545214 1.1784044896450223 0 0 0
1938 4 23.452910130673274 9.637965024631411 -0.09127605399144367 0 0 0
1935 2 25.125271261552047 6.797222067844568 0.2163675421032634 0 0 0
1939 15 26.780135145143458 5.955095922085389 1.6657687008376225 0 0 0
1941 10 28.15626066936694 6.757786051261758 2.18502417906251 0 0 0
1936 14 25.064631144548315 9.455487831073302 1.592597047184491 0 0 0
1942 16 28.6302142779027 8.326087424052632 1.2577388966163456 0 0 0
1944 12 26.73612758532496 9.26823957479258 1.6945783623506603 0 0 0
1934 1 24.732563988024783 6.050952628871608 1.949912831478612 0 0 0
1940 9 28.15942641149327 7.822956414578208 2.1075375995818675 0 0 0
1943 11 25.44953209106074 9.658287261545198 1.1784044896450192 0 0 0
1947 2 31.713265987016058 6.79722206784456 0.2163675421032559 0 0 0
1951 15 33.36812987060746 5.955095922085399 1.665768700837619 0 0 0
1953 10 34.74425539483095 6.75778605126176 2.185024179062499 0 0 0
1948 14 31.652625870012304 9.45548783107331 1.592597047184491 0 0 0
1950 4 30.040904856137278 9.6379650246314 -0.09127605399143299 0 0 0
1956 12 33.324122310788994 9.2682395747926 1.6945783623506674 0 0 0
2125 13 29.155334909044196 10.894621906098948 1.6852738603507629 0 0 0
1946 1 31.32055871348878 6.050952628871592 1.9499128314786087 0 0 0
1952 9 34.74742113695727 7.822956414578197 2.107537599581872 0 0 0
1955 11 32.037526816524725 9.658287261545203 1.1784044896450288 0 0 0
1954 16 35.21820900336671 8.32608742405263 1.2577388966163496 0 0 0
1959 2 38.30126071248005 6.797222067844561 0.21636754210328188 0 0 0
1963 15 39.956124596071454 5.955095922085377 1.6657687008376216 0 0 0
1960 14 38.240620595476315 9.455487831073311 1.5925970471844948 0 0 0
1962 4 36.628899581601274 9.637965024631407 -0.09127605399144681 0 0 0
1968 12 39.91211703625293 9.268239574792576 1.6945783623506598 0 0 0
2137 13 35.7433296345082 10.894621906098953 1.6852738603507633 0 0 0
1958 1 37.908553438952794 6.050952628871586 1.9499128314786143 0 0 0
1967 11 38.62552154198874 9.658287261545196 1.1784044896450274 0 0 0
1965 10 41.332250120294944 6.757786051261758 2.1850241790625073 0 0 0
1971 2 44.88925543794405 6.797222067844562 0.21636754210326786 0 0 0
1966 16 41.8062037288307 8.326087424052622 1.2577388966163345 0 0 0
1972 14 44.82861532094032 9.455487831073304 1.5925970471844966 0 0 0
1974 4 43.21689430706529 9.637965024631395 -0.09127605399144535 0 0 0
1980 12 46.500111761716965 9.268239574792572 1.6945783623506625 0 0 0
2149 13 42.33132435997219 10.894621906098942 1.6852738603507649 0 0 0
1964 9 41.335415862421264 7.82295641457821 2.1075375995818644 0 0 0
1970 1 44.49654816441679 6.050952628871605 1.9499128314786076 0 0 0
1979 11 45.21351626745274 9.658287261545206 1.1784044896450352 0 0 0
1975 15 46.54411932153546 5.955095922085385 1.6657687008376294 0 0 0
1977 10 47.92024484575893 6.757786051261752 2.185024179062504 0 0 0
1803 2 51.47725016340806 6.797222067844563 0.2163675421032679 -1 0 0
1978 16 48.39419845429471 8.326087424052632 1.2577388966163343 0 0 0
1804 14 51.41661004640433 9.455487831073302 1.5925970471844964 -1 0 0
1806 4 49.804889032529296 9.637965024631397 -0.09127605399144208 -1 0 0
1981 13 48.91931908543621 10.894621906098944 1.685273860350759 -1 0 0
1976 9 47.923410587885265 7.8229564145782104 2.1075375995818666 0 0 0
1802 1 51.08454288988079 6.050952628871582 1.9499128314786132 -1 0 0
1811 11 51.80151099291675 9.658287261545206 1.1784044896450385 -1 0 0
1807 15 53.13211404699946 5.955095922085396 1.665768700837626 -1 0 0
1809 10 54.50823957122294 6.75778605126176 2.1850241790625065 -1 0 0
1815 2 58.065244888872094 6.797222067844565 0.21636754210326212 -1 0 0
1810 16 54.98219317975872 8.326087424052625 1.257738896616329 -1 0 0
1816 14 58.00460477186833 9.4554878310733 1.5925970471844997 -1 0 0
1812 12 53.088106487180966 9.268239574792567 1.6945783623506638 -1 0 0
1818 4 56.39288375799331 9.637965024631399 -0.091276053991442 -1 0 0
1993 13 55.507313810900214 10.894621906098942 1.6852738603507587 -1 0 0
1808 9 54.51140531334927 7.822956414578209 2.107537599581863 -1 0 0
1814 1 57.67253761534478 6.050952628871583 1.949912831478607 -1 0 0
1819 15 59.720108772463476 5.955095922085391 1.6657687008376356 -1 0 0
1821 10 61.096234296686966 6.7577860512617764 2.185024179062512 -1 0 0
1822 16 61.57018790522271 8.326087424052636 1.2577388966163427 -1 0 0
1824 12 59.67610121264494 9.26823957479258 1.694578362350661 -1 0 0
1830 4 62.98087848345731 9.637965024631393 -0.09127605399142762 -1 0 0
2005 13 62.09530853636423 10.894621906098948 1.6852738603507738 -1 0 0
1820 9 61.09940003881331 7.822956414578222 2.1075375995818564 -1 0 0
1823 11 58.38950571838075 9.658287261545203 1.1784044896450299 -1 0 0
1827 2 64.6532396143361 6.7972220678445465 0.21636754210324144 -1 0 0
1831 15 66.30810349792746 5.955095922085388 1.665768700837629 -1 0 0
1833 10 67.68422902215093 6.757786051261757 2.185024179062504 -1 0 0
1828 14 64.59259949733233 9.45548783107331 1.5925970471844995 -1 0 0
1834 16 68.1581826306867 8.32608742405262 1.2577388966163365 -1 0 0
1836 12 66.26409593810897 9.268239574792593 1.6945783623506465 -1 0 0
1842 4 69.56887320892129 9.637965024631395 -0.09127605399143726 -1 0 0
2017 13 68.68330326182819 10.894621906098955 1.685273860350757 -1 0 0
1826 1 64.26053234080878 6.050952628871573 1.9499128314786234 -1 0 0
1832 9 67.68739476427726 7.822956414578204 2.1075375995818666 -1 0 0
1835 11 64.97750044384475 9.658287261545212 1.1784044896450336 -1 0 0
1839 2 71.24123433980009 6.797222067844561 0.21636754210324527 -1 0 0
1843 15 72.89609822339149 5.955095922085391 1.6657687008376234 -1 0 0
1845 10 74.27222374761494 6.757786051261759 2.185024179062517 -1 0 0
1840 14 71.18059422279632 9.455487831073315 1.5925970471844935 -1 0 0
1846 16 74.7461773561507 8.326087424052627 1.2577388966163405 -1 0 0
1848 12 72.85209066357295 9.268239574792574 1.6945783623506583 -1 0 0
2029 13 75.27129798729219 10.89462190609894 1.6852738603507567 -1 0 0
1838 1 70.84852706627275 6.0509526288716025 1.9499128314786047 -1 0 0
1844 9 74.27538948974127 7.822956414578197 2.107537599581868 -1 0 0
1847 11 71.56549516930875 9.658287261545185 1.1784044896450414 -1 0 0
1851 2 77.82922906526409 6.7972220678445545 0.21636754210324896 -1 0 0
1855 15 79.48409294885548 5.955095922085392 1.6657687008376243 -1 0 0
1857 10 80.86021847307894 6.757786051261746 2.1850241790625082 -1 0 0
1852 14 77.76858894826032 9.455487831073311 1.5925970471844961 -1 0 0
1858 16 81.33417208161472 8.326087424052636 1.2577388966163467 -1 0 0
1854 4 76.15686793438528 9.637965024631386 -0.09127605399143926 -1 0 0
1860 12 79.44008538903697 9.268239574792595 1.6945783623506583 -1 0 0
1850 1 77.43652179173675 6.050952628871592 1.949912831478585 -1 0 0
1856 9 80.86338421520526 7.822956414578186 2.1075375995818715 -1 0 0
1859 11 78.15348989477275 9.65828726154519 1.1784044896450425 -1 0 0
1863 2 84.41722379072804 6.797222067844545 0.2163675421032567 -1 0 0
1867 15 86.07208767431946 5.955095922085379 1.6657687008376245 -1 0 0
1864 14 84.35658367372432 9.455487831073304 1.5925970471844937 -1 0 0
1866 4 82.74486265984928 9.637965024631393 -0.09127605399145484 -1 0 0
1872 12 86.02808011450095 9.268239574792558 1.6945783623506607 -1 0 0
2041 13 81.8592927127562 10.894621906098953 1.68527386035074 -1 0 0
1862 1 84.02451651720074 6.0509526288715945 1.9499128314785925 -1 0 0
1871 11 84.74148462023675 9.658287261545194 1.1784044896450396 -1 0 0
1869 10 87.44821319854293 6.757786051261752 2.185024179062517 -1 0 0
1875 2 91.00521851619214 6.797222067844545 0.21636754210322984 -1 0 0
1879 15 92.66008239978352 5.9550959220853725 1.665768700837654 -1 0 0
1870 16 87.92216680707871 8.326087424052629 1.2577388966163325 -1 0 0
1876 14 90.94457839918834 9.455487831073308 1.5925970471844908 -1 0 0
1878 4 89.33285738531332 9.637965024631393 -0.09127605399141563 -1 0 0
1884 12 92.61607483996497 9.268239574792588 1.6945783623506652 -1 0 0
2053 13 88.44728743822021 10.894621906098951 1.6852738603507513 -1 0 0
1868 9 87.45137894066927 7.822956414578214 2.1075375995818746 -1 0 0
1874 1 90.61251124266477 6.050952628871616 1.9499128314786165 -1 0 0
1883 11 91.32947934570075 9.658287261545192 1.178404489645043 -1 0 0
1881 10 94.03620792400692 6.7577860512617605 2.185024179062509 -1 0 0
1887 2 97.59321324165606 6.797222067844553 0.216367542103274 -1 0 0
1882 16 94.51016153254272 8.326087424052638 1.2577388966163305 -1 0 0
1888 14 97.53257312465233 9.455487831073293 1.5925970471845101 -1 0 0
1890 4 95.92085211077732 9.637965024631384 -0.0912760539914548 -1 0 0
2065 13 95.03528216368423 10.894621906098953 1.6852738603507533 -1 0 0
1895 11 97.91747407116475 9.658287261545205 1.1784044896450465 -1 0 0
1880 9 94.03937366613327 7.822956414578218 2.1075375995818724 -1 0 0
1886 1 97.20050596812878 6.050952628871599 1.9499128314785967 -1 0 0
2071 15 0.4281562432874797 11.660466714333365 1.6657687008376385 0 0 0
2073 10 1.8042817675109273 12.463156843509758 2.1850241790625033 0 0 0
2079 2 5.361287085160057 12.50259286009257 0.21636754210327236 0 0 0
2076 12 0.38414868346884545 14.973610367040575 1.6945783623506432 0 0 0
2074 16 2.2782353760467386 14.031458216300638 1.2577388966163376 0 0 0
2082 4 3.688925954281304 15.34333581687942 -0.09127605399145912 0 0 0
2080 14 5.30064696815633 15.1608586233213 1.5925970471844901 0 0 0
2257 13 2.80335600718821 16.59999269834695 1.6852738603507615 0 0 0
2072 9 1.8074475096372515 13.528327206826193 2.1075375995818684 0 0 0
2078 1 4.968579811632786 11.756323421119587 1.9499128314786145 0 0 0
2087 11 5.6855479146687635 15.363658053793184 1.1784044896450272 0 0 0
2083 15 7.016150968751455 11.66046671433339 1.665768700837627 0 0 0
2085 10 8.392276492974926 12.463156843509763 2.1850241790625073 0 0 0
2088 12 6.972143408932911 14.973610367040594 1.6945783623506483 0 0 0
2086 16 8.866230101510729 14.031458216300642 1.257738896616343 0 0 0
2094 4 10.276920679745304 15.343335816879419 -0.09127605399144717 0 0 0
2269 13 9.391350732652212 16.599992698346952 1.685273860350766 0 0 0
2084 9 8.395442235101259 13.5283272068262 2.107537599581868 0 0 0
2090 1 11.556574537096793 11.756323421119587 1.9499128314786185 0 0 0
2091 2 11.949281810624054 12.502592860092566 0.21636754210326767 0 0 0
2092 14 11.88864169362033 15.160858623321301 1.5925970471844944 0 0 0
2095 15 13.60414569421545 11.660466714333381 1.6657687008376243 0 0 0
2097 10 14.98027121843893 12.463156843509763 2.1850241790624993 0 0 0
2100 12 13.560138134396905 14.97361036704059 1.6945783623506492 0 0 0
2098 16 15.45422482697475 14.031458216300638 1.2577388966163447 0 0 0
2106 4 16.864915405209302 15.34333581687943 -0.09127605399146628 0 0 0
2281 13 15.979345458116203 16.599992698346952 1.6852738603507604 0 0 0
2096 9 14.983436960565239 13.52832720682618 2.107537599581872 0 0 0
2099 11 12.273542640132762 15.363658053793184 1.17840448964503 0 0 0
2107 15 20.192140419679454 11.660466714333388 1.6657687008376245 0 0 0
2103 2 18.537276536088054 12.50259286009258 0.21636754210327463 0 0 0
2109 10 21.568265943902936 12.463156843509758 2.1850241790625016 0 0 0
2104 14 18.476636419084322 15.1608586233213 1.5925970471844944 0 0 0
2112 12 20.14813285986092 14.973610367040575 1.6945783623506565 0 0 0
2110 16 22.042219552438723 14.03145821630064 1.2577388966163476 0 0 0
2293 13 22.5673401835802 16.599992698346952 1.6852738603507635 0 0 0
2102 1 18.14456926256078 11.756323421119601 1.9499128314786123 0 0 0
2108 9 21.571431686029257 13.52832720682619 2.107537599581871 0 0 0
2111 11 18.861537365596767 15.36365805379317 1.1784044896450265 0 0 0
2118 4 23.452910130673285 15.34333581687942 -0.09127605399145285 0 0 0
2119 15 26.780135145143447 11.660466714333387 1.665768700837622 0 0 0
2115 2 25.125271261552054 12.502592860092575 0.21636754210326486 0 0 0
2121 10 28.156260669366937 12.463156843509761 2.185024179062507 0 0 0
2124 12 26.73612758532496 14.973610367040596 1.694578362350661 0 0 0
2116 14 25.064631144548315 15.160858623321305 1.592597047184493 0 0 0
2122 16 28.630214277902713 14.031458216300635 1.2577388966163434 0 0 0
2114 1 24.732563988024776 11.756323421119598 1.9499128314786112 0 0 0
2120 9 28.15942641149326 13.528327206826203 2.107537599581862 0 0 0
2123 11 25.449532091060746 15.363658053793188 1.178404489645021 0 0 0
2131 15 33.368129870607454 11.66046671433338 1.6657687008376223 0 0 0
2127 2 31.713265987016054 12.502592860092564 0.216367542103259 0 0 0
2133 10 34.74425539483094 12.463156843509765 2.1850241790625047 0 0 0
2130 4 30.04090485613729 15.343335816879407 -0.09127605399144685 0 0 0
2128 14 31.652625870012315 15.16085862332131 1.592597047184498 0 0 0
2136 12 33.32412231078892 14.973610367040584 1.6945783623506578 0 0 0
2305 13 29.155334909044203 16.599992698346952 1.6852738603507655 0 0 0
2126 1 31.320558713488772 11.7563234211196 1.9499128314786063 0 0 0
2132 9 34.74742113695726 13.528327206826217 2.1075375995818546 0 0 0
2135 11 32.037526816524746 15.363658053793198 1.1784044896450292 0 0 0
2134 16 35.218209003366695 14.031458216300646 1.2577388966163268 0 0 0
2143 15 39.95612459607145 11.660466714333392 1.6657687008376196 0 0 0
2139 2 38.301260712480044 12.502592860092562 0.21636754210325423 0 0 0
2142 4 36.62889958160129 15.343335816879408 -0.09127605399144803 0 0 0
2140 14 38.24062059547633 15.16085862332129 1.592597047184509 0 0 0
2148 12 39.91211703625293 14.973610367040576 1.6945783623506607 0 0 0
2317 13 35.74332963450821 16.599992698346952 1.6852738603507635 0 0 0
2138 1 37.90855343895277 11.756323421119601 1.9499128314786078 0 0 0
2147 11 38.62552154198874 15.36365805379321 1.1784044896450294 0 0 0
2145 10 41.33225012029492 12.463156843509758 2.185024179062503 0 0 0
2151 2 44.88925543794406 12.502592860092566 0.21636754210326914 0 0 0
2146 16 41.80620372883072 14.031458216300644 1.257738896616357 0 0 0
2154 4 43.21689430706528 15.343335816879419 -0.09127605399145572 0 0 0
2152 14 44.8286153209403 15.160858623321309 1.5925970471845012 0 0 0
2160 12 46.500111761716944 14.973610367040582 1.6945783623506598 0 0 0
2329 13 42.33132435997219 16.599992698346956 1.6852738603507693 0 0 0
2144 9 41.33541586242125 13.528327206826194 2.1075375995818706 0 0 0
2150 1 44.49654816441677 11.756323421119594 1.9499128314786136 0 0 0
2159 11 45.213516267452746 15.363658053793182 1.178404489645038 0 0 0
2155 15 46.544119321535455 11.660466714333385 1.6657687008376227 0 0 0
2157 10 47.92024484575893 12.46315684350976 2.1850241790624976 0 0 0
1983 2 51.47725016340805 12.502592860092571 0.21636754210328035 -1 0 0
2158 16 48.39419845429474 14.031458216300647 1.257738896616359 0 0 0
1986 4 49.80488903252928 15.343335816879437 -0.09127605399146742 -1 0 0
1984 14 51.416610046404315 15.16085862332131 1.592597047184497 -1 0 0
2161 13 48.91931908543619 16.599992698346966 1.6852738603507667 -1 0 0
2156 9 47.92341058788524 13.52832720682618 2.1075375995818755 0 0 0
1982 1 51.08454288988079 11.7563234211196 1.9499128314786132 -1 0 0
1991 11 51.80151099291676 15.363658053793184 1.178404489645031 -1 0 0
1987 15 53.13211404699947 11.660466714333397 1.665768700837635 -1 0 0
1989 10 54.508239571222944 12.463156843509767 2.1850241790624945 -1 0 0
1995 2 58.065244888872044 12.502592860092578 0.21636754210328418 -1 0 0
1992 12 53.08810648718092 14.973610367040576 1.6945783623506634 -1 0 0
1990 16 54.98219317975874 14.03145821630065 1.2577388966163396 -1 0 0