LAMMPS data file via write_data, version 29 Aug 2024, timestep = 0, units = metal

3240 atoms
12 atom types

0 98.81992088196 xlo xhi
0 102.696674260464 ylo yhi
0 17.889834074115 zlo zhi

Masses

1 78.95999999999999
2 78.95999999999999
3 78.95999999999999
4 55.845
5 78.95999999999999
6 78.95999999999999
7 78.95999999999999
8 78.95999999999999
9 55.845
10 55.845
11 55.845
12 78.971

Atoms # atomic

1713 6 1.646998681366 0.9508951320410048 0 0 0 0
1711 11 0 0 1.5107711229519998 0 0 0
1717 9 3.293997362732 0 1.5107711229519998 0 0 0
1719 2 4.940996044098 0.9508951320410048 0 0 0 0
1723 11 6.587994725464 0 1.5107711229519998 0 0 0
1725 6 8.23499340683 0.9508951320410048 0 0 0 0
1729 9 9.881992088196 0 1.5107711229519998 0 0 0
1731 2 11.528990769562 0.9508951320410048 0 0 0 0
1735 11 13.175989450928 0 1.5107711229519998 0 0 0
1737 6 14.822988132294 0.9508951320410048 0 0 0 0
1741 9 16.46998681366 0 1.5107711229519998 0 0 0
1743 2 18.116985495026 0.9508951320410048 0 0 0 0
1747 11 19.763984176392 0 1.5107711229519998 0 0 0
1749 6 21.410982857758 0.9508951320410048 0 0 0 0
1753 9 23.057981539124 0 1.5107711229519998 0 0 0
1755 2 24.70498022049 0.9508951320410048 0 0 0 0
1759 11 26.351978901856 0 1.5107711229519998 0 0 0
1761 6 27.998977583222 0.9508951320410048 0 0 0 0
1765 9 29.645976264588 0 1.5107711229519998 0 0 0
1767 2 31.292974945954 0.9508951320410048 0 0 0 0
1771 11 32.93997362732 0 1.5107711229519998 0 0 0
1773 6 34.586972308686 0.9508951320410048 0 0 0 0
1777 9 36.233970990052 0 1.5107711229519998 0 0 0
1779 2 37.880969671418 0.9508951320410048 0 0 0 0
1783 11 39.527968352784 0 1.5107711229519998 0 0 0
1785 6 41.17496703415 0.9508951320410048 0 0 0 0
1789 9 42.821965715516 0 1.5107711229519998 0 0 0
1791 2 44.468964396882 0.9508951320410048 0 0 0 0
1795 11 46.115963078248 0 1.5107711229519998 0 0 0
1797 6 47.762961759614 0.9508951320410048 0 0 0 0
1623 2 51.056959122346 0.9508951320410048 0 -1 0 0
1621 9 49.40996044098 0 1.5107711229519998 -1 0 0
1627 11 52.703957803712 0 1.5107711229519998 -1 0 0
1629 6 54.350956485078 0.9508951320410048 0 -1 0 0
1633 9 55.997955166444 0 1.5107711229519998 -1 0 0
1635 2 57.64495384781 0.9508951320410048 0 -1 0 0
1639 11 59.291952529176 0 1.5107711229519998 -1 0 0
1641 6 60.938951210542 0.9508951320410048 0 -1 0 0
1645 9 62.585949891908 0 1.5107711229519998 -1 0 0
1647 2 64.232948573274 0.9508951320410048 0 -1 0 0
1651 11 65.87994725464 0 1.5107711229519998 -1 0 0
1653 6 67.526945936006 0.9508951320410048 0 -1 0 0
1657 9 69.173944617372 0 1.5107711229519998 -1 0 0
1659 2 70.820943298738 0.9508951320410048 0 -1 0 0
1663 11 72.467941980104 0 1.5107711229519998 -1 0 0
1665 6 74.11494066147 0.9508951320410048 0 -1 0 0
1669 9 75.761939342836 0 1.5107711229519998 -1 0 0
1671 2 77.408938024202 0.9508951320410048 0 -1 0 0
1675 11 79.055936705568 0 1.5107711229519998 -1 0 0
1677 6 80.702935386934 0.9508951320410048 0 -1 0 0
1681 9 82.3499340683 0 1.5107711229519998 -1 0 0
1683 2 83.996932749666 0.9508951320410048 0 -1 0 0
1687 11 85.643931431032 0 1.5107711229519998 -1 0 0
1689 6 87.290930112398 0.9508951320410048 0 -1 0 0
1693 9 88.937928793764 0 1.5107711229519998 -1 0 0
1695 2 90.58492747513 0.9508951320410048 0 -1 0 0
1699 11 92.231926156496 0 1.5107711229519998 -1 0 0
1701 6 93.878924837862 0.9508951320410048 0 -1 0 0
1705 9 95.525923519228 0 1.5107711229519998 -1 0 0
1707 2 97.172922200594 0.9508951320410048 0 -1 0 0
1714 12 1.646998681366 2.852685396124002 1.5107711229519998 0 0 0
1720 10 4.940996044098 2.852685396124002 1.5107711229519998 0 0 0
1726 12 8.23499340683 2.852685396124002 1.5107711229519998 0 0 0
1732 10 11.528990769562 2.852685396124002 1.5107711229519998 0 0 0
1738 12 14.822988132294 2.852685396124002 1.5107711229519998 0 0 0
1744 10 18.116985495026 2.852685396124002 1.5107711229519998 0 0 0
1750 12 21.410982857758 2.852685396124002 1.5107711229519998 0 0 0
1756 10 24.70498022049 2.852685396124002 1.5107711229519998 0 0 0
1762 12 27.998977583222 2.852685396124002 1.5107711229519998 0 0 0
1768 10 31.292974945954 2.852685396124002 1.5107711229519998 0 0 0
1774 12 34.586972308686 2.852685396124002 1.5107711229519998 0 0 0
1780 10 37.880969671418 2.852685396124002 1.5107711229519998 0 0 0
1786 12 41.17496703415 2.852685396124002 1.5107711229519998 0 0 0
1792 10 44.468964396882 2.852685396124002 1.5107711229519998 0 0 0
1798 12 47.762961759614 2.852685396124002 1.5107711229519998 0 0 0
1624 10 51.056959122346 2.852685396124002 1.5107711229519998 -1 0 0
1630 12 54.350956485078 2.852685396124002 1.5107711229519998 -1 0 0
1636 10 57.64495384781 2.852685396124002 1.5107711229519998 -1 0 0
1642 12 60.938951210542 2.852685396124002 1.5107711229519998 -1 0 0
1648 10 64.232948573274 2.852685396124002 1.5107711229519998 -1 0 0
1654 12 67.526945936006 2.852685396124002 1.5107711229519998 -1 0 0
1660 10 70.820943298738 2.852685396124002 1.5107711229519998 -1 0 0
1666 12 74.11494066147 2.852685396124002 1.5107711229519998 -1 0 0
1672 10 77.408938024202 2.852685396124002 1.5107711229519998 -1 0 0
1678 12 80.702935386934 2.852685396124002 1.5107711229519998 -1 0 0
1684 10 83.996932749666 2.852685396124002 1.5107711229519998 -1 0 0
1690 12 87.290930112398 2.852685396124002 1.5107711229519998 -1 0 0
1696 10 90.58492747513 2.852685396124002 1.5107711229519998 -1 0 0
1702 12 93.878924837862 2.852685396124002 1.5107711229519998 -1 0 0
1708 10 97.172922200594 2.852685396124002 1.5107711229519998 -1 0 0
1716 8 0 3.803580528165 0 0 0 0
1722 4 3.293997362732 3.803580528165 0 0 0 0
1728 8 6.587994725464 3.803580528165 0 0 0 0
1734 4 9.881992088196 3.803580528165 0 0 0 0
1740 8 13.175989450928 3.803580528165 0 0 0 0
1746 4 16.46998681366 3.803580528165 0 0 0 0
1752 8 19.763984176392 3.803580528165 0 0 0 0
1758 4 23.057981539124 3.803580528165 0 0 0 0
1764 8 26.351978901856 3.803580528165 0 0 0 0
1770 4 29.645976264588 3.803580528165 0 0 0 0
1776 8 32.93997362732 3.803580528165 0 0 0 0
1782 4 36.233970990052 3.803580528165 0 0 0 0
1788 8 39.527968352784 3.803580528165 0 0 0 0
1794 4 42.821965715516 3.803580528165 0 0 0 0
1800 8 46.115963078248 3.803580528165 0 0 0 0
1626 4 49.40996044098 3.803580528165 0 -1 0 0
1632 8 52.703957803712 3.803580528165 0 -1 0 0
1638 4 55.997955166444 3.803580528165 0 -1 0 0
1644 8 59.291952529176 3.803580528165 0 -1 0 0
1650 4 62.585949891908 3.803580528165 0 -1 0 0
1656 8 65.87994725464 3.803580528165 0 -1 0 0
1662 4 69.173944617372 3.803580528165 0 -1 0 0
1668 8 72.467941980104 3.803580528165 0 -1 0 0
1674 4 75.761939342836 3.803580528165 0 -1 0 0
1680 8 79.055936705568 3.803580528165 0 -1 0 0
1686 4 82.3499340683 3.803580528165 0 -1 0 0
1692 8 85.643931431032 3.803580528165 0 -1 0 0
1698 4 88.937928793764 3.803580528165 0 -1 0 0
1704 8 92.231926156496 3.803580528165 0 -1 0 0
1710 4 95.525923519228 3.803580528165 0 -1 0 0
1893 6 1.646998681366 6.656265924289002 0 0 0 0
1891 11 0 5.705370792248004 1.5107711229519998 0 0 0
1897 9 3.293997362732 5.705370792248004 1.5107711229519998 0 0 0
1899 2 4.940996044098 6.656265924289002 0 0 0 0
1903 11 6.587994725464 5.705370792248004 1.5107711229519998 0 0 0
1905 6 8.23499340683 6.656265924289002 0 0 0 0
1909 9 9.881992088196 5.705370792248004 1.5107711229519998 0 0 0
1911 2 11.528990769562 6.656265924289002 0 0 0 0
1915 11 13.175989450928 5.705370792248004 1.5107711229519998 0 0 0
1917 6 14.822988132294 6.656265924289002 0 0 0 0
1921 9 16.46998681366 5.705370792248004 1.5107711229519998 0 0 0
1923 2 18.116985495026 6.656265924289002 0 0 0 0
1927 11 19.763984176392 5.705370792248004 1.5107711229519998 0 0 0
1929 6 21.410982857758 6.656265924289002 0 0 0 0
1933 9 23.057981539124 5.705370792248004 1.5107711229519998 0 0 0
1935 2 24.70498022049 6.656265924289002 0 0 0 0
1939 11 26.351978901856 5.705370792248004 1.5107711229519998 0 0 0
1941 6 27.998977583222 6.656265924289002 0 0 0 0
1945 9 29.645976264588 5.705370792248004 1.5107711229519998 0 0 0
1947 2 31.292974945954 6.656265924289002 0 0 0 0
1951 11 32.93997362732 5.705370792248004 1.5107711229519998 0 0 0
1953 6 34.586972308686 6.656265924289002 0 0 0 0
1957 9 36.233970990052 5.705370792248004 1.5107711229519998 0 0 0
1959 2 37.880969671418 6.656265924289002 0 0 0 0
1963 11 39.527968352784 5.705370792248004 1.5107711229519998 0 0 0
1965 6 41.17496703415 6.656265924289002 0 0 0 0
1969 9 42.821965715516 5.705370792248004 1.5107711229519998 0 0 0
1971 2 44.468964396882 6.656265924289002 0 0 0 0
1975 11 46.115963078248 5.705370792248004 1.5107711229519998 0 0 0
1977 6 47.762961759614 6.656265924289002 0 0 0 0
1803 2 51.056959122346 6.656265924289002 0 -1 0 0
1801 9 49.40996044098 5.705370792248004 1.5107711229519998 -1 0 0
1807 11 52.703957803712 5.705370792248004 1.5107711229519998 -1 0 0
1809 6 54.350956485078 6.656265924289002 0 -1 0 0
1813 9 55.997955166444 5.705370792248004 1.5107711229519998 -1 0 0
1815 2 57.64495384781 6.656265924289002 0 -1 0 0
1819 11 59.291952529176 5.705370792248004 1.5107711229519998 -1 0 0
1821 6 60.938951210542 6.656265924289002 0 -1 0 0
1825 9 62.585949891908 5.705370792248004 1.5107711229519998 -1 0 0
1827 2 64.232948573274 6.656265924289002 0 -1 0 0
1831 11 65.87994725464 5.705370792248004 1.5107711229519998 -1 0 0
1833 6 67.526945936006 6.656265924289002 0 -1 0 0
1837 9 69.173944617372 5.705370792248004 1.5107711229519998 -1 0 0
1839 2 70.820943298738 6.656265924289002 0 -1 0 0
1843 11 72.467941980104 5.705370792248004 1.5107711229519998 -1 0 0
1845 6 74.11494066147 6.656265924289002 0 -1 0 0
1849 9 75.761939342836 5.705370792248004 1.5107711229519998 -1 0 0
1851 2 77.408938024202 6.656265924289002 0 -1 0 0
1855 11 79.055936705568 5.705370792248004 1.5107711229519998 -1 0 0
1857 6 80.702935386934 6.656265924289002 0 -1 0 0
1861 9 82.3499340683 5.705370792248004 1.5107711229519998 -1 0 0
1863 2 83.996932749666 6.656265924289002 0 -1 0 0
1867 11 85.643931431032 5.705370792248004 1.5107711229519998 -1 0 0
1869 6 87.290930112398 6.656265924289002 0 -1 0 0
1873 9 88.937928793764 5.705370792248004 1.5107711229519998 -1 0 0
1875 2 90.58492747513 6.656265924289002 0 -1 0 0
1879 11 92.231926156496 5.705370792248004 1.5107711229519998 -1 0 0
1881 6 93.878924837862 6.656265924289002 0 -1 0 0
1885 9 95.525923519228 5.705370792248004 1.5107711229519998 -1 0 0
1887 2 97.172922200594 6.656265924289002 0 -1 0 0
1894 12 1.646998681366 8.558056188372007 1.5107711229519998 0 0 0
1900 10 4.940996044098 8.558056188372007 1.5107711229519998 0 0 0
1906 12 8.23499340683 8.558056188372007 1.5107711229519998 0 0 0
1912 10 11.528990769562 8.558056188372007 1.5107711229519998 0 0 0
1918 12 14.822988132294 8.558056188372007 1.5107711229519998 0 0 0
1924 10 18.116985495026 8.558056188372007 1.5107711229519998 0 0 0
1930 12 21.410982857758 8.558056188372007 1.5107711229519998 0 0 0
1936 10 24.70498022049 8.558056188372007 1.5107711229519998 0 0 0
1942 12 27.998977583222 8.558056188372007 1.5107711229519998 0 0 0
1948 10 31.292974945954 8.558056188372007 1.5107711229519998 0 0 0
1954 12 34.586972308686 8.558056188372007 1.5107711229519998 0 0 0
1960 10 37.880969671418 8.558056188372007 1.5107711229519998 0 0 0
1966 12 41.17496703415 8.558056188372007 1.5107711229519998 0 0 0
1972 10 44.468964396882 8.558056188372007 1.5107711229519998 0 0 0
1978 12 47.762961759614 8.558056188372007 1.5107711229519998 0 0 0
1804 10 51.056959122346 8.558056188372007 1.5107711229519998 -1 0 0
1810 12 54.350956485078 8.558056188372007 1.5107711229519998 -1 0 0
1816 10 57.64495384781 8.558056188372007 1.5107711229519998 -1 0 0
1822 12 60.938951210542 8.558056188372007 1.5107711229519998 -1 0 0
1828 10 64.232948573274 8.558056188372007 1.5107711229519998 -1 0 0
1834 12 67.526945936006 8.558056188372007 1.5107711229519998 -1 0 0
1840 10 70.820943298738 8.558056188372007 1.5107711229519998 -1 0 0
1846 12 74.11494066147 8.558056188372007 1.5107711229519998 -1 0 0
1852 10 77.408938024202 8.558056188372007 1.5107711229519998 -1 0 0
1858 12 80.702935386934 8.558056188372007 1.5107711229519998 -1 0 0
1864 10 83.996932749666 8.558056188372007 1.5107711229519998 -1 0 0
1870 12 87.290930112398 8.558056188372007 1.5107711229519998 -1 0 0
1876 10 90.58492747513 8.558056188372007 1.5107711229519998 -1 0 0
1882 12 93.878924837862 8.558056188372007 1.5107711229519998 -1 0 0
1888 10 97.172922200594 8.558056188372007 1.5107711229519998 -1 0 0
1896 8 0 9.508951320413004 0 0 0 0
1902 4 3.293997362732 9.508951320413004 0 0 0 0
1908 8 6.587994725464 9.508951320413004 0 0 0 0
1914 4 9.881992088196 9.508951320413004 0 0 0 0
1920 8 13.175989450928 9.508951320413004 0 0 0 0
1926 4 16.46998681366 9.508951320413004 0 0 0 0
1932 8 19.763984176392 9.508951320413004 0 0 0 0
1938 4 23.057981539124 9.508951320413004 0 0 0 0
1944 8 26.351978901856 9.508951320413004 0 0 0 0
1950 4 29.645976264588 9.508951320413004 0 0 0 0
1956 8 32.93997362732 9.508951320413004 0 0 0 0
1962 4 36.233970990052 9.508951320413004 0 0 0 0
1968 8 39.527968352784 9.508951320413004 0 0 0 0
1974 4 42.821965715516 9.508951320413004 0 0 0 0
1980 8 46.115963078248 9.508951320413004 0 0 0 0
1806 4 49.40996044098 9.508951320413004 0 -1 0 0
1812 8 52.703957803712 9.508951320413004 0 -1 0 0
1818 4 55.997955166444 9.508951320413004 0 -1 0 0
1824 8 59.291952529176 9.508951320413004 0 -1 0 0
1830 4 62.585949891908 9.508951320413004 0 -1 0 0
1836 8 65.87994725464 9.508951320413004 0 -1 0 0
1842 4 69.173944617372 9.508951320413004 0 -1 0 0
1848 8 72.467941980104 9.508951320413004 0 -1 0 0
1854 4 75.761939342836 9.508951320413004 0 -1 0 0
1860 8 79.055936705568 9.508951320413004 0 -1 0 0
1866 4 82.3499340683 9.508951320413004 0 -1 0 0
1872 8 85.643931431032 9.508951320413004 0 -1 0 0
1878 4 88.937928793764 9.508951320413004 0 -1 0 0
1884 8 92.231926156496 9.508951320413004 0 -1 0 0
1890 4 95.525923519228 9.508951320413004 0 -1 0 0
2071 11 0 11.410741584496002 1.5107711229519998 0 0 0
2077 9 3.293997362732 11.410741584496002 1.5107711229519998 0 0 0
2083 11 6.587994725464 11.410741584496002 1.5107711229519998 0 0 0
2089 9 9.881992088196 11.410741584496002 1.5107711229519998 0 0 0
2095 11 13.175989450928 11.410741584496002 1.5107711229519998 0 0 0
2101 9 16.46998681366 11.410741584496002 1.5107711229519998 0 0 0
2107 11 19.763984176392 11.410741584496002 1.5107711229519998 0 0 0
2113 9 23.057981539124 11.410741584496002 1.5107711229519998 0 0 0
2119 11 26.351978901856 11.410741584496002 1.5107711229519998 0 0 0
2125 9 29.645976264588 11.410741584496002 1.5107711229519998 0 0 0
2131 11 32.93997362732 11.410741584496002 1.5107711229519998 0 0 0
2137 9 36.233970990052 11.410741584496002 1.5107711229519998 0 0 0
2143 11 39.527968352784 11.410741584496002 1.5107711229519998 0 0 0
2149 9 42.821965715516 11.410741584496002 1.5107711229519998 0 0 0
2155 11 46.115963078248 11.410741584496002 1.5107711229519998 0 0 0
1981 9 49.40996044098 11.410741584496002 1.5107711229519998 -1 0 0
1987 11 52.703957803712 11.410741584496002 1.5107711229519998 -1 0 0
1993 9 55.997955166444 11.410741584496002 1.5107711229519998 -1 0 0
1999 11 59.291952529176 11.410741584496002 1.5107711229519998 -1 0 0
2005 9 62.585949891908 11.410741584496002 1.5107711229519998 -1 0 0
2011 11 65.87994725464 11.410741584496002 1.5107711229519998 -1 0 0
2017 9 69.173944617372 11.410741584496002 1.5107711229519998 -1 0 0
2023 11 72.467941980104 11.410741584496002 1.5107711229519998 -1 0 0
2029 9 75.761939342836 11.410741584496002 1.5107711229519998 -1 0 0
2035 11 79.055936705568 11.410741584496002 1.5107711229519998 -1 0 0
2041 9 82.3499340683 11.410741584496002 1.5107711229519998 -1 0 0
2047 11 85.643931431032 11.410741584496002 1.5107711229519998 -1 0 0
2053 9 88.937928793764 11.410741584496002 1.5107711229519998 -1 0 0
2059 11 92.231926156496 11.410741584496002 1.5107711229519998 -1 0 0
2065 9 95.525923519228 11.410741584496002 1.5107711229519998 -1 0 0
2073 6 1.646998681366 12.361636716537006 0 0 0 0
2079 2 4.940996044098 12.361636716537006 0 0 0 0
2085 6 8.23499340683 12.361636716537006 0 0 0 0
2091 2 11.528990769562 12.361636716537006 0 0 0 0
2097 6 14.822988132294 12.361636716537006 0 0 0 0
2103 2 18.116985495026 12.361636716537006 0 0 0 0
2109 6 21.410982857758 12.361636716537006 0 0 0 0
2115 2 24.70498022049 12.361636716537006 0 0 0 0
2121 6 27.998977583222 12.361636716537006 0 0 0 0
2127 2 31.292974945954 12.361636716537006 0 0 0 0
2133 6 34.586972308686 12.361636716537006 0 0 0 0
2139 2 37.880969671418 12.361636716537006 0 0 0 0
2145 6 41.17496703415 12.361636716537006 0 0 0 0
2151 2 44.468964396882 12.361636716537006 0 0 0 0
2157 6 47.762961759614 12.361636716537006 0 0 0 0
1983 2 51.056959122346 12.361636716537006 0 -1 0 0
1989 6 54.350956485078 12.361636716537006 0 -1 0 0
1995 2 57.64495384781 12.361636716537006 0 -1 0 0
2001 6 60.938951210542 12.361636716537006 0 -1 0 0
2007 2 64.232948573274 12.361636716537006 0 -1 0 0
2013 6 67.526945936006 12.361636716537006 0 -1 0 0
2019 2 70.820943298738 12.361636716537006 0 -1 0 0
2025 6 74.11494066147 12.361636716537006 0 -1 0 0
2031 2 77.408938024202 12.361636716537006 0 -1 0 0
2037 6 80.702935386934 12.361636716537006 0 -1 0 0
2043 2 83.996932749666 12.361636716537006 0 -1 0 0
2049 6 87.290930112398 12.361636716537006 0 -1 0 0
2055 2 90.58492747513 12.361636716537006 0 -1 0 0
2061 6 93.878924837862 12.361636716537006 0 -1 0 0
2067 2 97.172922200594 12.361636716537006 0 -1 0 0
2076 8 0 15.214322112661009 0 0 0 0
2074 12 1.646998681366 14.263426980619997 1.5107711229519998 0 0 0
2082 4 3.293997362732 15.214322112661009 0 0 0 0
2080 10 4.940996044098 14.263426980619997 1.5107711229519998 0 0 0
2088 8 6.587994725464 15.214322112661009 0 0 0 0
2086 12 8.23499340683 14.263426980619997 1.5107711229519998 0 0 0
2094 4 9.881992088196 15.214322112661009 0 0 0 0
2092 10 11.528990769562 14.263426980619997 1.5107711229519998 0 0 0
2100 8 13.175989450928 15.214322112661009 0 0 0 0
2098 12 14.822988132294 14.263426980619997 1.5107711229519998 0 0 0
2106 4 16.46998681366 15.214322112661009 0 0 0 0
2104 10 18.116985495026 14.263426980619997 1.5107711229519998 0 0 0
2112 8 19.763984176392 15.214322112661009 0 0 0 0
2110 12 21.410982857758 14.263426980619997 1.5107711229519998 0 0 0
2118 4 23.057981539124 15.214322112661009 0 0 0 0
2124 8 26.351978901856 15.214322112661009 0 0 0 0
2116 10 24.70498022049 14.263426980619997 1.5107711229519998 0 0 0
2122 12 27.998977583222 14.263426980619997 1.5107711229519998 0 0 0
2130 4 29.645976264588 15.214322112661009 0 0 0 0
2128 10 31.292974945954 14.263426980619997 1.5107711229519998 0 0 0
2136 8 32.93997362732 15.214322112661009 0 0 0 0
2134 12 34.586972308686 14.263426980619997 1.5107711229519998 0 0 0
2142 4 36.233970990052 15.214322112661009 0 0 0 0
2140 10 37.880969671418 14.263426980619997 1.5107711229519998 0 0 0
2148 8 39.527968352784 15.214322112661009 0 0 0 0
2146 12 41.17496703415 14.263426980619997 1.5107711229519998 0 0 0
2154 4 42.821965715516 15.214322112661009 0 0 0 0
2152 10 44.468964396882 14.263426980619997 1.5107711229519998 0 0 0
2160 8 46.115963078248 15.214322112661009 0 0 0 0
2158 12 47.762961759614 14.263426980619997 1.5107711229519998 0 0 0
1986 4 49.40996044098 15.214322112661009 0 -1 0 0
1984 10 51.056959122346 14.263426980619997 1.5107711229519998 -1 0 0
1992 8 52.703957803712 15.214322112661009 0 -1 0 0
1990 12 54.350956485078 14.263426980619997 1.5107711229519998 -1 0 0
1998 4 55.997955166444 15.214322112661009 0 -1 0 0
1996 10 57.64495384781 14.263426980619997 1.5107711229519998 -1 0 0
2004 8 59.291952529176 15.214322112661009 0 -1 0 0
2002 12 60.938951210542 14.263426980619997 1.5107711229519998 -1 0 0
2010 4 62.585949891908 15.214322112661009 0 -1 0 0
2008 10 64.232948573274 14.263426980619997 1.5107711229519998 -1 0 0
2016 8 65.87994725464 15.214322112661009 0 -1 0 0
2014 12 67.526945936006 14.263426980619997 1.5107711229519998 -1 0 0
2022 4 69.173944617372 15.214322112661009 0 -1 0 0
2020 10 70.820943298738 14.263426980619997 1.5107711229519998 -1 0 0
2028 8 72.467941980104 15.214322112661009 0 -1 0 0
2034 4 75.761939342836 15.214322112661009 0 -1 0 0
2026 12 74.11494066147 14.263426980619997 1.5107711229519998 -1 0 0
2032 10 77.408938024202 14.263426980619997 1.5107711229519998 -1 0 0
2040 8 79.055936705568 15.214322112661009 0 -1 0 0
2038 12 80.702935386934 14.263426980619997 1.5107711229519998 -1 0 0
2046 4 82.3499340683 15.214322112661009 0 -1 0 0
2044 10 83.996932749666 14.263426980619997 1.5107711229519998 -1 0 0
2052 8 85.643931431032 15.214322112661009 0 -1 0 0
2050 12 87.290930112398 14.263426980619997 1.5107711229519998 -1 0 0
2058 4 88.937928793764 15.214322112661009 0 -1 0 0
2056 10 90.58492747513 14.263426980619997 1.5107711229519998 -1 0 0
2064 8 92.231926156496 15.214322112661009 0 -1 0 0
2062 12 93.878924837862 14.263426980619997 1.5107711229519998 -1 0 0
2070 4 95.525923519228 15.214322112661009 0 -1 0 0
2068 10 97.172922200594 14.263426980619997 1.5107711229519998 -1 0 0
2251 11 0 17.116112376744 1.5107711229519998 0 0 0
2257 9 3.293997362732 17.116112376744 1.5107711229519998 0 0 0
2263 11 6.587994725464 17.116112376744 1.5107711229519998 0 0 0
2269 9 9.881992088196 17.116112376744 1.5107711229519998 0 0 0
2275 11 13.175989450928 17.116112376744 1.5107711229519998 0 0 0
2281 9 16.46998681366 17.116112376744 1.5107711229519998 0 0 0
2287 11 19.763984176392 17.116112376744 1.5107711229519998 0 0 0
2293 9 23.057981539124 17.116112376744 1.5107711229519998 0 0 0
2299 11 26.351978901856 17.116112376744 1.5107711229519998 0 0 0
2305 9 29.645976264588 17.116112376744 1.5107711229519998 0 0 0
2311 11 32.93997362732 17.116112376744 1.5107711229519998 0 0 0
2317 9 36.233970990052 17.116112376744 1.5107711229519998 0 0 0
2323 11 39.527968352784 17.116112376744 1.5107711229519998 0 0 0
2329 9 42.821965715516 17.116112376744 1.5107711229519998 0 0 0
2335 11 46.115963078248 17.116112376744 1.5107711229519998 0 0 0
2161 9 49.40996044098 17.116112376744 1.5107711229519998 -1 0 0
2167 11 52.703957803712 17.116112376744 1.5107711229519998 -1 0 0
2173 9 55.997955166444 17.116112376744 1.5107711229519998 -1 0 0
2179 11 59.291952529176 17.116112376744 1.5107711229519998 -1 0 0
2185 9 62.585949891908 17.116112376744 1.5107711229519998 -1 0 0
2191 11 65.87994725464 17.116112376744 1.5107711229519998 -1 0 0
2197 9 69.173944617372 17.116112376744 1.5107711229519998 -1 0 0
2203 11 72.467941980104 17.116112376744 1.5107711229519998 -1 0 0
2209 9 75.761939342836 17.116112376744 1.5107711229519998 -1 0 0
2215 11 79.055936705568 17.116112376744 1.5107711229519998 -1 0 0
2221 9 82.3499340683 17.116112376744 1.5107711229519998 -1 0 0
2227 11 85.643931431032 17.116112376744 1.5107711229519998 -1 0 0
2233 9 88.937928793764 17.116112376744 1.5107711229519998 -1 0 0
2239 11 92.231926156496 17.116112376744 1.5107711229519998 -1 0 0
2245 9 95.525923519228 17.116112376744 1.5107711229519998 -1 0 0
2253 6 1.646998681366 18.067007508784997 0 0 0 0
2259 2 4.940996044098 18.067007508784997 0 0 0 0
2265 6 8.23499340683 18.067007508784997 0 0 0 0
2271 2 11.528990769562 18.067007508784997 0 0 0 0
2277 6 14.822988132294 18.067007508784997 0 0 0 0
2283 2 18.116985495026 18.067007508784997 0 0 0 0
2289 6 21.410982857758 18.067007508784997 0 0 0 0
2295 2 24.70498022049 18.067007508784997 0 0 0 0
2301 6 27.998977583222 18.067007508784997 0 0 0 0
2307 2 31.292974945954 18.067007508784997 0 0 0 0
2313 6 34.586972308686 18.067007508784997 0 0 0 0
2319 2 37.880969671418 18.067007508784997 0 0 0 0
2325 6 41.17496703415 18.067007508784997 0 0 0 0
2331 2 44.468964396882 18.067007508784997 0 0 0 0
2337 6 47.762961759614 18.067007508784997 0 0 0 0
2163 2 51.056959122346 18.067007508784997 0 -1 0 0
2169 6 54.350956485078 18.067007508784997 0 -1 0 0
2175 2 57.64495384781 18.067007508784997 0 -1 0 0
2181 6 60.938951210542 18.067007508784997 0 -1 0 0
2187 2 64.232948573274 18.067007508784997 0 -1 0 0
2193 6 67.526945936006 18.067007508784997 0 -1 0 0
2199 2 70.820943298738 18.067007508784997 0 -1 0 0
2205 6 74.11494066147 18.067007508784997 0 -1 0 0
2211 2 77.408938024202 18.067007508784997 0 -1 0 0
2217 6 80.702935386934 18.067007508784997 0 -1 0 0
2223 2 83.996932749666 18.067007508784997 0 -1 0 0
2229 6 87.290930112398 18.067007508784997 0 -1 0 0
2235 2 90.58492747513 18.067007508784997 0 -1 0 0
2241 6 93.878924837862 18.067007508784997 0 -1 0 0
2247 2 97.172922200594 18.067007508784997 0 -1 0 0
2254 12 1.646998681366 19.968797772868 1.5107711229519998 0 0 0
2260 10 4.940996044098 19.968797772868 1.5107711229519998 0 0 0
2266 12 8.23499340683 19.968797772868 1.5107711229519998 0 0 0
2272 10 11.528990769562 19.968797772868 1.5107711229519998 0 0 0
2278 12 14.822988132294 19.968797772868 1.5107711229519998 0 0 0
2284 10 18.116985495026 19.968797772868 1.5107711229519998 0 0 0
2290 12 21.410982857758 19.968797772868 1.5107711229519998 0 0 0
2296 10 24.70498022049 19.968797772868 1.5107711229519998 0 0 0
2302 12 27.998977583222 19.968797772868 1.5107711229519998 0 0 0
2308 10 31.292974945954 19.968797772868 1.5107711229519998 0 0 0
2314 12 34.586972308686 19.968797772868 1.5107711229519998 0 0 0
2320 10 37.880969671418 19.968797772868 1.5107711229519998 0 0 0
2326 12 41.17496703415 19.968797772868 1.5107711229519998 0 0 0
2332 10 44.468964396882 19.968797772868 1.5107711229519998 0 0 0
2338 12 47.762961759614 19.968797772868 1.5107711229519998 0 0 0
2164 10 51.056959122346 19.968797772868 1.5107711229519998 -1 0 0
2170 12 54.350956485078 19.968797772868 1.5107711229519998 -1 0 0
2176 10 57.64495384781 19.968797772868 1.5107711229519998 -1 0 0
2182 12 60.938951210542 19.968797772868 1.5107711229519998 -1 0 0
2188 10 64.232948573274 19.968797772868 1.5107711229519998 -1 0 0
2194 12 67.526945936006 19.968797772868 1.5107711229519998 -1 0 0
2200 10 70.820943298738 19.968797772868 1.5107711229519998 -1 0 0
2206 12 74.11494066147 19.968797772868 1.5107711229519998 -1 0 0
2212 10 77.408938024202 19.968797772868 1.5107711229519998 -1 0 0
2218 12 80.702935386934 19.968797772868 1.5107711229519998 -1 0 0
2224 10 83.996932749666 19.968797772868 1.5107711229519998 -1 0 0
2230 12 87.290930112398 19.968797772868 1.5107711229519998 -1 0 0
2236 10 90.58492747513 19.968797772868 1.5107711229519998 -1 0 0
2242 12 93.878924837862 19.968797772868 1.5107711229519998 -1 0 0
2248 10 97.172922200594 19.968797772868 1.5107711229519998 -1 0 0
2256 8 0 20.919692904909 0 0 0 0
2262 4 3.293997362732 20.919692904909 0 0 0 0
2268 8 6.587994725464 20.919692904909 0 0 0 0
2274 4 9.881992088196 20.919692904909 0 0 0 0
2280 8 13.175989450928 20.919692904909 0 0 0 0
2286 4 16.46998681366 20.919692904909 0 0 0 0
2292 8 19.763984176392 20.919692904909 0 0 0 0
2298 4 23.057981539124 20.919692904909 0 0 0 0
2304 8 26.351978901856 20.919692904909 0 0 0 0
2310 4 29.645976264588 20.919692904909 0 0 0 0
2316 8 32.93997362732 20.919692904909 0 0 0 0
2322 4 36.233970990052 20.919692904909 0 0 0 0
2328 8 39.527968352784 20.919692904909 0 0 0 0
2334 4 42.821965715516 20.919692904909 0 0 0 0
2340 8 46.115963078248 20.919692904909 0 0 0 0
2166 4 49.40996044098 20.919692904909 0 -1 0 0
2172 8 52.703957803712 20.919692904909 0 -1 0 0
2178 4 55.997955166444 20.919692904909 0 -1 0 0
2184 8 59.291952529176 20.919692904909 0 -1 0 0
2190 4 62.585949891908 20.919692904909 0 -1 0 0
2196 8 65.87994725464 20.919692904909 0 -1 0 0
2202 4 69.173944617372 20.919692904909 0 -1 0 0
2208 8 72.467941980104 20.919692904909 0 -1 0 0
2214 4 75.761939342836 20.919692904909 0 -1 0 0
2220 8 79.055936705568 20.919692904909 0 -1 0 0
2226 4 82.3499340683 20.919692904909 0 -1 0 0
2232 8 85.643931431032 20.919692904909 0 -1 0 0
2238 4 88.937928793764 20.919692904909 0 -1 0 0
2244 8 92.231926156496 20.919692904909 0 -1 0 0
2250 4 95.525923519228 20.919692904909 0 -1 0 0
2433 6 1.646998681366 23.772378301033 0 0 0 0
2431 11 0 22.821483168992003 1.5107711229519998 0 0 0
2437 9 3.293997362732 22.821483168992003 1.5107711229519998 0 0 0
2439 2 4.940996044098 23.772378301033 0 0 0 0
2443 11 6.587994725464 22.821483168992003 1.5107711229519998 0 0 0
2445 6 8.23499340683 23.772378301033 0 0 0 0
2449 9 9.881992088196 22.821483168992003 1.5107711229519998 0 0 0
2451 2 11.528990769562 23.772378301033 0 0 0 0
2455 11 13.175989450928 22.821483168992003 1.5107711229519998 0 0 0
2457 6 14.822988132294 23.772378301033 0 0 0 0
2461 9 16.46998681366 22.821483168992003 1.5107711229519998 0 0 0
2463 2 18.116985495026 23.772378301033 0 0 0 0
2467 11 19.763984176392 22.821483168992003 1.5107711229519998 0 0 0
2469 6 21.410982857758 23.772378301033 0 0 0 0
2473 9 23.057981539124 22.821483168992003 1.5107711229519998 0 0 0
2475 2 24.70498022049 23.772378301033 0 0 0 0
2479 11 26.351978901856 22.821483168992003 1.5107711229519998 0 0 0
2481 6 27.998977583222 23.772378301033 0 0 0 0
2485 9 29.645976264588 22.821483168992003 1.5107711229519998 0 0 0
2487 2 31.292974945954 23.772378301033 0 0 0 0
2491 11 32.93997362732 22.821483168992003 1.5107711229519998 0 0 0
2493 6 34.586972308686 23.772378301033 0 0 0 0
2497 9 36.233970990052 22.821483168992003 1.5107711229519998 0 0 0
2499 2 37.880969671418 23.772378301033 0 0 0 0
2503 11 39.527968352784 22.821483168992003 1.5107711229519998 0 0 0
2505 6 41.17496703415 23.772378301033 0 0 0 0
2509 9 42.821965715516 22.821483168992003 1.5107711229519998 0 0 0
2511 2 44.468964396882 23.772378301033 0 0 0 0
2515 11 46.115963078248 22.821483168992003 1.5107711229519998 0 0 0
2517 6 47.762961759614 23.772378301033 0 0 0 0
2343 2 51.056959122346 23.772378301033 0 -1 0 0
2341 9 49.40996044098 22.821483168992003 1.5107711229519998 -1 0 0
2347 11 52.703957803712 22.821483168992003 1.5107711229519998 -1 0 0
2349 6 54.350956485078 23.772378301033 0 -1 0 0
2353 9 55.997955166444 22.821483168992003 1.5107711229519998 -1 0 0
2355 2 57.64495384781 23.772378301033 0 -1 0 0
2359 11 59.291952529176 22.821483168992003 1.5107711229519998 -1 0 0
2361 6 60.938951210542 23.772378301033 0 -1 0 0
2365 9 62.585949891908 22.821483168992003 1.5107711229519998 -1 0 0
2367 2 64.232948573274 23.772378301033 0 -1 0 0
2371 11 65.87994725464 22.821483168992003 1.5107711229519998 -1 0 0
2373 6 67.526945936006 23.772378301033 0 -1 0 0