LAMMPS data file via write_data, version 29 Aug 2024, timestep = 147, units = metal

9720 atoms
36 atom types

0 98.81992088196 xlo xhi
0 102.696674260464 ylo yhi
-50 50 zlo zhi

Masses

1 55.845
2 55.845
3 55.845
4 55.845
5 55.845
6 55.845
7 55.845
8 55.845
9 55.845
10 55.845
11 55.845
12 55.845
13 78.971
14 78.971
15 78.971
16 78.971
17 78.971
18 78.971
19 78.971
20 78.971
21 78.971
22 78.971
23 78.971
24 78.971
25 78.971
26 78.971
27 78.971
28 78.971
29 78.971
30 78.971
31 78.971
32 78.971
33 78.971
34 78.971
35 78.971
36 78.971

Atoms # atomic

1713 14 0.5358138785872064 0.5240288216147849 2.1191615034758597 0 0 0
1711 19 0.8352897993950879 0.6001037505266297 2.05642765441611 0 0 0
1714 20 2.868394841692425 2.0235301188765273 0.7438155959787203 0 0 0
1720 18 5.547603166584279 3.597264913262542 1.581126451623856 0 0 0
1716 16 0.15221125606533442 3.4751852219486943 1.1498676980757199 0 0 0
1722 4 4.0160644400004655 3.858731902219981 -0.18351749016207078 0 0 0
1897 17 2.857662766008809 4.573863818999365 1.7200519001895667 0 0 0
1712 13 1.738638772524004 1.5592403387583518 2.4670669545243995 0 0 0
1721 3 3.767106012913467 2.6945322153431195 2.796904851050985 0 0 0
1898 1 4.8335429171050235 5.700593887962771 2.360086876737809 0 0 0
1719 2 6.489952432775507 1.4053207137157073 0.048039167970243796 0 0 0
1723 19 7.423284524858931 0.600103750526336 2.0564276544160163 0 0 0
1725 14 7.1238086040511375 0.5240288216147572 2.119161503475808 0 0 0
1726 20 9.45638956715649 2.0235301188764914 0.7438155959787636 0 0 0
1728 16 6.740205981529377 3.4751852219485353 1.149867698075987 0 0 0
1734 4 10.6040591654644 3.858731902219952 -0.18351749016205166 0 0 0
1909 17 9.445657491472927 4.573863818999326 1.7200519001895087 0 0 0
1724 13 8.32663349798806 1.5592403387583427 2.467066954524361 0 0 0
1727 15 6.019777408775299 4.238538390740046 0.9987983511057641 0 0 0
1733 3 10.355100738377374 2.694532215343141 2.7969048510509626 0 0 0
1910 1 11.421537642568833 5.700593887962957 2.3600868767378853 0 0 0
1731 2 13.077947158239487 1.4053207137157289 0.04803916797024459 0 0 0
1732 18 12.135597892048404 3.597264913262434 1.581126451623909 0 0 0
1735 19 14.011279250322938 0.600103750526349 2.0564276544160087 0 0 0
1737 14 13.711803329515115 0.5240288216147587 2.1191615034758193 0 0 0
1738 20 16.0443842926205 2.0235301188764647 0.7438155959787995 0 0 0
1740 16 13.328200706993421 3.4751852219485206 1.1498676980759326 0 0 0
1746 4 17.19205389092841 3.858731902219951 -0.18351749016207536 0 0 0
1921 17 16.033652216937 4.573863818999295 1.7200519001894776 0 0 0
1736 13 14.914628223452079 1.5592403387583407 2.467066954524377 0 0 0
1739 15 12.607772134239372 4.238538390739879 0.9987983511058046 0 0 0
1745 3 16.943095463841303 2.694532215343207 2.7969048510510355 0 0 0
1743 2 19.66594188370345 1.4053207137157409 0.048039167970305455 0 0 0
1747 19 20.59927397578689 0.6001037505263688 2.0564276544159705 0 0 0
1749 14 20.299798054979153 0.5240288216148586 2.1191615034757647 0 0 0
1744 18 18.723592617512463 3.597264913262411 1.5811264516239447 0 0 0
1750 20 22.632379018084464 2.0235301188764256 0.7438155959788383 0 0 0
1752 16 19.916195432457354 3.4751852219485784 1.1498676980757867 0 0 0
1933 17 22.62164694240105 4.57386381899929 1.7200519001895558 0 0 0
1748 13 21.502622948916063 1.5592403387582945 2.467066954524425 0 0 0
1751 15 19.195766859703404 4.238538390739792 0.9987983511058459 0 0 0
1922 1 18.009532368032765 5.700593887963045 2.3600868767378818 0 0 0
1758 4 23.78004861639233 3.8587319022198767 -0.18351749016229568 0 0 0
1755 2 26.25393660916719 1.405320713715612 0.04803916796970898 0 0 0
1759 19 27.187268701250964 0.6001037505263918 2.056427654416217 0 0 0
1761 14 26.88779278044325 0.524028821614741 2.119161503475997 0 0 0
1756 18 25.31158734297653 3.5972649132623804 1.5811264516240686 0 0 0
1764 16 26.50419015792132 3.475185221948845 1.14986769807566 0 0 0
1757 3 23.53109018930523 2.694532215343217 2.796904851051082 0 0 0
1760 13 28.090617674379796 1.5592403387584128 2.4670669545243333 0 0 0
1763 15 25.7837615851674 4.238538390739875 0.9987983511061073 0 0 0
1934 1 24.597527093496716 5.700593887963032 2.360086876737737 0 0 0
1762 20 29.220373743548315 2.023530118876652 0.7438155959783935 0 0 0
1767 2 32.84193133463164 1.4053207137159283 0.04803916797059169 0 0 0
1771 19 33.77526342671487 0.6001037505261747 2.0564276544159776 0 0 0
1773 14 33.475787505906865 0.5240288216146921 2.1191615034758975 0 0 0
1768 18 31.899582068439766 3.597264913262909 1.5811264516234864 0 0 0
1770 4 30.368043341856602 3.8587319022202213 -0.183517490161677 0 0 0
1776 16 33.09218488338564 3.4751852219481165 1.1498676980765903 0 0 0
1945 17 29.209641667864332 4.573863818999466 1.7200519001896433 0 0 0
1772 13 34.678612399844155 1.5592403387583484 2.4670669545242148 0 0 0
1769 3 30.119084914769864 2.6945322153428877 2.7969048510507353 0 0 0
1775 15 32.37175631063103 4.23853839074049 0.998798351105183 0 0 0
1946 1 31.18552181896157 5.700593887962236 2.3600868767378644 0 0 0
1774 20 35.80836846901246 2.023530118876477 0.7438155959788457 0 0 0
1779 2 39.42992606009552 1.4053207137158903 0.04803916797017837 0 0 0
1783 19 40.36325815217891 0.6001037505263435 2.0564276544159927 0 0 0
1780 18 38.48757679390448 3.5972649132623435 1.5811264516238661 0 0 0
1782 4 36.95603806732015 3.8587319022199673 -0.18351749016190969 0 0 0
1788 16 39.68017960884954 3.4751852219484385 1.1498676980758642 0 0 0
1785 14 40.06378223137112 0.5240288216148521 2.1191615034758753 0 0 0
1957 17 35.797636393329014 4.573863818999267 1.720051900189495 0 0 0
1781 3 36.70707964023329 2.694532215343209 2.7969048510509227 0 0 0
1787 15 38.95975103609537 4.238538390739718 0.9987983511056815 0 0 0
1958 1 37.773516544424574 5.70059388796311 2.360086876738036 0 0 0
1791 2 46.017920785559554 1.4053207137157522 0.048039167970386376 0 0 0
1786 20 42.39636319447647 2.0235301188765304 0.7438155959787712 0 0 0
1792 18 45.07557151936838 3.5972649132624417 1.5811264516239039 0 0 0
1794 4 43.54403279278439 3.858731902219982 -0.1835174901620686 0 0 0
1800 16 46.26817433431339 3.475185221948531 1.149867698075907 0 0 0
1969 17 42.38563111879293 4.573863818999335 1.7200519001895247 0 0 0
1784 13 41.266607125308006 1.5592403387583573 2.4670669545243604 0 0 0
1793 3 43.295074365697346 2.6945322153431177 2.7969048510509613 0 0 0
1799 15 45.54774576155939 4.238538390739907 0.9987983511057392 0 0 0
1970 1 44.36151126988881 5.7005938879629525 2.3600868767379004 0 0 0
1795 19 46.95125287764289 0.6001037505263697 2.056427654415953 0 0 0
1797 14 46.65177695683508 0.524028821614826 2.119161503475769 0 0 0
1798 20 48.984357919940564 2.0235301188764265 0.7438155959788818 0 0 0
1624 18 51.66356624483259 3.597264913262239 1.5811264516241061 -1 0 0
1626 4 50.13202751824836 3.8587319022198217 -0.18351749016230134 -1 0 0
1801 17 48.97362584425711 4.573863818999274 1.7200519001894932 -1 0 0
1796 13 47.854601850772106 1.5592403387583142 2.467066954524396 0 0 0
1625 3 49.88306909116117 2.694532215343213 2.796904851051068 -1 0 0
1631 15 52.135740487023504 4.2385383907397784 0.9987983511060806 -1 0 0
1802 1 50.949505995352574 5.700593887963073 2.36008687673787 -1 0 0
1623 2 52.605915511023305 1.405320713715618 0.04803916797000644 -1 0 0
1627 19 53.53924760310693 0.6001037505264378 2.0564276544160767 -1 0 0
1629 14 53.2397716822992 0.5240288216147899 2.1191615034758287 -1 0 0
1630 20 55.57235264540444 2.0235301188765167 0.7438155959786561 -1 0 0
1632 16 52.85616905977726 3.475185221948783 1.149867698075625 -1 0 0
1638 4 56.720022243712535 3.8587319022199904 -0.18351749016208385 -1 0 0
1813 17 55.561620569720795 4.573863818999354 1.720051900189562 -1 0 0
1628 13 54.44259657623594 1.559240338758328 2.467066954524452 -1 0 0
1637 3 56.47106381662548 2.694532215343057 2.796904851050954 -1 0 0
1814 1 57.53750072081709 5.700593887962767 2.360086876737766 -1 0 0
1635 2 59.19391023648747 1.4053207137156978 0.048039167970286505 -1 0 0
1636 18 58.25156097029626 3.597264913262579 1.5811264516238506 -1 0 0
1639 19 60.127242328570965 0.6001037505264316 2.056427654416013 -1 0 0
1641 14 59.82776640776307 0.5240288216147302 2.119161503475803 -1 0 0
1642 20 62.160347370868486 2.023530118876433 0.7438155959787167 -1 0 0
1644 16 59.444163785241386 3.47518522194854 1.149867698076019 -1 0 0
1650 4 63.30801696917642 3.8587319022199815 -0.18351749016207278 -1 0 0
1825 17 62.149615295185 4.573863818999256 1.7200519001894714 -1 0 0
1640 13 61.03059130170006 1.5592403387583167 2.4670669545243773 -1 0 0
1643 15 58.7237352124873 4.2385383907400955 0.9987983511057601 -1 0 0
1649 3 63.059058542089325 2.6945322153431834 2.7969048510509906 -1 0 0
1647 2 65.78190496195143 1.4053207137157746 0.04803916797034277 -1 0 0
1651 19 66.71523705403509 0.6001037505267296 2.056427654416044 -1 0 0
1653 14 66.41576113322715 0.5240288216148802 2.1191615034758073 -1 0 0
1648 18 64.8395556957605 3.5972649132623955 1.581126451623896 -1 0 0
1654 20 68.74834209633245 2.0235301188763963 0.7438155959788879 -1 0 0
1656 16 66.03215851070537 3.4751852219486357 1.1498676980757998 -1 0 0
1837 17 68.73761002064906 4.5738638189993095 1.7200519001894494 -1 0 0
1652 13 67.6185860271641 1.5592403387583516 2.4670669545244017 -1 0 0
1655 15 65.3117299379514 4.238538390739797 0.9987983511057704 -1 0 0
1661 3 69.64705326755326 2.6945322153434095 2.7969048510511936 -1 0 0
1826 1 64.12549544628078 5.700593887963045 2.3600868767379075 -1 0 0
1662 4 69.89601169464045 3.858731902219904 -0.18351749016211744 -1 0 0
1659 2 72.36989968741545 1.4053207137156265 0.04803916797027025 -1 0 0
1663 19 73.30323177949909 0.600103750526695 2.0564276544159816 -1 0 0
1665 14 73.00375585869118 0.5240288216148455 2.1191615034756768 -1 0 0
1660 18 71.42755042122455 3.5972649132623955 1.5811264516240162 -1 0 0
1666 20 75.33633682179654 2.023530118876465 0.743815595978926 -1 0 0
1668 16 72.62015323616933 3.475185221948663 1.1498676980755964 -1 0 0
1849 17 75.32560474611314 4.573863818999291 1.7200519001895236 -1 0 0
1664 13 74.2065807526281 1.5592403387582734 2.4670669545245474 -1 0 0
1667 15 71.89972466341537 4.238538390739526 0.9987983511061184 -1 0 0
1838 1 70.71349017174472 5.70059388796329 2.360086876737746 -1 0 0
1671 2 78.95789441287923 1.4053207137155448 0.04803916797005272 -1 0 0
1675 19 79.89122650496306 0.6001037505267144 2.056427654416098 -1 0 0
1677 14 79.59175058415524 0.5240288216149074 2.1191615034758264 -1 0 0
1672 18 78.01554514668867 3.597264913262302 1.581126451624127 -1 0 0
1674 4 76.48400642010436 3.8587319022198256 -0.1835174901623123 -1 0 0
1680 16 79.20814796163317 3.4751852219489616 1.1498676980753801 -1 0 0
1676 13 80.79457547809197 1.5592403387583451 2.467066954524509 -1 0 0
1673 3 76.23504799301712 2.694532215343298 2.7969048510511625 -1 0 0
1679 15 78.48771938887951 4.238538390739649 0.9987983511061873 -1 0 0
1850 1 77.30148489720858 5.700593887963353 2.3600868767377223 -1 0 0
1678 20 81.92433154726037 2.0235301188764883 0.7438155959788404 -1 0 0
1683 2 85.54588913834348 1.405320713715502 0.04803916797013206 -1 0 0
1687 19 86.47922123042704 0.6001037505264097 2.056427654416056 -1 0 0
1684 18 84.60353987215224 3.5972649132626224 1.5811264516239647 -1 0 0
1686 4 83.07200114556854 3.8587319022199007 -0.18351749016215882 -1 0 0
1692 16 85.7961426870973 3.475185221948613 1.149867698075862 -1 0 0
1689 14 86.17974530961912 0.5240288216146556 2.1191615034758042 -1 0 0
1861 17 81.91359947157677 4.5738638189994285 1.7200519001895727 -1 0 0
1685 3 82.82304271848145 2.694532215343288 2.7969048510511776 -1 0 0
1691 15 85.0757141143432 4.238538390739874 0.9987983511061302 -1 0 0
1862 1 83.88947962267306 5.700593887962964 2.3600868767375114 -1 0 0
1695 2 92.13388386380751 1.4053207137157335 0.04803916797036523 -1 0 0
1690 20 88.5123262727244 2.023530118876506 0.7438155959787756 -1 0 0
1696 18 91.19153459761637 3.597264913262537 1.581126451623839 -1 0 0
1698 4 89.65999587103244 3.8587319022199886 -0.18351749016202026 -1 0 0
1704 16 92.38413741256143 3.4751852219485277 1.1498676980759341 -1 0 0
1701 14 92.7677400350831 0.524028821614802 2.1191615034757785 -1 0 0
1873 17 88.50159419704089 4.573863818999348 1.7200519001895949 -1 0 0
1688 13 87.38257020355603 1.5592403387583331 2.467066954524453 -1 0 0
1697 3 89.41103744394542 2.6945322153431337 2.7969048510509844 -1 0 0
1703 15 91.66370883980733 4.238538390739939 0.9987983511057086 -1 0 0
1874 1 90.47747434813691 5.700593887962964 2.360086876737823 -1 0 0
1699 19 93.06721595589094 0.6001037505264291 2.0564276544159736 -1 0 0
1707 2 98.72187858927141 1.4053207137156771 0.0480391679700836 -1 0 0
1702 20 95.10032099818852 2.023530118876476 0.7438155959788312 -1 0 0
1708 18 97.77952932308054 3.5972649132623187 1.5811264516240366 -1 0 0
1710 4 96.24799059649634 3.858731902219891 -0.18351749016218905 -1 0 0
1885 17 95.08958892250504 4.5738638189992935 1.7200519001895078 -1 0 0
1715 15 98.25170356527146 4.238538390739811 0.9987983511059474 -1 0 0
1700 13 93.97056492902007 1.5592403387583211 2.467066954524361 -1 0 0
1709 3 95.99903216940926 2.6945322153432096 2.7969048510510293 -1 0 0
1886 1 97.06546907360067 5.700593887963043 2.3600868767378724 -1 0 0
1893 14 0.5358138785871192 6.229399613862822 2.1191615034757945 0 0 0
1891 19 0.83528979939499 6.305474542774724 2.0564276544160776 0 0 0
1894 20 2.868394841692624 7.728900911124499 0.7438155959786104 0 0 0
1900 18 5.547603166584427 9.302635705510319 1.5811264516239933 0 0 0
1896 16 0.15221125606519062 9.180556014196911 1.1498676980757367 0 0 0
1902 4 4.01606444000055 9.564102694467946 -0.18351749016224092 0 0 0
2077 17 2.8576627660088953 10.279234611247276 1.7200519001895027 0 0 0
1892 13 1.7386387725240149 7.264611131006335 2.4670669545243737 0 0 0
1901 3 3.7671060129134037 8.399903007591059 2.7969048510509515 0 0 0
2078 1 4.833542917104829 11.405964680210696 2.360086876737995 0 0 0
1899 2 6.489952432775396 7.110691505963692 0.04803916797034551 0 0 0
1903 19 7.423284524858939 6.305474542774546 2.0564276544160416 0 0 0
1905 14 7.123808604051065 6.229399613862776 2.1191615034757807 0 0 0
1906 20 9.456389567156661 7.72890091112447 0.7438155959786233 0 0 0
1908 16 6.740205981529276 9.180556014196755 1.1498676980758522 0 0 0
1914 4 10.604059165464522 9.564102694467932 -0.1835174901622526 0 0 0
2089 17 9.445657491472977 10.279234611247233 1.7200519001894734 0 0 0
1904 13 8.32663349798805 7.2646111310063315 2.4670669545243458 0 0 0
1907 15 6.019777408775524 9.943909182988124 0.9987983511058091 0 0 0
1913 3 10.355100738377331 8.39990300759106 2.7969048510509467 0 0 0
2090 1 11.421537642568723 11.405964680210772 2.3600868767380847 0 0 0
1911 2 13.077947158239388 7.1106915059637235 0.04803916797041567 0 0 0
1912 18 12.135597892048517 9.302635705510232 1.5811264516240184 0 0 0
1915 19 14.011279250322902 6.305474542774579 2.0564276544160016 0 0 0
1917 14 13.711803329515076 6.22939961386283 2.119161503475749 0 0 0
1918 20 16.044384292620663 7.728900911124424 0.7438155959786896 0 0 0
1920 16 13.328200706993254 9.180556014196766 1.1498676980757985 0 0 0
1926 4 17.192053890928516 9.564102694467893 -0.1835174901623464 0 0 0
2101 17 16.03365221693707 10.279234611247238 1.7200519001894414 0 0 0
1916 13 14.914628223452064 7.264611131006332 2.467066954524345 0 0 0
1919 15 12.607772134239585 9.943909182988087 0.9987983511057718 0 0 0
1925 3 16.943095463841235 8.39990300759115 2.796904851051031 0 0 0
1923 2 19.665941883703404 7.110691505963664 0.048039167970402974 0 0 0
1927 19 20.59927397578694 6.305474542774626 2.0564276544160247 0 0 0
1929 14 20.29979805497909 6.2293996138628165 2.119161503475741 0 0 0
1924 18 18.723592617512598 9.302635705510179 1.581126451624102 0 0 0
1930 20 22.632379018084674 7.728900911124438 0.7438155959787373 0 0 0
1932 16 19.916195432457215 9.180556014196883 1.149867698075673 0 0 0
2113 17 22.62164694240106 10.279234611247235 1.7200519001894696 0 0 0
1928 13 21.50262294891608 7.264611131006296 2.4670669545244115 0 0 0
1931 15 19.195766859703614 9.943909182987918 0.9987983511059445 0 0 0
2102 1 18.009532368032595 11.405964680210941 2.3600868767380203 0 0 0
1938 4 23.78004861639248 9.564102694467824 -0.18351749016243263 0 0 0
1935 2 26.253936609167205 7.110691505963599 0.048039167970071475 0 0 0
1939 19 27.18726870125095 6.305474542774614 2.056427654416143 0 0 0
1941 14 26.887792780443164 6.229399613862787 2.1191615034758375 0 0 0
1936 18 25.311587342976598 9.302635705510164 1.5811264516241557 0 0 0
1944 16 26.504190157921148 9.180556014196984 1.149867698075627 0 0 0
1937 3 23.531090189305218 8.399903007591124 2.796904851051046 0 0 0
1940 13 28.09061767437993 7.264611131006384 2.4670669545243706 0 0 0
1943 15 25.783761585167614 9.943909182988016 0.9987983511060408 0 0 0
2114 1 24.597527093496595 11.405964680210866 2.360086876737972 0 0 0
1942 20 29.220373743548603 7.728900911124594 0.7438155959785472 0 0 0
1947 2 32.84193133463152 7.110691505963673 0.048039167970479774 0 0 0
1951 19 33.77526342671492 6.305474542774409 2.056427654415979 0 0 0
1953 14 33.475787505906915 6.229399613862639 2.1191615034757585 0 0 0
1948 18 31.899582068440182 9.302635705510488 1.5811264516238888 0 0 0
1950 4 30.36804334185664 9.56410269446798 -0.1835174901620989 0 0 0
1956 16 33.09218488338538 9.180556014196464 1.1498676980761224 0 0 0
2125 17 29.20964166786468 10.279234611247375 1.720051900189532 0 0 0
1952 13 34.678612399844084 7.264611131006303 2.467066954524335 0 0 0
1949 3 30.119084914769555 8.399903007590986 2.7969048510508796 0 0 0
1955 15 32.37175631063139 9.94390918298826 0.9987983511057218 0 0 0
2126 1 31.1855218189611 11.405964680210491 2.360086876737939 0 0 0
1954 20 35.80836846901261 7.728900911124426 0.7438155959786581 0 0 0
1959 2 39.4299260600954 7.1106915059638025 0.04803916797031754 0 0 0
1963 19 40.363258152178936 6.305474542774639 2.056427654416027 0 0 0
1960 18 38.48757679390465 9.302635705510204 1.5811264516240149 0 0 0
1962 4 36.9560380673204 9.564102694468 -0.18351749016226082 0 0 0
1968 16 39.680179608849336 9.180556014196839 1.149867698075755 0 0 0
1965 14 40.06378223137108 6.229399613862853 2.119161503475822 0 0 0
2137 17 35.79763639332916 10.279234611247196 1.7200519001894818 0 0 0
1961 3 36.70707964023325 8.399903007591032 2.796904851050918 0 0 0
1967 15 38.959751036095625 9.943909182987984 0.9987983511057176 0 0 0
2138 1 37.77351654442459 11.405964680210962 2.3600868767381087 0 0 0
1971 2 46.01792078555939 7.110691505963716 0.04803916797041981 0 0 0
1966 20 42.39636319447666 7.728900911124446 0.7438155959785998 0 0 0
1972 18 45.07557151936845 9.302635705510237 1.5811264516240229 0 0 0
1974 4 43.544032792784535 9.564102694467914 -0.1835174901622923 0 0 0
1980 16 46.26817433431324 9.180556014196776 1.1498676980758469 0 0 0
2149 17 42.38563111879293 10.279234611247237 1.720051900189458 0 0 0
1964 13 41.266607125308 7.264611131006339 2.4670669545243364 0 0 0
1973 3 43.29507436569732 8.399903007591059 2.7969048510509533 0 0 0
1979 15 45.54774576155956 9.943909182988085 0.9987983511057986 0 0 0
2150 1 44.36151126988871 11.405964680210705 2.3600868767380754 0 0 0
1975 19 46.95125287764291 6.305474542774573 2.0564276544160243 0 0 0
1977 14 46.65177695683507 6.229399613862795 2.1191615034757567 0 0 0
1978 20 48.98435791994069 7.728900911124426 0.7438155959786088 0 0 0
1804 18 51.6635662448326 9.302635705510161 1.5811264516240837 -1 0 0
1806 4 50.1320275182485 9.564102694467909 -0.18351749016235716 -1 0 0
1981 17 48.97362584425706 10.279234611247178 1.7200519001894563 -1 0 0
1976 13 47.854601850772056 7.264611131006303 2.4670669545243635 0 0 0
1805 3 49.88306909116125 8.399903007591059 2.79690485105097 -1 0 0
1811 15 52.13574048702364 9.943909182988047 0.998798351105855 -1 0 0
1982 1 50.94950599535261 11.405964680210811 2.360086876738077 -1 0 0
1803 2 52.60591551102327 7.110691505963722 0.04803916797024169 -1 0 0
1807 19 53.53924760310694 6.305474542774666 2.056427654416103 -1 0 0
1809 14 53.23977168229913 6.229399613862831 2.119161503475831 -1 0 0
1810 20 55.572352645404685 7.728900911124493 0.7438155959785651 -1 0 0
1812 16 52.8561690597772 9.180556014196936 1.1498676980756901 -1 0 0
1818 4 56.72002224371265 9.564102694467891 -0.18351749016220875 -1 0 0
1993 17 55.56162056972079 10.279234611247256 1.7200519001894565 -1 0 0
1808 13 54.44259657623597 7.264611131006348 2.467066954524345 -1 0 0
1817 3 56.47106381662542 8.39990300759103 2.79690485105094 -1 0 0
1994 1 57.53750072081689 11.405964680210555 2.3600868767380736 -1 0 0
1815 2 59.19391023648739 7.110691505963689 0.04803916797049034 -1 0 0
1816 18 58.25156097029635 9.302635705510276 1.5811264516240207 -1 0 0
1819 19 60.127242328570894 6.305474542774548 2.0564276544160207 -1 0 0
1821 14 59.827766407763036 6.229399613862769 2.119161503475733 -1 0 0
1822 20 62.16034737086864 7.728900911124418 0.7438155959787519 -1 0 0
1824 16 59.44416378524124 9.180556014196688 1.1498676980759304 -1 0 0
1830 4 63.308016969176485 9.56410269446786 -0.1835174901623385 -1 0 0
2005 17 62.14961529518509 10.279234611247249 1.7200519001894004 -1 0 0
1820 13 61.030591301700106 7.264611131006341 2.4670669545243182 -1 0 0
1823 15 58.72373521248753 9.943909182988218 0.9987983511058022 -1 0 0
1829 3 63.05905854208919 8.399903007591208 2.7969048510510524 -1 0 0
1827 2 65.78190496195141 7.110691505963608 0.048039167970523905 -1 0 0
1831 19 66.71523705403499 6.305474542774781 2.0564276544159426 -1 0 0
1833 14 66.41576113322705 6.229399613862855 2.119161503475635 -1 0 0
1828 18 64.83955569576062 9.302635705510104 1.5811264516240975 -1 0 0
1834 20 68.74834209633262 7.72890091112433 0.7438155959789263 -1 0 0
1836 16 66.03215851070516 9.180556014196803 1.1498676980755955 -1 0 0
2017 17 68.73761002064936 10.279234611247215 1.7200519001894645 -1 0 0
1832 13 67.61858602716414 7.264611131006256 2.4670669545245203 -1 0 0
1835 15 65.3117299379516 9.943909182987737 0.9987983511059804 -1 0 0
1841 3 69.647053267553 8.399903007591307 2.7969048510512398 -1 0 0
2006 1 64.12549544628052 11.405964680211062 2.360086876738031 -1 0 0
1842 4 69.89601169464045 9.564102694467781 -0.18351749016260083 -1 0 0
1839 2 72.3698996874154 7.110691505963448 0.04803916797021663 -1 0 0
1843 19 73.3032317794991 6.305474542774809 2.05642765441605 -1 0 0
1845 14 73.00375585869122 6.229399613862814 2.119161503475688 -1 0 0
1840 18 71.4275504212249 9.30263570551007 1.581126451624307 -1 0 0
1846 20 75.33633682179675 7.728900911124388 0.7438155959787603 -1 0 0
1848 16 72.62015323616905 9.18055601419716 1.1498676980753 -1 0 0
2029 17 75.32560474611313 10.279234611247219 1.720051900189444 -1 0 0
1844 13 74.20658075262808 7.264611131006281 2.4670669545245625 -1 0 0
1847 15 71.8997246634157 9.943909182987548 0.9987983511063855 -1 0 0
2018 1 70.71349017174435 11.405964680211401 2.360086876737776 -1 0 0
1851 2 78.95789441287927 7.110691505963537 0.04803916797039972 -1 0 0
1855 19 79.89122650496302 6.305474542774844 2.056427654416021 -1 0 0
1857 14 79.59175058415516 6.229399613862882 2.1191615034756404 -1 0 0
1852 18 78.01554514668868 9.302635705510102 1.5811264516242023 -1 0 0
1854 4 76.48400642010469 9.564102694467763 -0.1835174901624846 -1 0 0
1860 16 79.20814796163302 9.180556014196986 1.1498676980755345 -1 0 0
1856 13 80.79457547809209 7.2646111310062755 2.4670669545244923 -1 0 0
1853 3 76.2350479930172 8.399903007591124 2.796904851051141 -1 0 0
1859 15 78.48771938887973 9.943909182987909 0.9987983511060732 -1 0 0
2030 1 77.30148489720861 11.405964680210968 2.360086876737962 -1 0 0
1858 20 81.92433154726066 7.728900911124361 0.7438155959788142 -1 0 0
1863 2 85.54588913834334 7.110691505963405 0.04803916797006852 -1 0 0
1867 19 86.47922123042711 6.305474542774797 2.0564276544161255 -1 0 0
1864 18 84.60353987215272 9.302635705510136 1.5811264516242947 -1 0 0
1866 4 83.07200114556858 9.564102694467737 -0.183517490162605 -1 0 0
1872 16 85.79614268709707 9.180556014197077 1.1498676980754592 -1 0 0
1869 14 86.17974530961918 6.229399613862719 2.11916150347575 -1 0 0
2041 17 81.91359947157713 10.279234611247249 1.720051900189502 -1 0 0
1865 3 82.82304271848115 8.39990300759125 2.7969048510512033 -1 0 0
1871 15 85.07571411434364 9.943909182987852 0.9987983511063666 -1 0 0
2042 1 83.8894796226726 11.40596468021105 2.3600868767377787 -1 0 0
1875 2 92.1338838638074 7.110691505963706 0.04803916797041272 -1 0 0
1870 20 88.51232627272469 7.728900911124501 0.7438155959785343 -1 0 0
1876 18 91.19153459761638 9.302635705510351 1.5811264516239827 -1 0 0
1878 4 89.65999587103269 9.564102694467913 -0.18351749016223573 -1 0 0
1884 16 92.38413741256124 9.180556014196746 1.1498676980759068 -1 0 0
1881 14 92.76774003508308 6.229399613862806 2.1191615034757567 -1 0 0
2053 17 88.50159419704087 10.279234611247244 1.720051900189488 -1 0 0
1868 13 87.38257020355597 7.264611131006291 2.4670669545244848 -1 0 0
1877 3 89.41103744394547 8.399903007590938 2.7969048510509325 -1 0 0
1883 15 91.66370883980755 9.943909182988246 0.9987983511057426 -1 0 0
2054 1 90.47747434813695 11.405964680210587 2.3600868767380034 -1 0 0
1879 19 93.067215955891 6.305474542774727 2.0564276544160682 -1 0 0
1887 2 98.72187858927131 7.110691505963711 0.048039167970287636 -1 0 0
1882 20 95.10032099818864 7.72890091112441 0.7438155959786431 -1 0 0
1888 18 97.77952932308057 9.302635705510191 1.5811264516240506 -1 0 0
1890 4 96.24799059649648 9.564102694467921 -0.1835174901623425 -1 0 0
2065 17 95.08958892250507 10.279234611247224 1.7200519001894545 -1 0 0
1895 15 98.25170356527161 9.943909182987985 0.9987983511058339 -1 0 0
1880 13 93.9705649290201 7.2646111310063 2.4670669545243387 -1 0 0
1889 3 95.99903216940932 8.399903007591087 2.79690485105099 -1 0 0
2066 1 97.06546907360065 11.405964680210845 2.3600868767380256 -1 0 0
2071 19 0.8352897993949892 12.010845335022736 2.056427654416077 0 0 0
2073 14 0.5358138785870569 11.934770406110836 2.1191615034758553 0 0 0
2076 16 0.15221125606528138 14.885926806444898 1.1498676980757128 0 0 0
2074 20 2.868394841692582 13.43427170337252 0.7438155959785209 0 0 0
2082 4 4.016064440000515 15.26947348671605 -0.18351749016216934 0 0 0
2080 18 5.547603166584393 15.008006497758373 1.5811264516238923 0 0 0
2257 17 2.8576627660088567 15.984605403495275 1.720051900189534 0 0 0
2072 13 1.7386387725239552 12.969981923254348 2.4670669545243458 0 0 0
2081 3 3.767106012913485 14.105273799838999 2.796904851050869 0 0 0
2258 1 4.8335429171048805 17.111335472458645 2.360086876738047 0 0 0
2079 2 6.489952432775281 12.816062298211792 0.04803916797032918 0 0 0
2083 19 7.423284524858936 12.010845335022601 2.056427654416075 0 0 0
2085 14 7.123808604051026 11.934770406110838 2.119161503475898 0 0 0
2088 16 6.740205981529351 14.88592680644475 1.1498676980759615 0 0 0
2086 20 9.456389567156597 13.434271703372511 0.7438155959784516 0 0 0
2094 4 10.604059165464527 15.269473486716095 -0.18351749016210928 0 0 0
2269 17 9.445657491472844 15.984605403495246 1.7200519001895287 0 0 0
2084 13 8.32663349798798 12.969981923254357 2.467066954524279 0 0 0
2087 15 6.019777408775496 15.649279975236244 0.998798351105611 0 0 0
2093 3 10.35510073837751 14.105273799838992 2.796904851050829 0 0 0
2270 1 11.421537642568913 17.1113354724586 2.3600868767381336 0 0 0
2091 2 13.077947158239303 12.816062298211891 0.04803916797051086 0 0 0
2092 18 12.135597892048388 15.008006497758375 1.581126451623833 0 0 0
2095 19 14.011279250322863 12.010845335022582 2.056427654416009 0 0 0
2097 14 13.711803329514975 11.934770406110893 2.1191615034758557 0 0 0
2100 16 13.328200706993359 14.885926806444697 1.1498676980759932 0 0 0
2098 20 16.044384292620634 13.434271703372426 0.7438155959785898 0 0 0
2106 4 17.192053890928467 15.269473486715965 -0.18351749016226748 0 0 0
2281 17 16.033652216936975 15.98460540349521 1.7200519001894905 0 0 0
2096 13 14.914628223452029 12.96998192325434 2.4670669545242747 0 0 0
2099 15 12.607772134239513 15.649279975236288 0.9987983511054574 0 0 0
2105 3 16.94309546384131 14.105273799839129 2.796904851050956 0 0 0
2107 19 20.599273975786925 12.010845335022633 2.0564276544160665 0 0 0
2103 2 19.66594188370329 12.816062298211776 0.048039167970346464 0 0 0
2109 14 20.299798054979057 11.934770406110864 2.1191615034758597 0 0 0
2104 18 18.72359261751254 15.008006497758222 1.581126451624018 0 0 0
2112 16 19.916195432457293 14.885926806444846 1.1498676980757516 0 0 0
2110 20 22.632379018084674 13.434271703372506 0.7438155959785353 0 0 0
2293 17 22.621646942400883 15.98460540349525 1.720051900189526 0 0 0
2108 13 21.50262294891599 12.969981923254336 2.467066954524341 0 0 0
2111 15 19.195766859703568 15.649279975236032 0.9987983511057962 0 0 0
2282 1 18.00953236803263 17.11133547245881 2.360086876738083 0 0 0
2118 4 23.780048616392534 15.269473486715999 -0.18351749016225025 0 0 0
2119 19 27.187268701250918 12.010845335022676 2.0564276544161055 0 0 0
2115 2 26.253936609167205 12.816062298211783 0.0480391679702909 0 0 0
2121 14 26.88779278044304 11.934770406110879 2.1191615034759024 0 0 0
2124 16 26.504190157921286 14.885926806444854 1.14986769807584 0 0 0
2116 18 25.31158734297645 15.008006497758291 1.581126451623982 0 0 0
2117 3 23.531090189305413 14.105273799839006 2.7969048510508934 0 0 0
2120 13 28.090617674379953 12.969981923254364 2.4670669545242996 0 0 0
2123 15 25.78376158516758 15.649279975236281 0.9987983511056698 0 0 0
2294 1 24.597527093496794 17.111335472458624 2.3600868767381047 0 0 0
2122 20 29.220373743548603 13.434271703372517 0.7438155959784548 0 0 0
2131 19 33.775263426714965 12.010845335022577 2.056427654416078 0 0 0
2127 2 32.84193133463134 12.816062298211792 0.048039167970376974 0 0 0
2133 14 33.47578750590701 11.934770406110758 2.1191615034758997 0 0 0
2130 4 30.368043341856566 15.269473486716057 -0.18351749016217167 0 0 0
2128 18 31.899582068440335 15.00800649775838 1.5811264516238859 0 0 0
2136 16 33.092184883385364 14.885926806444683 1.1498676980761096 0 0 0
2305 17 29.209641667864794 15.984605403495289 1.7200519001895558 0 0 0
2132 13 34.678612399844006 12.969981923254334 2.4670669545242774 0 0 0
2129 3 30.11908491476954 14.105273799838953 2.7969048510508183 0 0 0