LAMMPS data file via write_data, version 29 Aug 2024, timestep = 6, units = metal

5544 atoms
24 atom types

0 100.63149479482 xlo xhi
0 102.096104937015 ylo yhi
-50 50 zlo zhi

Masses

1 208.9804
2 208.9804
3 208.9804
4 208.9804
5 208.9804
6 208.9804
7 208.9804
8 208.9804
9 208.9804
10 208.9804
11 208.9804
12 208.9804
13 208.9804
14 208.9804
15 208.9804
16 208.9804
17 208.9804
18 208.9804
19 208.9804
20 208.9804
21 208.9804
22 208.9804
23 208.9804
24 208.9804

Atoms # atomic

929 1 4.397674694857493 2.2454597424654263 -0.029569294544528942 0 0 0
1016 8 2.4694452002484324 4.676141376268848 0.43549899224495653 0 0 0
933 5 8.971833549167492 2.245459742465426 -0.029569294544528404 0 0 0
1020 4 7.043604054558433 4.676141376268849 0.4354989922449576 0 0 0
1024 8 11.61776290886843 4.676141376268849 0.43549899224495725 0 0 0
937 1 13.54599240347749 2.2454597424654246 -0.02956929454452988 0 0 0
1028 4 16.191921763178435 4.6761413762688475 0.43549899224495614 0 0 0
941 5 18.120151257787498 2.2454597424654255 -0.029569294544529553 0 0 0
945 1 22.694310112097497 2.245459742465426 -0.029569294544528512 0 0 0
1032 8 20.766080617488434 4.676141376268848 0.43549899224495686 0 0 0
949 5 27.268468966407497 2.245459742465426 -0.029569294544528515 0 0 0
1036 4 25.340239471798434 4.676141376268848 0.43549899224495686 0 0 0
953 1 31.842627820717496 2.245459742465426 -0.029569294544528845 0 0 0
1040 8 29.914398326108433 4.676141376268848 0.43549899224495664 0 0 0
1044 4 34.48855718041843 4.676141376268847 0.4354989922449573 0 0 0
957 5 36.416786675027495 2.245459742465425 -0.02956929454452847 0 0 0
961 1 40.990945529337495 2.245459742465425 -0.02956929454452903 0 0 0
1048 8 39.06271603472843 4.676141376268847 0.43549899224495725 0 0 0
965 5 45.565104383647494 2.2454597424654255 -0.029569294544528762 0 0 0
1052 4 43.63687488903843 4.676141376268847 0.4354989922449576 0 0 0
881 1 50.139263237957486 2.2454597424654206 -0.029569294544527995 -1 0 0
1056 8 48.21103374334843 4.676141376268848 0.4354989922449573 0 0 0
972 4 52.78519259765844 4.676141376268846 0.43549899224495753 -1 0 0
885 5 54.7134220922675 2.2454597424654246 -0.029569294544528207 -1 0 0
976 8 57.35935145196843 4.6761413762688475 0.4354989922449578 -1 0 0
889 1 59.28758094657749 2.245459742465425 -0.029569294544528137 -1 0 0
893 5 63.861739800887484 2.2454597424654255 -0.029569294544529088 -1 0 0
980 4 61.93351030627843 4.676141376268848 0.43549899224495725 -1 0 0
897 1 68.4358986551975 2.245459742465425 -0.029569294544528862 -1 0 0
984 8 66.50766916058845 4.676141376268849 0.4354989922449555 -1 0 0
988 4 71.08182801489843 4.676141376268849 0.4354989922449592 -1 0 0
901 5 73.01005750950749 2.245459742465424 -0.02956929454452986 -1 0 0
992 8 75.65598686920845 4.676141376268849 0.43549899224495575 -1 0 0
905 1 77.5842163638175 2.245459742465425 -0.029569294544529376 -1 0 0
909 5 82.15837521812749 2.245459742465426 -0.029569294544527197 -1 0 0
996 4 80.23014572351843 4.67614137626885 0.43549899224495775 -1 0 0
913 1 86.7325340724375 2.2454597424654255 -0.029569294544529237 -1 0 0
1000 8 84.80430457782843 4.67614137626885 0.4354989922449557 -1 0 0
917 5 91.30669292674749 2.245459742465424 -0.029569294544529223 -1 0 0
1004 4 89.37846343213843 4.676141376268851 0.43549899224495825 -1 0 0
1008 8 93.95262228644843 4.67614137626885 0.43549899224495536 -1 0 0
925 5 100.45501063536749 2.245459742465421 -0.02956929454452955 -1 0 0
921 1 95.8808517810575 2.2454597424654263 -0.02956929454452915 -1 0 0
1012 4 98.52678114075844 4.676141376268849 0.43549899224495764 -1 0 0
1017 1 4.39767469485749 7.1071790251804225 -0.029569294544529685 0 0 0
1104 8 2.4694452002484324 9.537860658983849 0.43549899224495725 0 0 0
1021 5 8.97183354916749 7.1071790251804225 -0.029569294544528977 0 0 0
1108 4 7.043604054558433 9.537860658983847 0.4354989922449572 0 0 0
1112 8 11.617762908868432 9.537860658983849 0.4354989922449579 0 0 0
1025 1 13.545992403477488 7.1071790251804225 -0.02956929454453032 0 0 0
1116 4 16.191921763178435 9.537860658983849 0.43549899224495664 0 0 0
1029 5 18.12015125778749 7.107179025180423 -0.029569294544529855 0 0 0
1033 1 22.694310112097494 7.1071790251804225 -0.02956929454452906 0 0 0
1120 8 20.766080617488434 9.537860658983847 0.43549899224495703 0 0 0
1037 5 27.268468966407493 7.1071790251804225 -0.029569294544529095 0 0 0
1124 4 25.340239471798434 9.537860658983847 0.4354989922449571 0 0 0
1041 1 31.842627820717492 7.107179025180422 -0.029569294544529508 0 0 0
1128 8 29.914398326108433 9.537860658983847 0.43549899224495653 0 0 0
1132 4 34.48855718041843 9.537860658983845 0.43549899224495736 0 0 0
1045 5 36.41678667502749 7.107179025180423 -0.02956929454452938 0 0 0
1049 1 40.99094552933749 7.107179025180423 -0.02956929454452964 0 0 0
1136 8 39.06271603472843 9.537860658983845 0.4354989922449574 0 0 0
1053 5 45.56510438364749 7.107179025180423 -0.02956929454452941 0 0 0
1140 4 43.63687488903843 9.537860658983845 0.43549899224495736 0 0 0
969 1 50.139263237957486 7.107179025180422 -0.029569294544528713 -1 0 0
1144 8 48.21103374334843 9.537860658983845 0.4354989922449575 0 0 0
1060 4 52.78519259765843 9.53786065898385 0.43549899224495764 -1 0 0
973 5 54.713422092267486 7.107179025180425 -0.029569294544529032 -1 0 0
1064 8 57.35935145196843 9.53786065898385 0.43549899224495797 -1 0 0
977 1 59.287580946577485 7.107179025180423 -0.029569294544530143 -1 0 0
981 5 63.861739800887484 7.107179025180421 -0.02956929454453082 -1 0 0
1068 4 61.93351030627843 9.537860658983849 0.4354989922449566 -1 0 0
985 1 68.43589865519749 7.107179025180425 -0.029569294544528175 -1 0 0
1072 8 66.50766916058843 9.537860658983847 0.4354989922449547 -1 0 0
1076 4 71.08182801489843 9.537860658983847 0.4354989922449593 -1 0 0
989 5 73.01005750950749 7.107179025180422 -0.029569294544530157 -1 0 0
1080 8 75.65598686920843 9.537860658983847 0.43549899224495414 -1 0 0
993 1 77.58421636381749 7.107179025180425 -0.029569294544529487 -1 0 0
997 5 82.15837521812749 7.107179025180423 -0.02956929454452717 -1 0 0
1084 4 80.23014572351843 9.537860658983847 0.4354989922449576 -1 0 0
1001 1 86.7325340724375 7.1071790251804225 -0.029569294544530472 -1 0 0
1088 8 84.80430457782845 9.537860658983845 0.43549899224495464 -1 0 0
1005 5 91.30669292674749 7.107179025180422 -0.029569294544527197 -1 0 0
1092 4 89.37846343213843 9.537860658983847 0.43549899224495714 -1 0 0
1096 8 93.95262228644845 9.537860658983845 0.435498992244955 -1 0 0
1013 5 100.4550106353675 7.107179025180426 -0.029569294544528522 -1 0 0
1009 1 95.8808517810575 7.107179025180422 -0.029569294544531166 -1 0 0
1100 4 98.52678114075843 9.537860658983845 0.4354989922449573 -1 0 0
1105 1 4.397674694857491 11.968898307895422 -0.029569294544528352 0 0 0
1192 8 2.4694452002484333 14.399579941698848 0.43549899224495775 0 0 0
1193 1 4.397674694857489 16.830617590610423 -0.029569294544528876 0 0 0
1109 5 8.97183354916749 11.968898307895422 -0.029569294544527745 0 0 0
1196 4 7.0436040545584335 14.399579941698848 0.4354989922449577 0 0 0
1200 8 11.617762908868432 14.399579941698848 0.4354989922449576 0 0 0
1197 5 8.971833549167489 16.830617590610423 -0.029569294544527874 0 0 0
1113 1 13.54599240347749 11.968898307895422 -0.02956929454452927 0 0 0
1204 4 16.19192176317844 14.399579941698848 0.4354989922449563 0 0 0
1201 1 13.545992403477488 16.830617590610423 -0.02956929454452901 0 0 0
1117 5 18.120151257787494 11.96889830789542 -0.029569294544528862 0 0 0
1121 1 22.694310112097494 11.968898307895422 -0.02956929454452903 0 0 0
1208 8 20.766080617488438 14.399579941698848 0.435498992244957 0 0 0
1205 5 18.120151257787494 16.830617590610423 -0.02956929454452905 0 0 0
1209 1 22.69431011209749 16.830617590610423 -0.02956929454452842 0 0 0
1125 5 27.268468966407493 11.968898307895422 -0.029569294544529164 0 0 0
1212 4 25.340239471798437 14.399579941698848 0.435498992244957 0 0 0
1213 5 27.26846896640749 16.830617590610423 -0.02956929454452853 0 0 0
1129 1 31.842627820717492 11.968898307895422 -0.0295692945445289 0 0 0
1216 8 29.914398326108433 14.399579941698848 0.43549899224495714 0 0 0
1220 4 34.48855718041843 14.399579941698848 0.4354989922449578 0 0 0
1217 1 31.84262782071749 16.830617590610427 -0.02956929454452798 0 0 0
1133 5 36.41678667502749 11.968898307895419 -0.029569294544529317 0 0 0
1137 1 40.99094552933749 11.968898307895419 -0.029569294544529393 0 0 0
1224 8 39.06271603472843 14.399579941698848 0.4354989922449572 0 0 0
1221 5 36.41678667502749 16.830617590610427 -0.02956929454452836 0 0 0
1225 1 40.99094552933749 16.830617590610427 -0.029569294544528432 0 0 0
1141 5 45.56510438364749 11.968898307895419 -0.029569294544528946 0 0 0
1228 4 43.63687488903843 14.399579941698848 0.4354989922449573 0 0 0
1229 5 45.56510438364749 16.830617590610427 -0.02956929454452844 0 0 0
1057 1 50.139263237957486 11.968898307895419 -0.029569294544528245 -1 0 0
1232 8 48.21103374334843 14.399579941698848 0.43549899224495786 0 0 0
1148 4 52.78519259765844 14.399579941698848 0.4354989922449572 -1 0 0
1145 1 50.139263237957486 16.830617590610427 -0.029569294544528182 -1 0 0
1061 5 54.71342209226749 11.96889830789542 -0.029569294544526777 -1 0 0
1152 8 57.359351451968436 14.399579941698848 0.4354989922449568 -1 0 0
1149 5 54.71342209226749 16.830617590610423 -0.029569294544527884 -1 0 0
1065 1 59.28758094657749 11.968898307895422 -0.029569294544528498 -1 0 0
1069 5 63.86173980088749 11.968898307895422 -0.029569294544530056 -1 0 0
1156 4 61.933510306278436 14.399579941698848 0.4354989922449567 -1 0 0
1153 1 59.28758094657749 16.830617590610423 -0.029569294544527856 -1 0 0
1157 5 63.861739800887484 16.830617590610427 -0.029569294544529775 -1 0 0
1073 1 68.43589865519749 11.968898307895422 -0.029569294544526194 -1 0 0
1160 8 66.50766916058843 14.39957994169885 0.4354989922449556 -1 0 0
1161 1 68.43589865519749 16.830617590610423 -0.029569294544527162 -1 0 0
1164 4 71.08182801489842 14.39957994169885 0.4354989922449582 -1 0 0
1077 5 73.01005750950748 11.968898307895424 -0.029569294544529723 -1 0 0
1168 8 75.65598686920843 14.39957994169885 0.43549899224495436 -1 0 0
1165 5 73.01005750950748 16.830617590610423 -0.029569294544529046 -1 0 0
1081 1 77.58421636381749 11.968898307895422 -0.02956929454452773 -1 0 0
1085 5 82.15837521812749 11.968898307895422 -0.029569294544526854 -1 0 0
1172 4 80.23014572351843 14.39957994169885 0.43549899224495786 -1 0 0
1169 1 77.58421636381749 16.830617590610423 -0.029569294544527742 -1 0 0
1173 5 82.15837521812749 16.830617590610427 -0.02956929454452683 -1 0 0
1089 1 86.73253407243749 11.968898307895426 -0.029569294544530077 -1 0 0
1176 8 84.80430457782843 14.39957994169885 0.4354989922449543 -1 0 0
1177 1 86.73253407243749 16.830617590610423 -0.029569294544528446 -1 0 0
1093 5 91.30669292674749 11.968898307895422 -0.029569294544527013 -1 0 0
1180 4 89.37846343213843 14.39957994169885 0.4354989922449577 -1 0 0
1184 8 93.95262228644843 14.39957994169885 0.435498992244954 -1 0 0
1181 5 91.30669292674749 16.830617590610427 -0.02956929454452639 -1 0 0
1101 5 100.45501063536749 11.968898307895422 -0.029569294544527055 -1 0 0
1189 5 100.45501063536749 16.830617590610423 -0.029569294544527627 -1 0 0
1097 1 95.88085178105749 11.968898307895426 -0.029569294544530576 -1 0 0
1188 4 98.52678114075843 14.399579941698848 0.4354989922449582 -1 0 0
1185 1 95.88085178105749 16.830617590610423 -0.029569294544529272 -1 0 0
1280 8 2.4694452002484315 19.26129922441385 0.4354989922449576 0 0 0
1281 1 4.397674694857491 21.692336873325424 -0.02956929454452832 0 0 0
1284 4 7.043604054558432 19.26129922441385 0.4354989922449582 0 0 0
1288 8 11.61776290886843 19.26129922441385 0.43549899224495825 0 0 0
1285 5 8.971833549167492 21.692336873325424 -0.029569294544527613 0 0 0
1292 4 16.191921763178435 19.26129922441385 0.43549899224495653 0 0 0
1289 1 13.545992403477488 21.692336873325424 -0.029569294544529893 0 0 0
1296 8 20.766080617488434 19.26129922441385 0.4354989922449579 0 0 0
1293 5 18.120151257787494 21.692336873325424 -0.029569294544528467 0 0 0
1297 1 22.694310112097494 21.692336873325424 -0.029569294544528765 0 0 0
1300 4 25.340239471798434 19.26129922441385 0.4354989922449578 0 0 0
1301 5 27.268468966407493 21.692336873325424 -0.029569294544528172 0 0 0
1304 8 29.914398326108433 19.26129922441385 0.4354989922449579 0 0 0
1308 4 34.48855718041843 19.26129922441385 0.43549899224495847 0 0 0
1305 1 31.842627820717492 21.69233687332542 -0.02956929454452746 0 0 0
1312 8 39.06271603472843 19.26129922441385 0.43549899224495825 0 0 0
1309 5 36.41678667502749 21.692336873325424 -0.029569294544528026 0 0 0
1313 1 40.99094552933749 21.692336873325424 -0.029569294544528058 0 0 0
1316 4 43.63687488903843 19.26129922441385 0.4354989922449582 0 0 0
1317 5 45.56510438364749 21.692336873325424 -0.029569294544528103 0 0 0
1320 8 48.21103374334843 19.26129922441385 0.43549899224495886 0 0 0
1236 4 52.78519259765844 19.261299224413847 0.43549899224495825 -1 0 0
1233 1 50.139263237957486 21.692336873325424 -0.029569294544528394 -1 0 0
1240 8 57.359351451968436 19.26129922441385 0.4354989922449589 -1 0 0
1237 5 54.71342209226749 21.692336873325424 -0.029569294544528973 -1 0 0
1244 4 61.93351030627843 19.26129922441385 0.43549899224495914 -1 0 0
1241 1 59.28758094657749 21.692336873325424 -0.029569294544528637 -1 0 0
1245 5 63.86173980088749 21.69233687332542 -0.029569294544528977 -1 0 0
1248 8 66.50766916058843 19.261299224413843 0.43549899224495775 -1 0 0
1249 1 68.43589865519749 21.692336873325416 -0.029569294544527933 -1 0 0
1252 4 71.08182801489842 19.261299224413847 0.4354989922449594 -1 0 0
1256 8 75.65598686920843 19.261299224413847 0.43549899224495603 -1 0 0
1253 5 73.01005750950749 21.69233687332542 -0.029569294544529365 -1 0 0
1260 4 80.23014572351843 19.261299224413847 0.4354989922449597 -1 0 0
1257 1 77.58421636381749 21.692336873325416 -0.029569294544527558 -1 0 0
1261 5 82.15837521812749 21.69233687332542 -0.029569294544528252 -1 0 0
1264 8 84.80430457782843 19.26129922441385 0.4354989922449558 -1 0 0
1265 1 86.73253407243749 21.69233687332542 -0.029569294544528796 -1 0 0
1268 4 89.37846343213843 19.261299224413847 0.43549899224495986 -1 0 0
1272 8 93.95262228644843 19.261299224413847 0.4354989922449554 -1 0 0
1269 5 91.30669292674749 21.69233687332542 -0.02956929454452824 -1 0 0
1277 5 100.45501063536749 21.69233687332542 -0.02956929454452872 -1 0 0
1276 4 98.52678114075843 19.261299224413843 0.4354989922449584 -1 0 0
1273 1 95.88085178105749 21.69233687332542 -0.02956929454453 -1 0 0
1368 8 2.469445200248433 24.123018507128847 0.43549899224495725 0 0 0
1369 1 4.39767469485749 26.554056156040424 -0.02956929454452926 0 0 0
1372 4 7.0436040545584335 24.123018507128847 0.4354989922449574 0 0 0
1376 8 11.61776290886843 24.123018507128847 0.4354989922449573 0 0 0
1373 5 8.97183354916749 26.554056156040424 -0.029569294544528446 0 0 0
1380 4 16.191921763178435 24.123018507128847 0.43549899224495603 0 0 0
1377 1 13.545992403477488 26.55405615604042 -0.029569294544530507 0 0 0
1384 8 20.766080617488434 24.123018507128847 0.4354989922449571 0 0 0
1381 5 18.120151257787494 26.55405615604042 -0.029569294544529844 0 0 0
1385 1 22.694310112097494 26.55405615604042 -0.029569294544529376 0 0 0
1388 4 25.340239471798434 24.123018507128847 0.4354989922449569 0 0 0
1389 5 27.268468966407493 26.554056156040424 -0.029569294544529386 0 0 0
1392 8 29.914398326108433 24.123018507128847 0.43549899224495725 0 0 0
1396 4 34.48855718041843 24.123018507128847 0.43549899224495703 0 0 0
1393 1 31.842627820717492 26.55405615604042 -0.02956929454452848 0 0 0
1400 8 39.06271603472843 24.123018507128847 0.4354989922449568 0 0 0
1397 5 36.41678667502749 26.554056156040424 -0.029569294544528855 0 0 0
1401 1 40.99094552933749 26.554056156040424 -0.029569294544528942 0 0 0
1404 4 43.63687488903843 24.123018507128847 0.4354989922449567 0 0 0
1405 5 45.56510438364749 26.554056156040424 -0.029569294544528633 0 0 0
1408 8 48.21103374334843 24.123018507128847 0.43549899224495825 0 0 0
1324 4 52.78519259765844 24.123018507128847 0.43549899224495725 -1 0 0
1321 1 50.139263237957486 26.554056156040424 -0.029569294544529216 -1 0 0
1328 8 57.359351451968436 24.123018507128847 0.43549899224495753 -1 0 0
1325 5 54.71342209226749 26.55405615604042 -0.02956929454452969 -1 0 0
1332 4 61.933510306278436 24.123018507128847 0.4354989922449578 -1 0 0
1329 1 59.28758094657749 26.55405615604042 -0.029569294544529307 -1 0 0
1333 5 63.86173980088749 26.554056156040424 -0.029569294544529518 -1 0 0
1336 8 66.50766916058845 24.123018507128847 0.43549899224495625 -1 0 0
1337 1 68.4358986551975 26.554056156040424 -0.029569294544528574 -1 0 0
1340 4 71.08182801489843 24.123018507128847 0.4354989922449591 -1 0 0
1344 8 75.65598686920845 24.123018507128847 0.43549899224495464 -1 0 0
1341 5 73.01005750950749 26.554056156040424 -0.02956929454453035 -1 0 0
1348 4 80.23014572351843 24.123018507128847 0.435498992244959 -1 0 0
1345 1 77.5842163638175 26.55405615604042 -0.029569294544528005 -1 0 0
1349 5 82.15837521812749 26.554056156040424 -0.029569294544529813 -1 0 0
1352 8 84.80430457782843 24.123018507128847 0.4354989922449555 -1 0 0
1353 1 86.7325340724375 26.55405615604042 -0.029569294544528613 -1 0 0
1356 4 89.37846343213843 24.123018507128847 0.4354989922449587 -1 0 0
1360 8 93.95262228644843 24.123018507128847 0.43549899224495536 -1 0 0
1357 5 91.30669292674749 26.55405615604042 -0.029569294544529875 -1 0 0
1365 5 100.4550106353675 26.55405615604042 -0.02956929454452957 -1 0 0
1364 4 98.52678114075844 24.123018507128847 0.4354989922449582 -1 0 0
1361 1 95.8808517810575 26.554056156040424 -0.029569294544529973 -1 0 0
1456 8 2.4694452002484324 28.984737789843848 0.43549899224495703 0 0 0
1457 1 4.397674694857489 31.41577543875542 -0.02956929454453067 0 0 0
1544 8 2.469445200248433 33.84645707255885 0.4354989922449573 0 0 0
1460 4 7.0436040545584335 28.984737789843848 0.4354989922449568 0 0 0
1464 8 11.617762908868432 28.984737789843848 0.43549899224495714 0 0 0
1461 5 8.97183354916749 31.41577543875542 -0.029569294544529466 0 0 0
1548 4 7.043604054558433 33.84645707255885 0.4354989922449565 0 0 0
1552 8 11.617762908868432 33.84645707255885 0.43549899224495653 0 0 0
1468 4 16.19192176317844 28.984737789843848 0.43549899224495603 0 0 0
1465 1 13.545992403477488 31.41577543875542 -0.02956929454453123 0 0 0
1556 4 16.191921763178435 33.84645707255885 0.4354989922449552 0 0 0
1472 8 20.766080617488434 28.984737789843848 0.43549899224495614 0 0 0
1469 5 18.120151257787494 31.415775438755425 -0.0295692945445305 0 0 0
1473 1 22.694310112097494 31.41577543875542 -0.029569294544530556 0 0 0
1560 8 20.766080617488438 33.84645707255885 0.43549899224495536 0 0 0
1476 4 25.340239471798434 28.984737789843848 0.43549899224495625 0 0 0
1477 5 27.268468966407493 31.41577543875542 -0.02956929454453035 0 0 0
1564 4 25.340239471798434 33.84645707255885 0.4354989922449554 0 0 0
1480 8 29.914398326108437 28.984737789843848 0.4354989922449558 0 0 0
1484 4 34.48855718041843 28.984737789843848 0.4354989922449566 0 0 0
1481 1 31.842627820717492 31.41577543875542 -0.029569294544530177 0 0 0
1568 8 29.914398326108433 33.84645707255885 0.43549899224495564 0 0 0
1572 4 34.48855718041843 33.84645707255885 0.4354989922449564 0 0 0
1488 8 39.06271603472843 28.984737789843848 0.43549899224495625 0 0 0
1485 5 36.41678667502749 31.41577543875542 -0.029569294544530004 0 0 0
1489 1 40.99094552933749 31.41577543875542 -0.029569294544530736 0 0 0
1576 8 39.06271603472843 33.84645707255885 0.4354989922449564 0 0 0
1492 4 43.63687488903843 28.984737789843848 0.4354989922449564 0 0 0
1493 5 45.56510438364749 31.41577543875542 -0.029569294544530732 0 0 0
1580 4 43.63687488903843 33.84645707255885 0.43549899224495586 0 0 0
1496 8 48.21103374334843 28.984737789843848 0.4354989922449566 0 0 0
1412 4 52.78519259765844 28.984737789843848 0.4354989922449565 -1 0 0
1409 1 50.139263237957486 31.41577543875542 -0.0295692945445307 -1 0 0
1584 8 48.21103374334843 33.84645707255885 0.43549899224495636 0 0 0
1500 4 52.78519259765843 33.84645707255885 0.435498992244957 -1 0 0
1416 8 57.359351451968436 28.984737789843848 0.4354989922449571 -1 0 0
1413 5 54.71342209226749 31.415775438755425 -0.02956929454452926 -1 0 0
1504 8 57.359351451968436 33.84645707255885 0.43549899224495653 -1 0 0
1420 4 61.933510306278436 28.98473778984385 0.4354989922449571 -1 0 0
1417 1 59.28758094657749 31.41577543875542 -0.029569294544529737 -1 0 0
1421 5 63.86173980088749 31.41577543875542 -0.029569294544530816 -1 0 0
1508 4 61.933510306278436 33.84645707255885 0.43549899224495564 -1 0 0
1424 8 66.50766916058845 28.984737789843848 0.43549899224495564 -1 0 0
1425 1 68.4358986551975 31.41577543875542 -0.029569294544528977 -1 0 0
1512 8 66.50766916058843 33.84645707255885 0.4354989922449551 -1 0 0
1428 4 71.08182801489843 28.98473778984385 0.43549899224495947 -1 0 0
1516 4 71.08182801489842 33.84645707255885 0.43549899224495897 -1 0 0
1432 8 75.65598686920843 28.984737789843848 0.4354989922449547 -1 0 0
1429 5 73.01005750950749 31.41577543875542 -0.0295692945445312 -1 0 0
1520 8 75.65598686920843 33.84645707255885 0.4354989922449552 -1 0 0
1436 4 80.23014572351843 28.984737789843848 0.4354989922449607 -1 0 0
1433 1 77.5842163638175 31.41577543875542 -0.029569294544528328 -1 0 0
1437 5 82.15837521812749 31.41577543875542 -0.02956929454452953 -1 0 0
1524 4 80.23014572351843 33.84645707255885 0.43549899224495986 -1 0 0
1440 8 84.80430457782845 28.984737789843848 0.43549899224495553 -1 0 0
1441 1 86.7325340724375 31.41577543875542 -0.029569294544529945 -1 0 0
1528 8 84.80430457782843 33.84645707255885 0.43549899224495436 -1 0 0
1444 4 89.37846343213843 28.984737789843848 0.4354989922449605 -1 0 0
1448 8 93.95262228644845 28.984737789843848 0.4354989922449554 -1 0 0
1445 5 91.30669292674749 31.41577543875542 -0.029569294544529508 -1 0 0
1532 4 89.37846343213843 33.84645707255885 0.4354989922449601 -1 0 0
1536 8 93.95262228644843 33.84645707255885 0.4354989922449552 -1 0 0
1453 5 100.4550106353675 31.41577543875542 -0.029569294544529702 -1 0 0
1452 4 98.52678114075844 28.984737789843848 0.43549899224495786 -1 0 0
1449 1 95.8808517810575 31.41577543875542 -0.029569294544531926 -1 0 0
1540 4 98.52678114075844 33.84645707255885 0.4354989922449587 -1 0 0
1545 1 4.39767469485749 36.277494721470426 -0.029569294544529195 0 0 0
1632 8 2.469445200248433 38.70817635527385 0.4354989922449583 0 0 0
1549 5 8.97183354916749 36.277494721470426 -0.029569294544529022 0 0 0
1636 4 7.043604054558433 38.70817635527385 0.4354989922449582 0 0 0
1640 8 11.61776290886843 38.70817635527385 0.43549899224495736 0 0 0
1553 1 13.545992403477488 36.277494721470426 -0.029569294544530843 0 0 0
1644 4 16.19192176317844 38.70817635527385 0.4354989922449555 0 0 0
1557 5 18.120151257787494 36.27749472147042 -0.0295692945445294 0 0 0
1561 1 22.694310112097494 36.277494721470426 -0.02956929454452942 0 0 0
1648 8 20.766080617488438 38.70817635527385 0.43549899224495703 0 0 0
1565 5 27.268468966407493 36.277494721470426 -0.02956929454452929 0 0 0
1652 4 25.340239471798437 38.70817635527385 0.43549899224495703 0 0 0
1569 1 31.842627820717492 36.277494721470426 -0.029569294544529317 0 0 0
1656 8 29.914398326108433 38.70817635527385 0.4354989922449564 0 0 0
1660 4 34.48855718041843 38.70817635527385 0.4354989922449571 0 0 0
1573 5 36.41678667502749 36.277494721470426 -0.02956929454452976 0 0 0
1577 1 40.99094552933749 36.27749472147042 -0.029569294544529518 0 0 0
1664 8 39.06271603472843 38.70817635527385 0.43549899224495625 0 0 0
1581 5 45.56510438364749 36.277494721470426 -0.029569294544529643 0 0 0
1668 4 43.63687488903843 38.70817635527385 0.4354989922449572 0 0 0
1497 1 50.139263237957486 36.277494721470426 -0.029569294544528966 -1 0 0
1672 8 48.21103374334843 38.70817635527385 0.4354989922449572 0 0 0
1588 4 52.78519259765843 38.70817635527385 0.4354989922449582 -1 0 0
1501 5 54.713422092267486 36.277494721470426 -0.029569294544528477 -1 0 0
1592 8 57.35935145196843 38.70817635527385 0.43549899224495714 -1 0 0
1505 1 59.287580946577485 36.277494721470426 -0.029569294544529764 -1 0 0
1509 5 63.861739800887484 36.277494721470426 -0.02956929454453206 -1 0 0
1596 4 61.93351030627843 38.70817635527385 0.4354989922449557 -1 0 0
1513 1 68.4358986551975 36.27749472147042 -0.02956929454452825 -1 0 0
1600 8 66.50766916058845 38.70817635527385 0.4354989922449543 -1 0 0
1604 4 71.08182801489843 38.70817635527384 0.4354989922449586 -1 0 0
1517 5 73.01005750950749 36.27749472147042 -0.02956929454453137 -1 0 0
1608 8 75.65598686920845 38.70817635527385 0.4354989922449549 -1 0 0
1521 1 77.5842163638175 36.27749472147042 -0.02956929454452924 -1 0 0
1525 5 82.15837521812749 36.27749472147042 -0.02956929454452735 -1 0 0
1612 4 80.23014572351843 38.70817635527385 0.43549899224495797 -1 0 0
1529 1 86.7325340724375 36.27749472147042 -0.029569294544531496 -1 0 0
1616 8 84.80430457782845 38.70817635527384 0.4354989922449538 -1 0 0
1533 5 91.30669292674749 36.27749472147042 -0.029569294544527083 -1 0 0
1620 4 89.37846343213843 38.70817635527385 0.43549899224495786 -1 0 0
1624 8 93.95262228644845 38.70817635527384 0.4354989922449532 -1 0 0
1541 5 100.4550106353675 36.27749472147042 -0.029569294544527898 -1 0 0
1537 1 95.8808517810575 36.27749472147042 -0.029569294544533137 -1 0 0
1628 4 98.52678114075844 38.70817635527385 0.4354989922449571 -1 0 0
1633 1 4.39767469485749 41.139214004185426 -0.029569294544529792 0 0 0
1720 8 2.4694452002484324 43.56989563798885 0.4354989922449577 0 0 0
1637 5 8.97183354916749 41.139214004185426 -0.029569294544529036 0 0 0
1724 4 7.043604054558432 43.56989563798885 0.4354989922449577 0 0 0
1728 8 11.61776290886843 43.56989563798885 0.4354989922449573 0 0 0
1641 1 13.545992403477488 41.139214004185426 -0.02956929454453059 0 0 0
1732 4 16.191921763178435 43.56989563798885 0.4354989922449563 0 0 0
1645 5 18.12015125778749 41.139214004185426 -0.029569294544529626 0 0 0
1649 1 22.694310112097494 41.139214004185426 -0.029569294544529206 0 0 0
1736 8 20.766080617488434 43.56989563798885 0.43549899224495664 0 0 0
1653 5 27.268468966407493 41.139214004185426 -0.0295692945445292 0 0 0
1740 4 25.340239471798434 43.56989563798885 0.43549899224495664 0 0 0
1657 1 31.842627820717492 41.139214004185426 -0.029569294544529588 0 0 0
1744 8 29.914398326108433 43.56989563798885 0.43549899224495675 0 0 0
1748 4 34.48855718041843 43.56989563798885 0.435498992244956 0 0 0
1661 5 36.41678667502749 41.13921400418542 -0.02956929454452934 0 0 0
1665 1 40.99094552933749 41.13921400418542 -0.029569294544529365 0 0 0
1752 8 39.06271603472843 43.56989563798885 0.4354989922449557 0 0 0
1669 5 45.56510438364749 41.13921400418542 -0.02956929454452887 0 0 0
1756 4 43.63687488903843 43.56989563798885 0.4354989922449557 0 0 0
1585 1 50.139263237957486 41.139214004185426 -0.029569294544529036 -1 0 0
1760 8 48.21103374334843 43.56989563798885 0.435498992244957 0 0 0
1676 4 52.78519259765843 43.56989563798885 0.43549899224495753 -1 0 0
1589 5 54.713422092267486 41.139214004185426 -0.029569294544528973 -1 0 0
1680 8 57.35935145196843 43.56989563798885 0.435498992244957 -1 0 0
1593 1 59.287580946577485 41.139214004185426 -0.0295692945445294 -1 0 0
1597 5 63.861739800887484 41.139214004185426 -0.02956929454453158 -1 0 0
1684 4 61.93351030627843 43.56989563798885 0.43549899224495603 -1 0 0
1601 1 68.4358986551975 41.139214004185426 -0.029569294544528047 -1 0 0
1688 8 66.50766916058843 43.56989563798885 0.435498992244956 -1 0 0
1692 4 71.08182801489843 43.56989563798885 0.43549899224495847 -1 0 0
1605 5 73.01005750950749 41.13921400418542 -0.029569294544531 -1 0 0
1696 8 75.65598686920843 43.56989563798885 0.435498992244956 -1 0 0
1609 1 77.5842163638175 41.13921400418542 -0.029569294544528512 -1 0 0
1613 5 82.15837521812749 41.139214004185426 -0.029569294544526788 -1 0 0
1700 4 80.23014572351843 43.56989563798885 0.4354989922449593 -1 0 0
1617 1 86.7325340724375 41.13921400418542 -0.02956929454453113 -1 0 0
1704 8 84.80430457782845 43.56989563798884 0.43549899224495503 -1 0 0
1621 5 91.30669292674749 41.139214004185426 -0.029569294544526444 -1 0 0
1708 4 89.37846343213843 43.56989563798885 0.4354989922449588 -1 0 0
1712 8 93.95262228644845 43.56989563798884 0.4354989922449542 -1 0 0
1629 5 100.4550106353675 41.139214004185426 -0.029569294544526937 -1 0 0
1625 1 95.8808517810575 41.13921400418542 -0.029569294544532047 -1 0 0
1716 4 98.52678114075844 43.56989563798884 0.4354989922449582 -1 0 0
1721 1 4.39767469485749 46.00093328690043 -0.02956929454452915 0 0 0
1808 8 2.4694452002484324 48.43161492070385 0.43549899224495736 0 0 0
1809 1 4.39767469485749 50.86265256961543 -0.029569294544529525 0 0 0
1725 5 8.97183354916749 46.00093328690042 -0.029569294544528613 0 0 0
1812 4 7.043604054558432 48.43161492070384 0.4354989922449576 0 0 0
1816 8 11.61776290886843 48.43161492070385 0.43549899224495847 0 0 0
1813 5 8.971833549167489 50.86265256961542 -0.02956929454452908 0 0 0
1729 1 13.545992403477488 46.00093328690043 -0.029569294544530313 0 0 0
1820 4 16.191921763178435 48.43161492070385 0.43549899224495636 0 0 0
1817 1 13.545992403477491 50.86265256961542 -0.029569294544529647 0 0 0
1733 5 18.120151257787494 46.00093328690043 -0.029569294544529372 0 0 0
1737 1 22.694310112097494 46.00093328690043 -0.029569294544529612 0 0 0
1824 8 20.766080617488434 48.43161492070385 0.43549899224495714 0 0 0
1821 5 18.120151257787494 50.86265256961543 -0.029569294544529806 0 0 0
1825 1 22.694310112097494 50.86265256961543 -0.02956929454452915 0 0 0
1741 5 27.268468966407493 46.00093328690043 -0.029569294544529525 0 0 0
1828 4 25.340239471798434 48.43161492070385 0.4354989922449572 0 0 0
1829 5 27.268468966407493 50.86265256961543 -0.0295692945445291 0 0 0
1745 1 31.842627820717492 46.00093328690043 -0.029569294544529463 0 0 0
1832 8 29.914398326108433 48.43161492070385 0.43549899224495736 0 0 0
1836 4 34.48855718041843 48.43161492070385 0.43549899224495764 0 0 0
1833 1 31.842627820717492 50.86265256961543 -0.02956929454452897 0 0 0