LAMMPS data file via write_data, version 29 Aug 2024, timestep = 6, units = metal

3696 atoms
16 atom types

0 100.63149479482 xlo xhi
0 102.096104937015 ylo yhi
-50 50 zlo zhi

Masses

1 208.9804
2 208.9804
3 208.9804
4 208.9804
5 208.9804
6 208.9804
7 208.9804
8 208.9804
9 208.9804
10 208.9804
11 208.9804
12 208.9804
13 208.9804
14 208.9804
15 208.9804
16 208.9804

Atoms # atomic

929 1 4.397639061177273 2.2454259823134404 -0.029684060074137476 0 0 0
1016 8 2.469457139667641 4.676177138514631 0.4353605535841134 0 0 0
933 5 8.971797915487276 2.24542598231344 -0.02968406007413634 0 0 0
1020 4 7.043615993977641 4.676177138514629 0.4353605535841149 0 0 0
1024 8 11.61777484828764 4.676177138514631 0.4353605535841147 0 0 0
937 1 13.54595676979727 2.2454259823134364 -0.029684060074136827 0 0 0
1028 4 16.191933702597645 4.67617713851463 0.4353605535841139 0 0 0
941 5 18.120115624107278 2.245425982313437 -0.02968406007413597 0 0 0
945 1 22.694274478417277 2.2454259823134364 -0.02968406007413566 0 0 0
1032 8 20.766092556907644 4.67617713851463 0.4353605535841148 0 0 0
949 5 27.268433332727277 2.245425982313437 -0.029684060074135654 0 0 0
1036 4 25.340251411217643 4.67617713851463 0.4353605535841148 0 0 0
953 1 31.842592187037273 2.2454259823134364 -0.029684060074135057 0 0 0
1040 8 29.914410265527643 4.676177138514631 0.4353605535841147 0 0 0
1044 4 34.48856911983764 4.676177138514629 0.43536055358411513 0 0 0
957 5 36.41675104134727 2.245425982313436 -0.029684060074135418 0 0 0
961 1 40.99090989565727 2.245425982313436 -0.02968406007413535 0 0 0
1048 8 39.06272797414764 4.676177138514629 0.43536055358411485 0 0 0
965 5 45.56506874996727 2.245425982313436 -0.029684060074135574 0 0 0
1052 4 43.63688682845764 4.676177138514629 0.435360553584115 0 0 0
881 1 50.13922760427727 2.24542598231344 -0.02968406007413505 -1 0 0
1056 8 48.21104568276764 4.676177138514631 0.43536055358411446 0 0 0
972 4 52.78520453707765 4.676177138514631 0.4353605535841144 -1 0 0
885 5 54.71338645858728 2.245425982313441 -0.029684060074137104 -1 0 0
976 8 57.359363391387646 4.676177138514631 0.4353605535841149 -1 0 0
889 1 59.28754531289727 2.245425982313437 -0.02968406007413537 -1 0 0
893 5 63.861704167207265 2.2454259823134333 -0.02968406007413686 -1 0 0
980 4 61.93352224569764 4.676177138514632 0.43536055358411535 -1 0 0
897 1 68.43586302151726 2.245425982313435 -0.029684060074134544 -1 0 0
984 8 66.50768110000764 4.67617713851463 0.4353605535841167 -1 0 0
988 4 71.08183995431763 4.676177138514631 0.43536055358411846 -1 0 0
901 5 73.01002187582725 2.245425982313436 -0.0296840600741392 -1 0 0
992 8 75.65599880862764 4.67617713851463 0.43536055358411513 -1 0 0
905 1 77.58418073013726 2.2454259823134355 -0.029684060074136466 -1 0 0
909 5 82.15833958444726 2.2454259823134373 -0.029684060074136553 -1 0 0
996 4 80.23015766293764 4.6761771385146345 0.435360553584116 -1 0 0
913 1 86.73249843875726 2.2454259823134355 -0.029684060074138048 -1 0 0
1000 8 84.80431651724764 4.67617713851463 0.4353605535841147 -1 0 0
917 5 91.30665729306726 2.2454259823134373 -0.029684060074136518 -1 0 0
1004 4 89.37847537155763 4.676177138514631 0.43536055358411696 -1 0 0
1008 8 93.95263422586764 4.67617713851463 0.4353605535841146 -1 0 0
925 5 100.45497500168726 2.2454259823134373 -0.029684060074137347 -1 0 0
921 1 95.88081614737726 2.2454259823134355 -0.029684060074138166 -1 0 0
1012 4 98.52679308017764 4.676177138514631 0.4353605535841161 -1 0 0
1017 1 4.397639061177272 7.107145265028438 -0.029684060074137326 0 0 0
1104 8 2.4694571396676404 9.53789642122963 0.435360553584114 0 0 0
1021 5 8.971797915487272 7.107145265028438 -0.02968406007413687 0 0 0
1108 4 7.043615993977641 9.53789642122963 0.4353605535841145 0 0 0
1112 8 11.617774848287638 9.53789642122963 0.43536055358411435 0 0 0
1025 1 13.54595676979727 7.107145265028439 -0.029684060074138013 0 0 0
1116 4 16.191933702597645 9.53789642122963 0.4353605535841128 0 0 0
1029 5 18.120115624107278 7.1071452650284375 -0.029684060074137607 0 0 0
1033 1 22.694274478417277 7.107145265028438 -0.029684060074137403 0 0 0
1120 8 20.766092556907644 9.53789642122963 0.43536055358411385 0 0 0
1037 5 27.268433332727277 7.1071452650284375 -0.02968406007413741 0 0 0
1124 4 25.340251411217643 9.53789642122963 0.4353605535841138 0 0 0
1041 1 31.842592187037276 7.107145265028439 -0.029684060074137007 0 0 0
1128 8 29.914410265527643 9.53789642122963 0.4353605535841139 0 0 0
1132 4 34.488569119837635 9.53789642122963 0.4353605535841146 0 0 0
1045 5 36.41675104134727 7.107145265028438 -0.02968406007413759 0 0 0
1049 1 40.99090989565727 7.107145265028438 -0.02968406007413736 0 0 0
1136 8 39.062727974147634 9.53789642122963 0.4353605535841143 0 0 0
1053 5 45.56506874996727 7.107145265028438 -0.029684060074137403 0 0 0
1140 4 43.63688682845764 9.537896421229632 0.43536055358411346 0 0 0
969 1 50.13922760427727 7.107145265028438 -0.029684060074136275 -1 0 0
1144 8 48.21104568276764 9.53789642122963 0.4353605535841142 0 0 0
1060 4 52.78520453707765 9.53789642122963 0.4353605535841148 -1 0 0
973 5 54.71338645858727 7.107145265028439 -0.0296840600741364 -1 0 0
1064 8 57.359363391387646 9.53789642122963 0.4353605535841141 -1 0 0
977 1 59.28754531289727 7.107145265028439 -0.02968406007413684 -1 0 0
981 5 63.86170416720727 7.107145265028439 -0.029684060074138586 -1 0 0
1068 4 61.93352224569764 9.537896421229627 0.43536055358411424 -1 0 0
985 1 68.43586302151728 7.1071452650284375 -0.029684060074137222 -1 0 0
1072 8 66.50768110000764 9.537896421229629 0.4353605535841149 -1 0 0
1076 4 71.08183995431763 9.537896421229634 0.4353605535841168 -1 0 0
989 5 73.01002187582725 7.107145265028439 -0.029684060074140442 -1 0 0
1080 8 75.65599880862764 9.53789642122963 0.4353605535841144 -1 0 0
993 1 77.58418073013728 7.107145265028438 -0.029684060074138582 -1 0 0
997 5 82.15833958444728 7.107145265028438 -0.029684060074135064 -1 0 0
1084 4 80.23015766293764 9.537896421229627 0.4353605535841168 -1 0 0
1001 1 86.73249843875726 7.107145265028438 -0.029684060074140636 -1 0 0
1088 8 84.80431651724764 9.537896421229632 0.435360553584113 -1 0 0
1005 5 91.30665729306726 7.107145265028438 -0.029684060074136463 -1 0 0
1092 4 89.37847537155764 9.537896421229632 0.43536055358411724 -1 0 0
1096 8 93.95263422586764 9.537896421229632 0.43536055358411274 -1 0 0
1013 5 100.45497500168727 7.107145265028438 -0.029684060074137233 -1 0 0
1009 1 95.88081614737726 7.107145265028438 -0.02968406007414099 -1 0 0
1100 4 98.52679308017764 9.53789642122963 0.4353605535841161 -1 0 0
1105 1 4.397639061177273 11.968864547743438 -0.029684060074136945 0 0 0
1192 8 2.469457139667642 14.399615703944631 0.43536055358411385 0 0 0
1193 1 4.397639061177271 16.83058383045844 -0.02968406007413623 0 0 0
1109 5 8.971797915487272 11.968864547743438 -0.02968406007413612 0 0 0
1196 4 7.0436159939776415 14.399615703944631 0.4353605535841144 0 0 0
1200 8 11.61777484828764 14.399615703944631 0.43536055358411463 0 0 0
1197 5 8.97179791548727 16.83058383045844 -0.02968406007413569 0 0 0
1113 1 13.54595676979727 11.968864547743438 -0.029684060074137767 0 0 0
1204 4 16.191933702597645 14.399615703944631 0.43536055358411235 0 0 0
1201 1 13.54595676979727 16.83058383045844 -0.029684060074137 0 0 0
1117 5 18.120115624107274 11.968864547743438 -0.02968406007413745 0 0 0
1121 1 22.694274478417274 11.968864547743438 -0.029684060074137323 0 0 0
1208 8 20.766092556907644 14.399615703944631 0.4353605535841135 0 0 0
1205 5 18.120115624107274 16.83058383045844 -0.02968406007413646 0 0 0
1209 1 22.694274478417274 16.83058383045844 -0.029684060074136 0 0 0
1125 5 27.268433332727273 11.968864547743438 -0.02968406007413679 0 0 0
1212 4 25.340251411217643 14.399615703944631 0.4353605535841135 0 0 0
1213 5 27.268433332727273 16.83058383045844 -0.029684060074136147 0 0 0
1129 1 31.842592187037273 11.968864547743438 -0.02968406007413645 0 0 0
1216 8 29.914410265527643 14.399615703944631 0.4353605535841143 0 0 0
1220 4 34.48856911983764 14.39961570394463 0.4353605535841146 0 0 0
1217 1 31.842592187037273 16.83058383045844 -0.02968406007413589 0 0 0
1133 5 36.41675104134727 11.968864547743438 -0.029684060074136945 0 0 0
1137 1 40.99090989565727 11.968864547743438 -0.02968406007413698 0 0 0
1224 8 39.06272797414764 14.39961570394463 0.43536055358411474 0 0 0
1221 5 36.41675104134727 16.83058383045844 -0.029684060074136855 0 0 0
1225 1 40.99090989565727 16.830583830458437 -0.029684060074136327 0 0 0
1141 5 45.565068749967274 11.968864547743438 -0.02968406007413604 0 0 0
1228 4 43.63688682845764 14.399615703944628 0.4353605535841135 0 0 0
1229 5 45.56506874996727 16.83058383045844 -0.02968406007413632 0 0 0
1057 1 50.13922760427727 11.968864547743438 -0.02968406007413589 -1 0 0
1232 8 48.21104568276764 14.399615703944628 0.43536055358411496 0 0 0
1148 4 52.78520453707764 14.39961570394463 0.4353605535841147 -1 0 0
1145 1 50.13922760427727 16.83058383045844 -0.029684060074136258 -1 0 0
1061 5 54.71338645858727 11.96886454774344 -0.029684060074135446 -1 0 0
1152 8 57.359363391387646 14.39961570394463 0.43536055358411424 -1 0 0
1149 5 54.71338645858727 16.83058383045844 -0.02968406007413548 -1 0 0
1065 1 59.28754531289727 11.968864547743438 -0.02968406007413688 -1 0 0
1069 5 63.861704167207265 11.968864547743435 -0.029684060074139488 -1 0 0
1156 4 61.933522245697645 14.399615703944633 0.43536055358411474 -1 0 0
1153 1 59.28754531289727 16.830583830458437 -0.029684060074136657 -1 0 0
1157 5 63.86170416720727 16.83058383045844 -0.029684060074137465 -1 0 0
1073 1 68.43586302151726 11.968864547743438 -0.02968406007413735 -1 0 0
1160 8 66.50768110000764 14.39961570394463 0.43536055358411513 -1 0 0
1161 1 68.43586302151728 16.830583830458437 -0.02968406007413657 -1 0 0
1164 4 71.08183995431764 14.399615703944631 0.43536055358411657 -1 0 0
1077 5 73.01002187582726 11.968864547743435 -0.02968406007413834 -1 0 0
1168 8 75.65599880862764 14.39961570394463 0.43536055358411496 -1 0 0
1165 5 73.01002187582726 16.830583830458444 -0.029684060074137444 -1 0 0
1081 1 77.58418073013726 11.968864547743438 -0.02968406007413848 -1 0 0
1085 5 82.15833958444726 11.968864547743438 -0.02968406007413693 -1 0 0
1172 4 80.23015766293764 14.399615703944631 0.43536055358411774 -1 0 0
1169 1 77.58418073013728 16.830583830458437 -0.029684060074137663 -1 0 0
1173 5 82.15833958444726 16.830583830458437 -0.02968406007413644 -1 0 0
1089 1 86.73249843875728 11.968864547743436 -0.02968406007413924 -1 0 0
1176 8 84.80431651724764 14.399615703944631 0.43536055358411113 -1 0 0
1177 1 86.73249843875728 16.83058383045844 -0.029684060074137913 -1 0 0
1093 5 91.30665729306727 11.968864547743436 -0.029684060074134894 -1 0 0
1180 4 89.37847537155764 14.399615703944631 0.43536055358411474 -1 0 0
1184 8 93.95263422586764 14.399615703944631 0.43536055358411097 -1 0 0
1181 5 91.30665729306727 16.83058383045844 -0.02968406007413482 -1 0 0
1101 5 100.45497500168726 11.968864547743438 -0.02968406007413709 -1 0 0
1189 5 100.45497500168726 16.830583830458437 -0.029684060074136612 -1 0 0
1097 1 95.88081614737727 11.968864547743436 -0.029684060074139373 -1 0 0
1188 4 98.52679308017764 14.39961570394463 0.43536055358411646 -1 0 0
1185 1 95.88081614737727 16.83058383045844 -0.029684060074137954 -1 0 0
1280 8 2.4694571396676386 19.261334986659634 0.4353605535841146 0 0 0
1281 1 4.397639061177273 21.69230311317344 -0.029684060074136764 0 0 0
1284 4 7.043615993977638 19.261334986659634 0.4353605535841154 0 0 0
1288 8 11.617774848287638 19.26133498665963 0.4353605535841149 0 0 0
1285 5 8.971797915487272 21.692303113173438 -0.02968406007413584 0 0 0
1292 4 16.19193370259764 19.261334986659634 0.43536055358411346 0 0 0
1289 1 13.545956769797272 21.692303113173438 -0.029684060074137444 0 0 0
1296 8 20.76609255690764 19.26133498665963 0.43536055358411524 0 0 0
1293 5 18.120115624107278 21.692303113173438 -0.029684060074136584 0 0 0
1297 1 22.694274478417274 21.692303113173438 -0.0296840600741366 0 0 0
1300 4 25.34025141121764 19.26133498665963 0.43536055358411524 0 0 0
1301 5 27.268433332727273 21.692303113173438 -0.029684060074136483 0 0 0
1304 8 29.91441026552764 19.26133498665963 0.4353605535841148 0 0 0
1308 4 34.48856911983764 19.261334986659634 0.4353605535841138 0 0 0
1305 1 31.842592187037276 21.692303113173434 -0.029684060074136407 0 0 0
1312 8 39.06272797414764 19.26133498665963 0.43536055358411446 0 0 0
1309 5 36.416751041347275 21.692303113173438 -0.02968406007413622 0 0 0
1313 1 40.99090989565727 21.692303113173438 -0.029684060074137267 0 0 0
1316 4 43.63688682845764 19.261334986659634 0.4353605535841132 0 0 0
1317 5 45.565068749967274 21.692303113173438 -0.029684060074136404 0 0 0
1320 8 48.21104568276764 19.261334986659634 0.4353605535841147 0 0 0
1236 4 52.78520453707764 19.261334986659634 0.43536055358411463 -1 0 0
1233 1 50.13922760427727 21.69230311317344 -0.02968406007413559 -1 0 0
1240 8 57.359363391387646 19.26133498665963 0.4353605535841146 -1 0 0
1237 5 54.71338645858727 21.692303113173438 -0.029684060074135793 -1 0 0
1244 4 61.93352224569764 19.26133498665963 0.4353605535841143 -1 0 0
1241 1 59.28754531289727 21.692303113173438 -0.02968406007413624 -1 0 0
1245 5 63.86170416720727 21.692303113173438 -0.029684060074137694 -1 0 0
1248 8 66.50768110000764 19.26133498665963 0.4353605535841159 -1 0 0
1249 1 68.43586302151728 21.692303113173438 -0.029684060074136945 -1 0 0
1252 4 71.08183995431763 19.26133498665963 0.4353605535841166 -1 0 0
1256 8 75.65599880862764 19.26133498665963 0.43536055358411624 -1 0 0
1253 5 73.01002187582726 21.692303113173434 -0.02968406007413783 -1 0 0
1260 4 80.23015766293764 19.261334986659634 0.43536055358411796 -1 0 0
1257 1 77.58418073013726 21.692303113173438 -0.029684060074138194 -1 0 0
1261 5 82.15833958444726 21.69230311317344 -0.02968406007413622 -1 0 0
1264 8 84.80431651724764 19.26133498665963 0.4353605535841149 -1 0 0
1265 1 86.73249843875726 21.692303113173438 -0.029684060074139703 -1 0 0
1268 4 89.37847537155764 19.26133498665963 0.4353605535841169 -1 0 0
1272 8 93.95263422586764 19.26133498665963 0.43536055358411513 -1 0 0
1269 5 91.30665729306726 21.69230311317344 -0.029684060074135907 -1 0 0
1277 5 100.45497500168726 21.692303113173438 -0.029684060074138215 -1 0 0
1276 4 98.52679308017764 19.26133498665963 0.43536055358411646 -1 0 0
1273 1 95.88081614737726 21.69230311317344 -0.02968406007413814 -1 0 0
1368 8 2.469457139667641 24.12305426937463 0.4353605535841137 0 0 0
1369 1 4.397639061177272 26.55402239588844 -0.02968406007413701 0 0 0
1372 4 7.043615993977641 24.12305426937463 0.4353605535841142 0 0 0
1376 8 11.61777484828764 24.12305426937463 0.435360553584114 0 0 0
1373 5 8.971797915487272 26.55402239588844 -0.02968406007413627 0 0 0
1380 4 16.191933702597645 24.12305426937463 0.43536055358411235 0 0 0
1377 1 13.54595676979727 26.55402239588844 -0.029684060074138242 0 0 0
1384 8 20.766092556907644 24.12305426937463 0.4353605535841137 0 0 0
1381 5 18.120115624107278 26.55402239588844 -0.029684060074137937 0 0 0
1385 1 22.694274478417277 26.55402239588844 -0.029684060074137524 0 0 0
1388 4 25.340251411217643 24.12305426937463 0.4353605535841137 0 0 0
1389 5 27.268433332727277 26.55402239588844 -0.029684060074137528 0 0 0
1392 8 29.914410265527643 24.123054269374627 0.435360553584114 0 0 0
1396 4 34.48856911983764 24.123054269374627 0.4353605535841134 0 0 0
1393 1 31.842592187037276 26.554022395888435 -0.029684060074136445 0 0 0
1400 8 39.06272797414764 24.12305426937463 0.4353605535841141 0 0 0
1397 5 36.41675104134727 26.55402239588844 -0.02968406007413701 0 0 0
1401 1 40.99090989565727 26.55402239588844 -0.02968406007413693 0 0 0
1404 4 43.63688682845764 24.123054269374627 0.43536055358411324 0 0 0
1405 5 45.56506874996727 26.55402239588844 -0.029684060074137108 0 0 0
1408 8 48.21104568276764 24.12305426937463 0.43536055358411374 0 0 0
1324 4 52.78520453707765 24.12305426937463 0.4353605535841142 -1 0 0
1321 1 50.13922760427727 26.55402239588844 -0.029684060074135918 -1 0 0
1328 8 57.359363391387646 24.123054269374627 0.43536055358411413 -1 0 0
1325 5 54.71338645858727 26.55402239588844 -0.02968406007413696 -1 0 0
1332 4 61.93352224569764 24.12305426937463 0.43536055358411424 -1 0 0
1329 1 59.28754531289727 26.55402239588844 -0.02968406007413744 -1 0 0
1333 5 63.861704167207265 26.554022395888442 -0.029684060074138666 -1 0 0
1336 8 66.50768110000764 24.12305426937463 0.43536055358411496 -1 0 0
1337 1 68.43586302151728 26.55402239588844 -0.029684060074138603 -1 0 0
1340 4 71.08183995431764 24.123054269374627 0.43536055358411685 -1 0 0
1344 8 75.65599880862764 24.12305426937463 0.43536055358411513 -1 0 0
1341 5 73.01002187582726 26.55402239588844 -0.029684060074138884 -1 0 0
1348 4 80.23015766293764 24.123054269374634 0.43536055358411574 -1 0 0
1345 1 77.58418073013728 26.55402239588844 -0.029684060074138714 -1 0 0
1349 5 82.15833958444728 26.55402239588844 -0.029684060074135144 -1 0 0
1352 8 84.80431651724764 24.12305426937463 0.43536055358411413 -1 0 0
1353 1 86.73249843875726 26.55402239588844 -0.029684060074140067 -1 0 0
1356 4 89.37847537155764 24.123054269374634 0.43536055358411574 -1 0 0
1360 8 93.95263422586764 24.12305426937463 0.4353605535841141 -1 0 0
1357 5 91.30665729306727 26.55402239588844 -0.029684060074134783 -1 0 0
1365 5 100.45497500168727 26.55402239588844 -0.029684060074137486 -1 0 0
1364 4 98.52679308017764 24.12305426937463 0.43536055358411346 -1 0 0
1361 1 95.88081614737726 26.55402239588844 -0.02968406007413849 -1 0 0
1456 8 2.46945713966764 28.98477355208963 0.4353605535841132 0 0 0
1457 1 4.397639061177274 31.41574167860344 -0.029684060074137892 0 0 0
1544 8 2.4694571396676426 33.84649283480463 0.4353605535841122 0 0 0
1460 4 7.043615993977642 28.984773552089628 0.43536055358411435 0 0 0
1464 8 11.617774848287638 28.98477355208963 0.4353605535841142 0 0 0
1461 5 8.971797915487274 31.41574167860344 -0.02968406007413711 0 0 0
1548 4 7.04361599397764 33.84649283480463 0.4353605535841131 0 0 0
1552 8 11.61777484828764 33.84649283480463 0.43536055358411296 0 0 0
1468 4 16.191933702597645 28.98477355208963 0.43536055358411274 0 0 0
1465 1 13.545956769797272 31.415741678603435 -0.029684060074139196 0 0 0
1556 4 16.191933702597645 33.84649283480463 0.43536055358411124 0 0 0
1472 8 20.766092556907644 28.98477355208963 0.43536055358411313 0 0 0
1469 5 18.120115624107274 31.41574167860344 -0.029684060074138752 0 0 0
1473 1 22.694274478417277 31.415741678603435 -0.02968406007413844 0 0 0
1560 8 20.766092556907644 33.84649283480463 0.43536055358411285 0 0 0
1476 4 25.340251411217643 28.98477355208963 0.4353605535841134 0 0 0
1477 5 27.268433332727277 31.415741678603435 -0.029684060074138437 0 0 0
1564 4 25.340251411217643 33.84649283480463 0.43536055358411285 0 0 0
1480 8 29.914410265527643 28.984773552089628 0.435360553584114 0 0 0
1484 4 34.48856911983764 28.98477355208963 0.43536055358411446 0 0 0
1481 1 31.842592187037276 31.415741678603435 -0.02968406007413723 0 0 0
1568 8 29.914410265527643 33.84649283480463 0.4353605535841131 0 0 0
1572 4 34.48856911983764 33.846492834804636 0.43536055358411374 0 0 0
1488 8 39.06272797414764 28.984773552089635 0.4353605535841135 0 0 0
1485 5 36.41675104134727 31.415741678603442 -0.029684060074137254 0 0 0
1489 1 40.990909895657275 31.415741678603442 -0.029684060074136483 0 0 0
1576 8 39.06272797414764 33.84649283480463 0.43536055358411274 0 0 0
1492 4 43.63688682845764 28.98477355208963 0.43536055358411413 0 0 0
1493 5 45.565068749967274 31.41574167860344 -0.029684060074136397 0 0 0
1580 4 43.63688682845764 33.84649283480463 0.4353605535841125 0 0 0
1496 8 48.21104568276764 28.984773552089628 0.4353605535841136 0 0 0
1412 4 52.78520453707764 28.98477355208963 0.4353605535841147 -1 0 0
1409 1 50.139227604277266 31.41574167860344 -0.029684060074137007 -1 0 0
1584 8 48.21104568276764 33.846492834804636 0.43536055358411285 0 0 0
1500 4 52.78520453707764 33.84649283480463 0.43536055358411346 -1 0 0
1416 8 57.359363391387646 28.984773552089628 0.4353605535841137 -1 0 0
1413 5 54.71338645858727 31.41574167860344 -0.029684060074136934 -1 0 0
1504 8 57.359363391387646 33.84649283480463 0.4353605535841129 -1 0 0
1420 4 61.93352224569764 28.98477355208963 0.43536055358411474 -1 0 0
1417 1 59.28754531289727 31.41574167860344 -0.029684060074138284 -1 0 0
1421 5 63.86170416720727 31.415741678603435 -0.029684060074139196 -1 0 0
1508 4 61.933522245697645 33.846492834804636 0.43536055358411385 -1 0 0
1424 8 66.50768110000763 28.98477355208963 0.43536055358411513 -1 0 0
1425 1 68.43586302151728 31.41574167860344 -0.029684060074138978 -1 0 0
1512 8 66.50768110000763 33.84649283480463 0.4353605535841156 -1 0 0
1428 4 71.08183995431764 28.984773552089628 0.4353605535841165 -1 0 0
1516 4 71.08183995431764 33.84649283480463 0.43536055358411585 -1 0 0
1432 8 75.65599880862763 28.98477355208963 0.43536055358411463 -1 0 0
1429 5 73.01002187582728 31.415741678603435 -0.029684060074139654 -1 0 0
1520 8 75.65599880862763 33.84649283480463 0.4353605535841146 -1 0 0
1436 4 80.23015766293764 28.984773552089624 0.4353605535841166 -1 0 0
1433 1 77.58418073013726 31.415741678603435 -0.029684060074139557 -1 0 0
1437 5 82.15833958444726 31.415741678603435 -0.029684060074137313 -1 0 0
1524 4 80.23015766293764 33.84649283480463 0.43536055358411696 -1 0 0
1440 8 84.80431651724764 28.98477355208963 0.43536055358411335 -1 0 0
1441 1 86.73249843875726 31.415741678603435 -0.029684060074140685 -1 0 0
1528 8 84.80431651724764 33.84649283480463 0.4353605535841132 -1 0 0
1444 4 89.37847537155764 28.984773552089628 0.43536055358411613 -1 0 0
1448 8 93.95263422586764 28.98477355208963 0.4353605535841142 -1 0 0
1445 5 91.30665729306727 31.415741678603435 -0.02968406007413702 -1 0 0
1532 4 89.37847537155764 33.84649283480463 0.4353605535841164 -1 0 0
1536 8 93.95263422586764 33.84649283480463 0.4353605535841138 -1 0 0
1453 5 100.45497500168727 31.415741678603442 -0.029684060074136678 -1 0 0
1452 4 98.52679308017764 28.98477355208963 0.4353605535841112 -1 0 0
1449 1 95.88081614737727 31.41574167860344 -0.029684060074139637 -1 0 0
1540 4 98.52679308017764 33.84649283480463 0.435360553584114 -1 0 0
1545 1 4.397639061177272 36.27746096131844 -0.029684060074137847 0 0 0
1632 8 2.46945713966764 38.70821211751963 0.4353605535841139 0 0 0
1549 5 8.971797915487272 36.27746096131843 -0.0296840600741373 0 0 0
1636 4 7.043615993977643 38.70821211751963 0.4353605535841137 0 0 0
1640 8 11.617774848287638 38.70821211751963 0.4353605535841143 0 0 0
1553 1 13.545956769797272 36.27746096131844 -0.029684060074138246 0 0 0
1644 4 16.191933702597645 38.70821211751963 0.43536055358411274 0 0 0
1557 5 18.120115624107278 36.27746096131844 -0.029684060074137476 0 0 0
1561 1 22.694274478417277 36.27746096131843 -0.029684060074137153 0 0 0
1648 8 20.766092556907644 38.70821211751963 0.43536055358411474 0 0 0
1565 5 27.268433332727277 36.27746096131843 -0.029684060074137122 0 0 0
1652 4 25.340251411217643 38.70821211751963 0.43536055358411474 0 0 0
1569 1 31.842592187037276 36.27746096131844 -0.02968406007413746 0 0 0
1656 8 29.91441026552764 38.70821211751963 0.43536055358411513 0 0 0
1660 4 34.48856911983764 38.70821211751963 0.4353605535841139 0 0 0
1573 5 36.416751041347275 36.27746096131844 -0.02968406007413853 0 0 0
1577 1 40.990909895657275 36.27746096131844 -0.02968406007413842 0 0 0
1664 8 39.06272797414764 38.70821211751963 0.43536055358411324 0 0 0
1581 5 45.565068749967274 36.27746096131844 -0.029684060074138617 0 0 0
1668 4 43.63688682845764 38.70821211751963 0.43536055358411374 0 0 0
1497 1 50.13922760427727 36.27746096131844 -0.029684060074137472 -1 0 0
1672 8 48.21104568276764 38.70821211751963 0.43536055358411413 0 0 0
1588 4 52.78520453707764 38.70821211751963 0.43536055358411446 -1 0 0
1501 5 54.71338645858727 36.27746096131843 -0.02968406007413621 -1 0 0
1592 8 57.359363391387646 38.70821211751963 0.4353605535841147 -1 0 0
1505 1 59.28754531289727 36.27746096131844 -0.029684060074136747 -1 0 0
1509 5 63.86170416720727 36.27746096131844 -0.02968406007413863 -1 0 0
1596 4 61.93352224569764 38.70821211751963 0.43536055358411513 -1 0 0
1513 1 68.43586302151726 36.27746096131844 -0.029684060074137403 -1 0 0
1600 8 66.50768110000764 38.70821211751963 0.4353605535841163 -1 0 0
1604 4 71.08183995431764 38.70821211751963 0.435360553584115 -1 0 0
1517 5 73.01002187582726 36.27746096131844 -0.02968406007414022 -1 0 0
1608 8 75.65599880862764 38.70821211751963 0.43536055358411474 -1 0 0
1521 1 77.58418073013728 36.27746096131844 -0.029684060074138936 -1 0 0
1525 5 82.15833958444726 36.27746096131843 -0.029684060074137503 -1 0 0
1612 4 80.23015766293764 38.70821211751963 0.43536055358411657 -1 0 0
1529 1 86.73249843875728 36.27746096131844 -0.02968406007414009 -1 0 0
1616 8 84.80431651724764 38.70821211751963 0.43536055358411285 -1 0 0
1533 5 91.30665729306726 36.27746096131843 -0.02968406007413733 -1 0 0
1620 4 89.37847537155764 38.70821211751963 0.4353605535841162 -1 0 0
1624 8 93.95263422586764 38.70821211751963 0.4353605535841118 -1 0 0
1541 5 100.45497500168727 36.27746096131844 -0.029684060074137746 -1 0 0
1537 1 95.88081614737726 36.27746096131844 -0.029684060074140213 -1 0 0
1628 4 98.52679308017763 38.70821211751963 0.4353605535841167 -1 0 0
1633 1 4.397639061177271 41.13918024403344 -0.029684060074137417 0 0 0
1720 8 2.4694571396676386 43.56993140023463 0.4353605535841149 0 0 0
1637 5 8.971797915487274 41.13918024403344 -0.0296840600741366 0 0 0
1724 4 7.0436159939776415 43.56993140023463 0.4353605535841147 0 0 0
1728 8 11.617774848287638 43.56993140023463 0.4353605535841147 0 0 0
1641 1 13.54595676979727 41.13918024403344 -0.0296840600741379 0 0 0
1732 4 16.191933702597648 43.56993140023463 0.4353605535841121 0 0 0
1645 5 18.120115624107278 41.13918024403343 -0.029684060074138267 0 0 0
1649 1 22.694274478417277 41.13918024403343 -0.02968406007413708 0 0 0
1736 8 20.766092556907648 43.56993140023463 0.4353605535841136 0 0 0
1653 5 27.268433332727277 41.13918024403343 -0.029684060074136858 0 0 0
1740 4 25.340251411217647 43.56993140023463 0.4353605535841137 0 0 0
1657 1 31.842592187037276 41.13918024403343 -0.029684060074136445 0 0 0
1744 8 29.914410265527646 43.56993140023463 0.4353605535841141 0 0 0
1748 4 34.48856911983764 43.56993140023463 0.4353605535841139 0 0 0
1661 5 36.41675104134727 41.13918024403344 -0.029684060074137347 0 0 0
1665 1 40.99090989565727 41.13918024403344 -0.029684060074137274 0 0 0
1752 8 39.06272797414764 43.56993140023463 0.4353605535841144 0 0 0
1669 5 45.56506874996727 41.13918024403344 -0.02968406007413733 0 0 0
1756 4 43.63688682845764 43.56993140023463 0.4353605535841139 0 0 0
1585 1 50.139227604277266 41.13918024403344 -0.02968406007413715 -1 0 0
1760 8 48.21104568276763 43.56993140023463 0.4353605535841152 0 0 0
1676 4 52.78520453707765 43.56993140023463 0.4353605535841136 -1 0 0
1589 5 54.71338645858727 41.13918024403344 -0.029684060074136924 -1 0 0
1680 8 57.359363391387646 43.56993140023463 0.4353605535841139 -1 0 0
1593 1 59.28754531289727 41.13918024403344 -0.02968406007413623 -1 0 0
1597 5 63.86170416720727 41.13918024403344 -0.029684060074137902 -1 0 0
1684 4 61.933522245697645 43.56993140023463 0.4353605535841142 -1 0 0
1601 1 68.43586302151728 41.13918024403344 -0.029684060074136664 -1 0 0
1688 8 66.50768110000764 43.56993140023463 0.43536055358411646 -1 0 0
1692 4 71.08183995431764 43.56993140023463 0.43536055358411535 -1 0 0
1605 5 73.01002187582726 41.13918024403344 -0.02968406007414022 -1 0 0
1696 8 75.65599880862764 43.56993140023462 0.4353605535841151 -1 0 0
1609 1 77.58418073013728 41.13918024403343 -0.029684060074138183 -1 0 0
1613 5 82.15833958444726 41.13918024403344 -0.02968406007413599 -1 0 0
1700 4 80.23015766293764 43.56993140023463 0.43536055358411735 -1 0 0
1617 1 86.73249843875728 41.13918024403344 -0.029684060074140338 -1 0 0
1704 8 84.80431651724764 43.56993140023463 0.4353605535841133 -1 0 0
1621 5 91.30665729306726 41.13918024403344 -0.029684060074136015 -1 0 0
1708 4 89.37847537155764 43.56993140023463 0.4353605535841172 -1 0 0
1712 8 93.95263422586764 43.56993140023463 0.4353605535841132 -1 0 0
1629 5 100.45497500168726 41.13918024403343 -0.029684060074137455 -1 0 0
1625 1 95.88081614737726 41.13918024403344 -0.02968406007414102 -1 0 0
1716 4 98.52679308017764 43.56993140023463 0.4353605535841162 -1 0 0
1721 1 4.397639061177272 46.000899526748434 -0.029684060074137132 0 0 0
1808 8 2.4694571396676412 48.43165068294963 0.43536055358411263 0 0 0
1809 1 4.397639061177271 50.86261880946344 -0.029684060074138707 0 0 0
1725 5 8.971797915487272 46.00089952674844 -0.02968406007413637 0 0 0
1812 4 7.04361599397764 48.43165068294963 0.43536055358411435 0 0 0
1816 8 11.617774848287638 48.43165068294963 0.4353605535841145 0 0 0
1813 5 8.971797915487272 50.86261880946344 -0.029684060074137222 0 0 0
1729 1 13.54595676979727 46.00089952674844 -0.029684060074138076 0 0 0
1820 4 16.191933702597645 48.43165068294963 0.4353605535841118 0 0 0
1817 1 13.54595676979727 50.86261880946344 -0.029684060074137496 0 0 0
1733 5 18.120115624107278 46.000899526748434 -0.029684060074138124 0 0 0
1737 1 22.694274478417277 46.000899526748434 -0.029684060074137902 0 0 0
1824 8 20.766092556907648 48.43165068294963 0.4353605535841129 0 0 0
1821 5 18.120115624107278 50.86261880946344 -0.029684060074138444 0 0 0
1825 1 22.694274478417277 50.86261880946344 -0.029684060074137653 0 0 0
1741 5 27.268433332727277 46.000899526748434 -0.029684060074138045 0 0 0
1828 4 25.340251411217647 48.43165068294963 0.43536055358411324 0 0 0
1829 5 27.268433332727273 50.86261880946344 -0.029684060074137444 0 0 0
1745 1 31.842592187037276 46.000899526748434 -0.029684060074136896 0 0 0
1832 8 29.914410265527646 48.43165068294963 0.4353605535841134 0 0 0
1836 4 34.48856911983764 48.43165068294963 0.43536055358411435 0 0 0
1833 1 31.842592187037273 50.86261880946344 -0.029684060074136986 0 0 0
1749 5 36.41675104134727 46.00089952674844 -0.029684060074137302 0 0 0
1753 1 40.99090989565727 46.00089952674844 -0.029684060074137205 0 0 0