LAMMPS data file via write_data, version 29 Aug 2024, timestep = 0, units = metal

1560 atoms
2 atom types

0 99.539022183536 xlo xhi
0 99.46537139862 ylo yhi
0 16.359755677843 zlo zhi

Masses

1 28.085
2 127.6

Atoms # atomic

782 2 1.9142119650679987 1.1051707933180026 0 0 0 0
784 1 0 0 1.529655163406999 0 0 0
788 1 3.8284239301359975 0 1.529655163406999 0 0 0
786 2 5.742635895203996 1.1051707933180026 0 0 0 0
792 1 7.656847860271995 0 1.529655163406999 0 0 0
790 2 9.57105982534 1.1051707933180026 0 0 0 0
796 1 11.485271790408 0 1.529655163406999 0 0 0
794 2 13.399483755475998 1.1051707933180026 0 0 0 0
800 1 15.313695720543997 0 1.529655163406999 0 0 0
798 2 17.227907685612003 1.1051707933180026 0 0 0 0
804 1 19.142119650679994 0 1.529655163406999 0 0 0
802 2 21.056331615748 1.1051707933180026 0 0 0 0
808 1 22.970543580815992 0 1.529655163406999 0 0 0
806 2 24.884755545883998 1.1051707933180026 0 0 0 0
812 1 26.798967510952004 0 1.529655163406999 0 0 0
810 2 28.713179476019995 1.1051707933180026 0 0 0 0
816 1 30.627391441088 0 1.529655163406999 0 0 0
814 2 32.54160340615599 1.1051707933180026 0 0 0 0
820 1 34.455815371224 0 1.529655163406999 0 0 0
818 2 36.370027336292004 1.1051707933180026 0 0 0 0
824 1 38.284239301359996 0 1.529655163406999 0 0 0
822 2 40.198451266428 1.1051707933180026 0 0 0 0
828 1 42.11266323149599 0 1.529655163406999 0 0 0
826 2 44.026875196564 1.1051707933180026 0 0 0 0
832 1 45.94108716163199 0 1.529655163406999 0 0 0
830 2 47.8552991267 1.1051707933180026 0 0 0 0
732 1 49.769511091768 0 1.529655163406999 -1 0 0
730 2 51.683723056836 1.1051707933180026 0 -1 0 0
736 1 53.597935021904 0 1.529655163406999 -1 0 0
734 2 55.512146986972 1.1051707933180026 0 -1 0 0
740 1 57.426358952040005 0 1.529655163406999 -1 0 0
738 2 59.340570917108 1.1051707933180026 0 -1 0 0
744 1 61.254782882176 0 1.529655163406999 -1 0 0
742 2 63.168994847244 1.1051707933180026 0 -1 0 0
746 2 66.99741877738 1.1051707933180026 0 -1 0 0
748 1 65.083206812312 0 1.529655163406999 -1 0 0
752 1 68.91163074244801 0 1.529655163406999 -1 0 0
750 2 70.825842707516 1.1051707933180026 0 -1 0 0
756 1 72.740054672584 0 1.529655163406999 -1 0 0
754 2 74.654266637652 1.1051707933180026 0 -1 0 0
760 1 76.56847860272 0 1.529655163406999 -1 0 0
758 2 78.482690567788 1.1051707933180026 0 -1 0 0
764 1 80.396902532856 0 1.529655163406999 -1 0 0
762 2 82.311114497924 1.1051707933180026 0 -1 0 0
768 1 84.225326462992 0 1.529655163406999 -1 0 0
766 2 86.13953842806 1.1051707933180026 0 -1 0 0
772 1 88.05375039312801 0 1.529655163406999 -1 0 0
770 2 89.967962358196 1.1051707933180026 0 -1 0 0
776 1 91.882174323264 0 1.529655163406999 -1 0 0
774 2 93.796386288332 1.1051707933180026 0 -1 0 0
780 1 95.71059825340001 0 1.529655163406999 -1 0 0
778 2 97.624810218468 1.1051707933180026 0 -1 0 0
887 1 1.9142119650679987 3.3155123799540007 1.529655163406999 0 0 0
891 1 5.742635895203996 3.3155123799540007 1.529655163406999 0 0 0
895 1 9.57105982534 3.3155123799540007 1.529655163406999 0 0 0
899 1 13.399483755475998 3.3155123799540007 1.529655163406999 0 0 0
903 1 17.227907685612003 3.3155123799540007 1.529655163406999 0 0 0
907 1 21.056331615748 3.3155123799540007 1.529655163406999 0 0 0
911 1 24.884755545883998 3.3155123799540007 1.529655163406999 0 0 0
915 1 28.713179476019995 3.3155123799540007 1.529655163406999 0 0 0
919 1 32.54160340615599 3.3155123799540007 1.529655163406999 0 0 0
923 1 36.370027336292004 3.3155123799540007 1.529655163406999 0 0 0
927 1 40.198451266428 3.3155123799540007 1.529655163406999 0 0 0
931 1 44.026875196564 3.3155123799540007 1.529655163406999 0 0 0
935 1 47.8552991267 3.3155123799540007 1.529655163406999 0 0 0
835 1 51.683723056836 3.3155123799540007 1.529655163406999 -1 0 0
839 1 55.512146986972 3.3155123799540007 1.529655163406999 -1 0 0
843 1 59.340570917108 3.3155123799540007 1.529655163406999 -1 0 0
847 1 63.168994847244 3.3155123799540007 1.529655163406999 -1 0 0
851 1 66.99741877738 3.3155123799540007 1.529655163406999 -1 0 0
855 1 70.825842707516 3.3155123799540007 1.529655163406999 -1 0 0
859 1 74.654266637652 3.3155123799540007 1.529655163406999 -1 0 0
863 1 78.482690567788 3.3155123799540007 1.529655163406999 -1 0 0
867 1 82.311114497924 3.3155123799540007 1.529655163406999 -1 0 0
871 1 86.13953842806 3.3155123799540007 1.529655163406999 -1 0 0
875 1 89.967962358196 3.3155123799540007 1.529655163406999 -1 0 0
879 1 93.796386288332 3.3155123799540007 1.529655163406999 -1 0 0
883 1 97.624810218468 3.3155123799540007 1.529655163406999 -1 0 0
885 2 0 4.420683173272003 0 0 0 0
889 2 3.8284239301359975 4.420683173272003 0 0 0 0
893 2 7.656847860271995 4.420683173272003 0 0 0 0
897 2 11.485271790408 4.420683173272003 0 0 0 0
901 2 15.313695720543997 4.420683173272003 0 0 0 0
905 2 19.142119650679994 4.420683173272003 0 0 0 0
909 2 22.970543580815992 4.420683173272003 0 0 0 0
913 2 26.798967510952004 4.420683173272003 0 0 0 0
917 2 30.627391441088 4.420683173272003 0 0 0 0
921 2 34.455815371224 4.420683173272003 0 0 0 0
925 2 38.284239301359996 4.420683173272003 0 0 0 0
929 2 42.11266323149599 4.420683173272003 0 0 0 0
933 2 45.94108716163199 4.420683173272003 0 0 0 0
833 2 49.769511091768 4.420683173272003 0 -1 0 0
837 2 53.597935021904 4.420683173272003 0 -1 0 0
841 2 57.426358952040005 4.420683173272003 0 -1 0 0
845 2 61.254782882176 4.420683173272003 0 -1 0 0
849 2 65.083206812312 4.420683173272003 0 -1 0 0
853 2 68.91163074244801 4.420683173272003 0 -1 0 0
857 2 72.740054672584 4.420683173272003 0 -1 0 0
861 2 76.56847860272 4.420683173272003 0 -1 0 0
865 2 80.396902532856 4.420683173272003 0 -1 0 0
869 2 84.225326462992 4.420683173272003 0 -1 0 0
873 2 88.05375039312801 4.420683173272003 0 -1 0 0
877 2 91.882174323264 4.420683173272003 0 -1 0 0
881 2 95.71059825340001 4.420683173272003 0 -1 0 0
886 2 1.9142119650679987 7.736195553226004 0 0 0 0
888 1 0 6.631024759908001 1.529655163406999 0 0 0
892 1 3.8284239301359975 6.631024759908001 1.529655163406999 0 0 0
890 2 5.742635895203996 7.736195553226004 0 0 0 0
896 1 7.656847860271995 6.631024759908001 1.529655163406999 0 0 0
894 2 9.57105982534 7.736195553226004 0 0 0 0
900 1 11.485271790408 6.631024759908001 1.529655163406999 0 0 0
898 2 13.399483755475998 7.736195553226004 0 0 0 0
904 1 15.313695720543997 6.631024759908001 1.529655163406999 0 0 0
902 2 17.227907685612003 7.736195553226004 0 0 0 0
908 1 19.142119650679994 6.631024759908001 1.529655163406999 0 0 0
906 2 21.056331615748 7.736195553226004 0 0 0 0
912 1 22.970543580815992 6.631024759908001 1.529655163406999 0 0 0
910 2 24.884755545883998 7.736195553226004 0 0 0 0
916 1 26.798967510952004 6.631024759908001 1.529655163406999 0 0 0
914 2 28.713179476019995 7.736195553226004 0 0 0 0
920 1 30.627391441088 6.631024759908001 1.529655163406999 0 0 0
918 2 32.54160340615599 7.736195553226004 0 0 0 0
924 1 34.455815371224 6.631024759908001 1.529655163406999 0 0 0
922 2 36.370027336292004 7.736195553226004 0 0 0 0
928 1 38.284239301359996 6.631024759908001 1.529655163406999 0 0 0
926 2 40.198451266428 7.736195553226004 0 0 0 0
932 1 42.11266323149599 6.631024759908001 1.529655163406999 0 0 0
930 2 44.026875196564 7.736195553226004 0 0 0 0
936 1 45.94108716163199 6.631024759908001 1.529655163406999 0 0 0
934 2 47.8552991267 7.736195553226004 0 0 0 0
836 1 49.769511091768 6.631024759908001 1.529655163406999 -1 0 0
834 2 51.683723056836 7.736195553226004 0 -1 0 0
840 1 53.597935021904 6.631024759908001 1.529655163406999 -1 0 0
838 2 55.512146986972 7.736195553226004 0 -1 0 0
844 1 57.426358952040005 6.631024759908001 1.529655163406999 -1 0 0
842 2 59.340570917108 7.736195553226004 0 -1 0 0
848 1 61.254782882176 6.631024759908001 1.529655163406999 -1 0 0
846 2 63.168994847244 7.736195553226004 0 -1 0 0
850 2 66.99741877738 7.736195553226004 0 -1 0 0
852 1 65.083206812312 6.631024759908001 1.529655163406999 -1 0 0
856 1 68.91163074244801 6.631024759908001 1.529655163406999 -1 0 0
854 2 70.825842707516 7.736195553226004 0 -1 0 0
860 1 72.740054672584 6.631024759908001 1.529655163406999 -1 0 0
858 2 74.654266637652 7.736195553226004 0 -1 0 0
864 1 76.56847860272 6.631024759908001 1.529655163406999 -1 0 0
862 2 78.482690567788 7.736195553226004 0 -1 0 0
868 1 80.396902532856 6.631024759908001 1.529655163406999 -1 0 0
866 2 82.311114497924 7.736195553226004 0 -1 0 0
872 1 84.225326462992 6.631024759908001 1.529655163406999 -1 0 0
870 2 86.13953842806 7.736195553226004 0 -1 0 0
876 1 88.05375039312801 6.631024759908001 1.529655163406999 -1 0 0
874 2 89.967962358196 7.736195553226004 0 -1 0 0
880 1 91.882174323264 6.631024759908001 1.529655163406999 -1 0 0
878 2 93.796386288332 7.736195553226004 0 -1 0 0
884 1 95.71059825340001 6.631024759908001 1.529655163406999 -1 0 0
882 2 97.624810218468 7.736195553226004 0 -1 0 0
991 1 1.9142119650679987 9.946537139862002 1.529655163406999 0 0 0
995 1 5.742635895203996 9.946537139862002 1.529655163406999 0 0 0
999 1 9.57105982534 9.946537139862002 1.529655163406999 0 0 0
1003 1 13.399483755475998 9.946537139862002 1.529655163406999 0 0 0
1007 1 17.227907685612003 9.946537139862002 1.529655163406999 0 0 0
1011 1 21.056331615748 9.946537139862002 1.529655163406999 0 0 0
1015 1 24.884755545883998 9.946537139862002 1.529655163406999 0 0 0
1019 1 28.713179476019995 9.946537139862002 1.529655163406999 0 0 0
1023 1 32.54160340615599 9.946537139862002 1.529655163406999 0 0 0
1027 1 36.370027336292004 9.946537139862002 1.529655163406999 0 0 0
1031 1 40.198451266428 9.946537139862002 1.529655163406999 0 0 0
1035 1 44.026875196564 9.946537139862002 1.529655163406999 0 0 0
1039 1 47.8552991267 9.946537139862002 1.529655163406999 0 0 0
939 1 51.683723056836 9.946537139862002 1.529655163406999 -1 0 0
943 1 55.512146986972 9.946537139862002 1.529655163406999 -1 0 0
947 1 59.340570917108 9.946537139862002 1.529655163406999 -1 0 0
951 1 63.168994847244 9.946537139862002 1.529655163406999 -1 0 0
955 1 66.99741877738 9.946537139862002 1.529655163406999 -1 0 0
959 1 70.825842707516 9.946537139862002 1.529655163406999 -1 0 0
963 1 74.654266637652 9.946537139862002 1.529655163406999 -1 0 0
967 1 78.482690567788 9.946537139862002 1.529655163406999 -1 0 0
971 1 82.311114497924 9.946537139862002 1.529655163406999 -1 0 0
975 1 86.13953842806 9.946537139862002 1.529655163406999 -1 0 0
979 1 89.967962358196 9.946537139862002 1.529655163406999 -1 0 0
983 1 93.796386288332 9.946537139862002 1.529655163406999 -1 0 0
987 1 97.624810218468 9.946537139862002 1.529655163406999 -1 0 0
989 2 0 11.051707933179998 0 0 0 0
993 2 3.8284239301359975 11.051707933179998 0 0 0 0
997 2 7.656847860271995 11.051707933179998 0 0 0 0
1001 2 11.485271790408 11.051707933179998 0 0 0 0
1005 2 15.313695720543997 11.051707933179998 0 0 0 0
1009 2 19.142119650679994 11.051707933179998 0 0 0 0
1013 2 22.970543580815992 11.051707933179998 0 0 0 0
1017 2 26.798967510952004 11.051707933179998 0 0 0 0
1021 2 30.627391441088 11.051707933179998 0 0 0 0
1025 2 34.455815371224 11.051707933179998 0 0 0 0
1029 2 38.284239301359996 11.051707933179998 0 0 0 0
1033 2 42.11266323149599 11.051707933179998 0 0 0 0
1037 2 45.94108716163199 11.051707933179998 0 0 0 0
937 2 49.769511091768 11.051707933179998 0 -1 0 0
941 2 53.597935021904 11.051707933179998 0 -1 0 0
945 2 57.426358952040005 11.051707933179998 0 -1 0 0
949 2 61.254782882176 11.051707933179998 0 -1 0 0
953 2 65.083206812312 11.051707933179998 0 -1 0 0
957 2 68.91163074244801 11.051707933179998 0 -1 0 0
961 2 72.740054672584 11.051707933179998 0 -1 0 0
965 2 76.56847860272 11.051707933179998 0 -1 0 0
969 2 80.396902532856 11.051707933179998 0 -1 0 0
973 2 84.225326462992 11.051707933179998 0 -1 0 0
977 2 88.05375039312801 11.051707933179998 0 -1 0 0
981 2 91.882174323264 11.051707933179998 0 -1 0 0
985 2 95.71059825340001 11.051707933179998 0 -1 0 0
992 1 0 13.262049519815996 1.529655163406999 0 0 0
996 1 3.8284239301359975 13.262049519815996 1.529655163406999 0 0 0
1000 1 7.656847860271995 13.262049519815996 1.529655163406999 0 0 0
1004 1 11.485271790408 13.262049519815996 1.529655163406999 0 0 0
1008 1 15.313695720543997 13.262049519815996 1.529655163406999 0 0 0
1012 1 19.142119650679994 13.262049519815996 1.529655163406999 0 0 0
1016 1 22.970543580815992 13.262049519815996 1.529655163406999 0 0 0
1020 1 26.798967510952004 13.262049519815996 1.529655163406999 0 0 0
1024 1 30.627391441088 13.262049519815996 1.529655163406999 0 0 0
1028 1 34.455815371224 13.262049519815996 1.529655163406999 0 0 0
1032 1 38.284239301359996 13.262049519815996 1.529655163406999 0 0 0
1036 1 42.11266323149599 13.262049519815996 1.529655163406999 0 0 0
1040 1 45.94108716163199 13.262049519815996 1.529655163406999 0 0 0
940 1 49.769511091768 13.262049519815996 1.529655163406999 -1 0 0
944 1 53.597935021904 13.262049519815996 1.529655163406999 -1 0 0
948 1 57.426358952040005 13.262049519815996 1.529655163406999 -1 0 0
952 1 61.254782882176 13.262049519815996 1.529655163406999 -1 0 0
956 1 65.083206812312 13.262049519815996 1.529655163406999 -1 0 0
960 1 68.91163074244801 13.262049519815996 1.529655163406999 -1 0 0
964 1 72.740054672584 13.262049519815996 1.529655163406999 -1 0 0
968 1 76.56847860272 13.262049519815996 1.529655163406999 -1 0 0
972 1 80.396902532856 13.262049519815996 1.529655163406999 -1 0 0
976 1 84.225326462992 13.262049519815996 1.529655163406999 -1 0 0
980 1 88.05375039312801 13.262049519815996 1.529655163406999 -1 0 0
984 1 91.882174323264 13.262049519815996 1.529655163406999 -1 0 0
988 1 95.71059825340001 13.262049519815996 1.529655163406999 -1 0 0
990 2 1.9142119650679987 14.367220313134005 0 0 0 0
994 2 5.742635895203996 14.367220313134005 0 0 0 0
998 2 9.57105982534 14.367220313134005 0 0 0 0
1002 2 13.399483755475998 14.367220313134005 0 0 0 0
1006 2 17.227907685612003 14.367220313134005 0 0 0 0
1010 2 21.056331615748 14.367220313134005 0 0 0 0
1014 2 24.884755545883998 14.367220313134005 0 0 0 0
1018 2 28.713179476019995 14.367220313134005 0 0 0 0
1022 2 32.54160340615599 14.367220313134005 0 0 0 0
1026 2 36.370027336292004 14.367220313134005 0 0 0 0
1030 2 40.198451266428 14.367220313134005 0 0 0 0
1034 2 44.026875196564 14.367220313134005 0 0 0 0
1038 2 47.8552991267 14.367220313134005 0 0 0 0
938 2 51.683723056836 14.367220313134005 0 -1 0 0
942 2 55.512146986972 14.367220313134005 0 -1 0 0
946 2 59.340570917108 14.367220313134005 0 -1 0 0
950 2 63.168994847244 14.367220313134005 0 -1 0 0
954 2 66.99741877738 14.367220313134005 0 -1 0 0
958 2 70.825842707516 14.367220313134005 0 -1 0 0
962 2 74.654266637652 14.367220313134005 0 -1 0 0
966 2 78.482690567788 14.367220313134005 0 -1 0 0
970 2 82.311114497924 14.367220313134005 0 -1 0 0
974 2 86.13953842806 14.367220313134005 0 -1 0 0
978 2 89.967962358196 14.367220313134005 0 -1 0 0
982 2 93.796386288332 14.367220313134005 0 -1 0 0
986 2 97.624810218468 14.367220313134005 0 -1 0 0
1093 2 0 17.682732693088006 0 0 0 0
1095 1 1.9142119650679987 16.577561899769997 1.529655163406999 0 0 0
1097 2 3.8284239301359975 17.682732693088006 0 0 0 0
1099 1 5.742635895203996 16.577561899769997 1.529655163406999 0 0 0
1101 2 7.656847860271995 17.682732693088006 0 0 0 0
1103 1 9.57105982534 16.577561899769997 1.529655163406999 0 0 0
1105 2 11.485271790408 17.682732693088006 0 0 0 0
1107 1 13.399483755475998 16.577561899769997 1.529655163406999 0 0 0
1109 2 15.313695720543997 17.682732693088006 0 0 0 0
1111 1 17.227907685612003 16.577561899769997 1.529655163406999 0 0 0
1113 2 19.142119650679994 17.682732693088006 0 0 0 0
1115 1 21.056331615748 16.577561899769997 1.529655163406999 0 0 0
1117 2 22.970543580815992 17.682732693088006 0 0 0 0
1119 1 24.884755545883998 16.577561899769997 1.529655163406999 0 0 0
1121 2 26.798967510952004 17.682732693088006 0 0 0 0
1123 1 28.713179476019995 16.577561899769997 1.529655163406999 0 0 0
1125 2 30.627391441088 17.682732693088006 0 0 0 0
1129 2 34.455815371224 17.682732693088006 0 0 0 0
1127 1 32.54160340615599 16.577561899769997 1.529655163406999 0 0 0
1131 1 36.370027336292004 16.577561899769997 1.529655163406999 0 0 0
1133 2 38.284239301359996 17.682732693088006 0 0 0 0
1135 1 40.198451266428 16.577561899769997 1.529655163406999 0 0 0
1137 2 42.11266323149599 17.682732693088006 0 0 0 0
1139 1 44.026875196564 16.577561899769997 1.529655163406999 0 0 0
1141 2 45.94108716163199 17.682732693088006 0 0 0 0
1143 1 47.8552991267 16.577561899769997 1.529655163406999 0 0 0
1041 2 49.769511091768 17.682732693088006 0 -1 0 0
1043 1 51.683723056836 16.577561899769997 1.529655163406999 -1 0 0
1045 2 53.597935021904 17.682732693088006 0 -1 0 0
1047 1 55.512146986972 16.577561899769997 1.529655163406999 -1 0 0
1049 2 57.426358952040005 17.682732693088006 0 -1 0 0
1051 1 59.340570917108 16.577561899769997 1.529655163406999 -1 0 0
1053 2 61.254782882176 17.682732693088006 0 -1 0 0
1055 1 63.168994847244 16.577561899769997 1.529655163406999 -1 0 0
1057 2 65.083206812312 17.682732693088006 0 -1 0 0
1059 1 66.99741877738 16.577561899769997 1.529655163406999 -1 0 0
1061 2 68.91163074244801 17.682732693088006 0 -1 0 0
1063 1 70.825842707516 16.577561899769997 1.529655163406999 -1 0 0
1065 2 72.740054672584 17.682732693088006 0 -1 0 0
1067 1 74.654266637652 16.577561899769997 1.529655163406999 -1 0 0
1069 2 76.56847860272 17.682732693088006 0 -1 0 0
1071 1 78.482690567788 16.577561899769997 1.529655163406999 -1 0 0
1073 2 80.396902532856 17.682732693088006 0 -1 0 0
1075 1 82.311114497924 16.577561899769997 1.529655163406999 -1 0 0
1077 2 84.225326462992 17.682732693088006 0 -1 0 0
1079 1 86.13953842806 16.577561899769997 1.529655163406999 -1 0 0
1081 2 88.05375039312801 17.682732693088006 0 -1 0 0
1083 1 89.967962358196 16.577561899769997 1.529655163406999 -1 0 0
1085 2 91.882174323264 17.682732693088006 0 -1 0 0
1087 1 93.796386288332 16.577561899769997 1.529655163406999 -1 0 0
1089 2 95.71059825340001 17.682732693088006 0 -1 0 0
1091 1 97.624810218468 16.577561899769997 1.529655163406999 -1 0 0
1096 1 0 19.893074279723997 1.529655163406999 0 0 0
1100 1 3.8284239301359975 19.893074279723997 1.529655163406999 0 0 0
1104 1 7.656847860271995 19.893074279723997 1.529655163406999 0 0 0
1108 1 11.485271790408 19.893074279723997 1.529655163406999 0 0 0
1112 1 15.313695720543997 19.893074279723997 1.529655163406999 0 0 0
1116 1 19.142119650679994 19.893074279723997 1.529655163406999 0 0 0
1120 1 22.970543580815992 19.893074279723997 1.529655163406999 0 0 0
1124 1 26.798967510952004 19.893074279723997 1.529655163406999 0 0 0
1128 1 30.627391441088 19.893074279723997 1.529655163406999 0 0 0
1132 1 34.455815371224 19.893074279723997 1.529655163406999 0 0 0
1136 1 38.284239301359996 19.893074279723997 1.529655163406999 0 0 0
1140 1 42.11266323149599 19.893074279723997 1.529655163406999 0 0 0
1144 1 45.94108716163199 19.893074279723997 1.529655163406999 0 0 0
1044 1 49.769511091768 19.893074279723997 1.529655163406999 -1 0 0
1048 1 53.597935021904 19.893074279723997 1.529655163406999 -1 0 0
1052 1 57.426358952040005 19.893074279723997 1.529655163406999 -1 0 0
1056 1 61.254782882176 19.893074279723997 1.529655163406999 -1 0 0
1060 1 65.083206812312 19.893074279723997 1.529655163406999 -1 0 0
1064 1 68.91163074244801 19.893074279723997 1.529655163406999 -1 0 0
1068 1 72.740054672584 19.893074279723997 1.529655163406999 -1 0 0
1072 1 76.56847860272 19.893074279723997 1.529655163406999 -1 0 0
1076 1 80.396902532856 19.893074279723997 1.529655163406999 -1 0 0
1080 1 84.225326462992 19.893074279723997 1.529655163406999 -1 0 0
1084 1 88.05375039312801 19.893074279723997 1.529655163406999 -1 0 0
1088 1 91.882174323264 19.893074279723997 1.529655163406999 -1 0 0
1092 1 95.71059825340001 19.893074279723997 1.529655163406999 -1 0 0
1094 2 1.9142119650679987 20.998245073042007 0 0 0 0
1098 2 5.742635895203996 20.998245073042007 0 0 0 0
1102 2 9.57105982534 20.998245073042007 0 0 0 0
1106 2 13.399483755475998 20.998245073042007 0 0 0 0
1110 2 17.227907685612003 20.998245073042007 0 0 0 0
1114 2 21.056331615748 20.998245073042007 0 0 0 0
1118 2 24.884755545883998 20.998245073042007 0 0 0 0
1122 2 28.713179476019995 20.998245073042007 0 0 0 0
1126 2 32.54160340615599 20.998245073042007 0 0 0 0
1130 2 36.370027336292004 20.998245073042007 0 0 0 0
1134 2 40.198451266428 20.998245073042007 0 0 0 0
1138 2 44.026875196564 20.998245073042007 0 0 0 0
1142 2 47.8552991267 20.998245073042007 0 0 0 0
1042 2 51.683723056836 20.998245073042007 0 -1 0 0
1046 2 55.512146986972 20.998245073042007 0 -1 0 0
1050 2 59.340570917108 20.998245073042007 0 -1 0 0
1054 2 63.168994847244 20.998245073042007 0 -1 0 0
1058 2 66.99741877738 20.998245073042007 0 -1 0 0
1062 2 70.825842707516 20.998245073042007 0 -1 0 0
1066 2 74.654266637652 20.998245073042007 0 -1 0 0
1070 2 78.482690567788 20.998245073042007 0 -1 0 0
1074 2 82.311114497924 20.998245073042007 0 -1 0 0
1078 2 86.13953842806 20.998245073042007 0 -1 0 0
1082 2 89.967962358196 20.998245073042007 0 -1 0 0
1086 2 93.796386288332 20.998245073042007 0 -1 0 0
1090 2 97.624810218468 20.998245073042007 0 -1 0 0
1197 2 0 24.313757452996008 0 0 0 0
1199 1 1.9142119650679987 23.208586659677998 1.529655163406999 0 0 0
1201 2 3.8284239301359975 24.313757452996008 0 0 0 0
1203 1 5.742635895203996 23.208586659677998 1.529655163406999 0 0 0
1205 2 7.656847860271995 24.313757452996008 0 0 0 0
1207 1 9.57105982534 23.208586659677998 1.529655163406999 0 0 0
1209 2 11.485271790408 24.313757452996008 0 0 0 0
1211 1 13.399483755475998 23.208586659677998 1.529655163406999 0 0 0
1213 2 15.313695720543997 24.313757452996008 0 0 0 0
1215 1 17.227907685612003 23.208586659677998 1.529655163406999 0 0 0
1217 2 19.142119650679994 24.313757452996008 0 0 0 0
1219 1 21.056331615748 23.208586659677998 1.529655163406999 0 0 0
1221 2 22.970543580815992 24.313757452996008 0 0 0 0
1223 1 24.884755545883998 23.208586659677998 1.529655163406999 0 0 0
1225 2 26.798967510952004 24.313757452996008 0 0 0 0
1227 1 28.713179476019995 23.208586659677998 1.529655163406999 0 0 0
1229 2 30.627391441088 24.313757452996008 0 0 0 0
1233 2 34.455815371224 24.313757452996008 0 0 0 0
1231 1 32.54160340615599 23.208586659677998 1.529655163406999 0 0 0
1235 1 36.370027336292004 23.208586659677998 1.529655163406999 0 0 0
1237 2 38.284239301359996 24.313757452996008 0 0 0 0
1239 1 40.198451266428 23.208586659677998 1.529655163406999 0 0 0
1241 2 42.11266323149599 24.313757452996008 0 0 0 0
1243 1 44.026875196564 23.208586659677998 1.529655163406999 0 0 0
1245 2 45.94108716163199 24.313757452996008 0 0 0 0
1247 1 47.8552991267 23.208586659677998 1.529655163406999 0 0 0
1145 2 49.769511091768 24.313757452996008 0 -1 0 0
1147 1 51.683723056836 23.208586659677998 1.529655163406999 -1 0 0
1149 2 53.597935021904 24.313757452996008 0 -1 0 0
1151 1 55.512146986972 23.208586659677998 1.529655163406999 -1 0 0
1153 2 57.426358952040005 24.313757452996008 0 -1 0 0
1155 1 59.340570917108 23.208586659677998 1.529655163406999 -1 0 0
1157 2 61.254782882176 24.313757452996008 0 -1 0 0
1159 1 63.168994847244 23.208586659677998 1.529655163406999 -1 0 0
1161 2 65.083206812312 24.313757452996008 0 -1 0 0
1163 1 66.99741877738 23.208586659677998 1.529655163406999 -1 0 0
1165 2 68.91163074244801 24.313757452996008 0 -1 0 0
1167 1 70.825842707516 23.208586659677998 1.529655163406999 -1 0 0
1169 2 72.740054672584 24.313757452996008 0 -1 0 0
1171 1 74.654266637652 23.208586659677998 1.529655163406999 -1 0 0
1173 2 76.56847860272 24.313757452996008 0 -1 0 0
1175 1 78.482690567788 23.208586659677998 1.529655163406999 -1 0 0
1177 2 80.396902532856 24.313757452996008 0 -1 0 0
1179 1 82.311114497924 23.208586659677998 1.529655163406999 -1 0 0
1181 2 84.225326462992 24.313757452996008 0 -1 0 0
1183 1 86.13953842806 23.208586659677998 1.529655163406999 -1 0 0
1185 2 88.05375039312801 24.313757452996008 0 -1 0 0
1187 1 89.967962358196 23.208586659677998 1.529655163406999 -1 0 0
1189 2 91.882174323264 24.313757452996008 0 -1 0 0
1191 1 93.796386288332 23.208586659677998 1.529655163406999 -1 0 0
1193 2 95.71059825340001 24.313757452996008 0 -1 0 0
1195 1 97.624810218468 23.208586659677998 1.529655163406999 -1 0 0
1198 2 1.9142119650679987 27.629269832949994 0 0 0 0
1200 1 0 26.524099039632 1.529655163406999 0 0 0
1204 1 3.8284239301359975 26.524099039632 1.529655163406999 0 0 0
1202 2 5.742635895203996 27.629269832949994 0 0 0 0
1208 1 7.656847860271995 26.524099039632 1.529655163406999 0 0 0
1206 2 9.57105982534 27.629269832949994 0 0 0 0
1212 1 11.485271790408 26.524099039632 1.529655163406999 0 0 0
1210 2 13.399483755475998 27.629269832949994 0 0 0 0
1216 1 15.313695720543997 26.524099039632 1.529655163406999 0 0 0
1214 2 17.227907685612003 27.629269832949994 0 0 0 0
1220 1 19.142119650679994 26.524099039632 1.529655163406999 0 0 0
1218 2 21.056331615748 27.629269832949994 0 0 0 0
1224 1 22.970543580815992 26.524099039632 1.529655163406999 0 0 0
1222 2 24.884755545883998 27.629269832949994 0 0 0 0
1228 1 26.798967510952004 26.524099039632 1.529655163406999 0 0 0
1226 2 28.713179476019995 27.629269832949994 0 0 0 0
1232 1 30.627391441088 26.524099039632 1.529655163406999 0 0 0
1230 2 32.54160340615599 27.629269832949994 0 0 0 0
1236 1 34.455815371224 26.524099039632 1.529655163406999 0 0 0
1234 2 36.370027336292004 27.629269832949994 0 0 0 0
1240 1 38.284239301359996 26.524099039632 1.529655163406999 0 0 0
1238 2 40.198451266428 27.629269832949994 0 0 0 0
1244 1 42.11266323149599 26.524099039632 1.529655163406999 0 0 0
1242 2 44.026875196564 27.629269832949994 0 0 0 0
1248 1 45.94108716163199 26.524099039632 1.529655163406999 0 0 0
1246 2 47.8552991267 27.629269832949994 0 0 0 0
1148 1 49.769511091768 26.524099039632 1.529655163406999 -1 0 0
1146 2 51.683723056836 27.629269832949994 0 -1 0 0
1152 1 53.597935021904 26.524099039632 1.529655163406999 -1 0 0
1150 2 55.512146986972 27.629269832949994 0 -1 0 0
1156 1 57.426358952040005 26.524099039632 1.529655163406999 -1 0 0
1154 2 59.340570917108 27.629269832949994 0 -1 0 0
1160 1 61.254782882176 26.524099039632 1.529655163406999 -1 0 0
1158 2 63.168994847244 27.629269832949994 0 -1 0 0
1162 2 66.99741877738 27.629269832949994 0 -1 0 0
1164 1 65.083206812312 26.524099039632 1.529655163406999 -1 0 0
1168 1 68.91163074244801 26.524099039632 1.529655163406999 -1 0 0
1166 2 70.825842707516 27.629269832949994 0 -1 0 0
1172 1 72.740054672584 26.524099039632 1.529655163406999 -1 0 0
1170 2 74.654266637652 27.629269832949994 0 -1 0 0
1176 1 76.56847860272 26.524099039632 1.529655163406999 -1 0 0
1174 2 78.482690567788 27.629269832949994 0 -1 0 0
1180 1 80.396902532856 26.524099039632 1.529655163406999 -1 0 0
1178 2 82.311114497924 27.629269832949994 0 -1 0 0
1184 1 84.225326462992 26.524099039632 1.529655163406999 -1 0 0
1182 2 86.13953842806 27.629269832949994 0 -1 0 0
1188 1 88.05375039312801 26.524099039632 1.529655163406999 -1 0 0
1186 2 89.967962358196 27.629269832949994 0 -1 0 0
1192 1 91.882174323264 26.524099039632 1.529655163406999 -1 0 0
1190 2 93.796386288332 27.629269832949994 0 -1 0 0
1196 1 95.71059825340001 26.524099039632 1.529655163406999 -1 0 0
1194 2 97.624810218468 27.629269832949994 0 -1 0 0
1303 1 1.9142119650679987 29.839611419586 1.529655163406999 0 0 0
1307 1 5.742635895203996 29.839611419586 1.529655163406999 0 0 0
1311 1 9.57105982534 29.839611419586 1.529655163406999 0 0 0
1315 1 13.399483755475998 29.839611419586 1.529655163406999 0 0 0
1319 1 17.227907685612003 29.839611419586 1.529655163406999 0 0 0
1323 1 21.056331615748 29.839611419586 1.529655163406999 0 0 0
1327 1 24.884755545883998 29.839611419586 1.529655163406999 0 0 0
1331 1 28.713179476019995 29.839611419586 1.529655163406999 0 0 0
1335 1 32.54160340615599 29.839611419586 1.529655163406999 0 0 0
1339 1 36.370027336292004 29.839611419586 1.529655163406999 0 0 0
1343 1 40.198451266428 29.839611419586 1.529655163406999 0 0 0
1347 1 44.026875196564 29.839611419586 1.529655163406999 0 0 0
1351 1 47.8552991267 29.839611419586 1.529655163406999 0 0 0
1251 1 51.683723056836 29.839611419586 1.529655163406999 -1 0 0
1255 1 55.512146986972 29.839611419586 1.529655163406999 -1 0 0
1259 1 59.340570917108 29.839611419586 1.529655163406999 -1 0 0
1263 1 63.168994847244 29.839611419586 1.529655163406999 -1 0 0
1267 1 66.99741877738 29.839611419586 1.529655163406999 -1 0 0
1271 1 70.825842707516 29.839611419586 1.529655163406999 -1 0 0
1275 1 74.654266637652 29.839611419586 1.529655163406999 -1 0 0
1279 1 78.482690567788 29.839611419586 1.529655163406999 -1 0 0
1283 1 82.311114497924 29.839611419586 1.529655163406999 -1 0 0
1287 1 86.13953842806 29.839611419586 1.529655163406999 -1 0 0
1291 1 89.967962358196 29.839611419586 1.529655163406999 -1 0 0
1295 1 93.796386288332 29.839611419586 1.529655163406999 -1 0 0
1299 1 97.624810218468 29.839611419586 1.529655163406999 -1 0 0
1301 2 0 30.944782212903995 0 0 0 0
1305 2 3.8284239301359975 30.944782212903995 0 0 0 0
1309 2 7.656847860271995 30.944782212903995 0 0 0 0
1313 2 11.485271790408 30.944782212903995 0 0 0 0
1317 2 15.313695720543997 30.944782212903995 0 0 0 0
1321 2 19.142119650679994 30.944782212903995 0 0 0 0
1325 2 22.970543580815992 30.944782212903995 0 0 0 0
1329 2 26.798967510952004 30.944782212903995 0 0 0 0
1333 2 30.627391441088 30.944782212903995 0 0 0 0
1337 2 34.455815371224 30.944782212903995 0 0 0 0
1341 2 38.284239301359996 30.944782212903995 0 0 0 0
1345 2 42.11266323149599 30.944782212903995 0 0 0 0
1349 2 45.94108716163199 30.944782212903995 0 0 0 0
1249 2 49.769511091768 30.944782212903995 0 -1 0 0
1253 2 53.597935021904 30.944782212903995 0 -1 0 0
1257 2 57.426358952040005 30.944782212903995 0 -1 0 0
1261 2 61.254782882176 30.944782212903995 0 -1 0 0
1265 2 65.083206812312 30.944782212903995 0 -1 0 0
1269 2 68.91163074244801 30.944782212903995 0 -1 0 0
1273 2 72.740054672584 30.944782212903995 0 -1 0 0
1277 2 76.56847860272 30.944782212903995 0 -1 0 0
1281 2 80.396902532856 30.944782212903995 0 -1 0 0
1285 2 84.225326462992 30.944782212903995 0 -1 0 0
1289 2 88.05375039312801 30.944782212903995 0 -1 0 0