LAMMPS data file via write_data, version 29 Aug 2024, timestep = 1, units = metal

3120 atoms
4 atom types

0 99.539022183536 xlo xhi
0 99.46537139862 ylo yhi
-50 50 zlo zhi

Masses

1 28.085
2 28.085
3 127.6
4 127.6

Atoms # atomic

782 3 1.9142119650679985 1.105167900854201 -4.831840423481678e-05 0 0 0
786 3 5.742635895203996 1.105167900854201 -4.831840423481622e-05 0 0 0
887 1 1.9142119650679985 3.314734452369275 1.5348527652253399 0 0 0
891 1 5.742635895203996 3.314734452369275 1.5348527652253399 0 0 0
885 3 0 4.420680280808201 -4.831840423335771e-05 0 0 0
889 3 3.8284239301359975 4.4206802808082015 -4.831840423483067e-05 0 0 0
790 3 9.571059825339999 1.1051679008542001 -4.831840423334517e-05 0 0 0
895 1 9.571059825339999 3.3147344523692763 1.5348527652253385 0 0 0
893 3 7.656847860271998 4.420680280808201 -4.831840423349413e-05 0 0 0
897 3 11.485271790408 4.4206802808082015 -4.83184042349711e-05 0 0 0
794 3 13.399483755475998 1.105167900854201 -4.831840423481657e-05 0 0 0
798 3 17.227907685612 1.1051679008542012 -4.831840423500799e-05 0 0 0
899 1 13.399483755475998 3.314734452369275 1.5348527652253399 0 0 0
903 1 17.227907685612 3.314734452369275 1.53485276522534 0 0 0
901 3 15.313695720543999 4.420680280808201 -4.831840423335448e-05 0 0 0
802 3 21.056331615747997 1.1051679008542012 -4.831840423487371e-05 0 0 0
907 1 21.056331615747997 3.314734452369275 1.53485276522534 0 0 0
905 3 19.142119650679998 4.4206802808082015 -4.831840423502636e-05 0 0 0
909 3 22.970543580815995 4.4206802808082015 -4.831840423528821e-05 0 0 0
806 3 24.884755545883998 1.1051679008541988 -4.83184042317133e-05 0 0 0
810 3 28.71317947602 1.1051679008542012 -4.831840423487366e-05 0 0 0
911 1 24.884755545883998 3.314734452369277 1.5348527652253368 0 0 0
915 1 28.71317947602 3.314734452369275 1.53485276522534 0 0 0
913 3 26.798967510952 4.4206802808082015 -4.831840423528842e-05 0 0 0
814 3 32.541603406156 1.1051679008542012 -4.831840423513935e-05 0 0 0
919 1 32.541603406156 3.314734452369275 1.5348527652253403 0 0 0
917 3 30.627391441087997 4.4206802808082015 -4.831840423502758e-05 0 0 0
921 3 34.455815371224 4.4206802808082 -4.831840423186566e-05 0 0 0
818 3 36.370027336292 1.1051679008542012 -4.831840423513583e-05 0 0 0
822 3 40.198451266427995 1.1051679008542012 -4.831840423487206e-05 0 0 0
923 1 36.370027336292 3.314734452369275 1.5348527652253403 0 0 0
927 1 40.198451266427995 3.314734452369275 1.53485276522534 0 0 0
925 3 38.28423930136 4.4206802808082015 -4.831840423502458e-05 0 0 0
826 3 44.02687519656399 1.1051679008542012 -4.831840423487215e-05 0 0 0
931 1 44.02687519656399 3.314734452369275 1.53485276522534 0 0 0
929 3 42.112663231496 4.4206802808082015 -4.8318404235024476e-05 0 0 0
933 3 45.941087161632 4.4206802808082015 -4.831840423528829e-05 0 0 0
830 3 47.8552991267 1.105167900854199 -4.831840423185043e-05 0 0 0
730 3 51.683723056836 1.105167900854201 -4.831840423481682e-05 -1 0 0
935 1 47.8552991267 3.314734452369277 1.534852765225337 0 0 0
835 1 51.683723056836 3.314734452369275 1.5348527652253399 -1 0 0
833 3 49.769511091768 4.420680280808201 -4.8318404233622345e-05 -1 0 0
734 3 55.512146986972 1.1051679008542001 -4.8318404233341516e-05 -1 0 0
839 1 55.512146986972 3.3147344523692763 1.5348527652253385 -1 0 0
837 3 53.597935021904 4.4206802808082015 -4.831840423496778e-05 -1 0 0
841 3 57.426358952040005 4.420680280808201 -4.8318404233493305e-05 -1 0 0
738 3 59.340570917108 1.105167900854201 -4.8318404234817935e-05 -1 0 0
742 3 63.168994847244 1.105167900854201 -4.83184042348152e-05 -1 0 0
843 1 59.340570917108 3.314734452369275 1.5348527652253399 -1 0 0
847 1 63.168994847244 3.314734452369275 1.5348527652253399 -1 0 0
845 3 61.254782882176 4.4206802808082015 -4.831840423483102e-05 -1 0 0
746 3 66.99741877738 1.105167900854199 -4.831840423184849e-05 -1 0 0
851 1 66.99741877738 3.314734452369277 1.534852765225337 -1 0 0
849 3 65.083206812312 4.420680280808201 -4.831840423361915e-05 -1 0 0
853 3 68.91163074244801 4.4206802808082015 -4.83184042350338e-05 -1 0 0
750 3 70.825842707516 1.1051679008542035 -4.8318404238052944e-05 -1 0 0
754 3 74.654266637652 1.1051679008541988 -4.8318404231717104e-05 -1 0 0
855 1 70.825842707516 3.3147344523692728 1.5348527652253432 -1 0 0
859 1 74.654266637652 3.314734452369277 1.5348527652253368 -1 0 0
857 3 72.740054672584 4.4206802808082015 -4.831840423503804e-05 -1 0 0
758 3 78.482690567788 1.1051679008542012 -4.8318404234875534e-05 -1 0 0
863 1 78.482690567788 3.314734452369275 1.5348527652253399 -1 0 0
861 3 76.56847860272 4.4206802808082015 -4.831840423529127e-05 -1 0 0
865 3 80.396902532856 4.4206802808082015 -4.831840423502806e-05 -1 0 0
762 3 82.311114497924 1.1051679008542012 -4.8318404235137755e-05 -1 0 0
766 3 86.13953842806 1.105167900854199 -4.8318404231976804e-05 -1 0 0
867 1 82.311114497924 3.314734452369275 1.5348527652253403 -1 0 0
871 1 86.13953842806 3.314734452369277 1.534852765225337 -1 0 0
869 3 84.225326462992 4.4206802808082 -4.8318404232128646e-05 -1 0 0
770 3 89.967962358196 1.1051679008542035 -4.8318404238055756e-05 -1 0 0
875 1 89.967962358196 3.3147344523692728 1.5348527652253432 -1 0 0
873 3 88.05375039312801 4.4206802808082015 -4.8318404235035873e-05 -1 0 0
877 3 91.882174323264 4.4206802808082015 -4.831840423503634e-05 -1 0 0
774 3 93.796386288332 1.1051679008541988 -4.8318404231714386e-05 -1 0 0
778 3 97.624810218468 1.1051679008542012 -4.8318404235008646e-05 -1 0 0
879 1 93.796386288332 3.314734452369277 1.5348527652253368 -1 0 0
883 1 97.624810218468 3.314734452369275 1.53485276522534 -1 0 0
881 3 95.71059825340001 4.4206802808082015 -4.83184042352864e-05 -1 0 0
886 3 1.9142119650679985 7.736192660762202 -4.831840423466762e-05 0 0 0
888 1 0 6.630246832323277 1.5348527652253383 0 0 0
892 1 3.8284239301359975 6.630246832323276 1.5348527652253399 0 0 0
890 3 5.742635895203996 7.736192660762202 -4.8318404234667814e-05 0 0 0
991 1 1.9142119650679985 9.945759212277274 1.5348527652253419 0 0 0
995 1 5.742635895203996 9.945759212277274 1.5348527652253419 0 0 0
989 3 0 11.051705040716199 -4.831840423563454e-05 0 0 0
993 3 3.8284239301359975 11.051705040716199 -4.831840423713034e-05 0 0 0
896 1 7.656847860271998 6.630246832323277 1.5348527652253385 0 0 0
894 3 9.571059825339999 7.736192660762201 -4.831840423319589e-05 0 0 0
900 1 11.485271790408 6.630246832323276 1.5348527652253399 0 0 0
999 1 9.571059825339999 9.945759212277276 1.5348527652253403 0 0 0
997 3 7.656847860271998 11.051705040716199 -4.8318404235767297e-05 0 0 0
1001 3 11.485271790408 11.051705040716199 -4.8318404237265346e-05 0 0 0
898 3 13.399483755475998 7.736192660762202 -4.831840423466647e-05 0 0 0
904 1 15.313695720543999 6.630246832323277 1.5348527652253383 0 0 0
902 3 17.227907685612 7.736192660762202 -4.831840423485955e-05 0 0 0
1003 1 13.399483755475998 9.945759212277274 1.5348527652253419 0 0 0
1007 1 17.227907685612 9.945759212277274 1.5348527652253419 0 0 0
1005 3 15.313695720543999 11.051705040716199 -4.8318404235632354e-05 0 0 0
908 1 19.142119650679998 6.630246832323276 1.53485276522534 0 0 0
906 3 21.056331615747997 7.736192660762202 -4.831840423472549e-05 0 0 0
912 1 22.970543580815995 6.630246832323276 1.5348527652253403 0 0 0
1011 1 21.056331615747997 9.945759212277274 1.5348527652253419 0 0 0
1009 3 19.142119650679998 11.051705040716199 -4.831840423713154e-05 0 0 0
1013 3 22.970543580815995 11.051705040716199 -4.831840423738886e-05 0 0 0
910 3 24.884755545883998 7.7361926607622 -4.8318404231564326e-05 0 0 0
916 1 26.798967510952 6.630246832323276 1.5348527652253403 0 0 0
914 3 28.71317947602 7.736192660762202 -4.831840423472528e-05 0 0 0
1015 1 24.884755545883998 9.945759212277276 1.5348527652253388 0 0 0
1019 1 28.71317947602 9.945759212277274 1.5348527652253419 0 0 0
1017 3 26.798967510952 11.051705040716199 -4.8318404237389914e-05 0 0 0
920 1 30.627391441087997 6.630246832323276 1.53485276522534 0 0 0
918 3 32.541603406156 7.736192660762202 -4.831840423498964e-05 0 0 0
924 1 34.455815371224 6.630246832323278 1.5348527652253368 0 0 0
1023 1 32.541603406156 9.945759212277274 1.534852765225342 0 0 0
1021 3 30.627391441087997 11.051705040716199 -4.831840423713303e-05 0 0 0
1025 3 34.455815371224 11.051705040716197 -4.831840423413044e-05 0 0 0
922 3 36.370027336292 7.736192660762202 -4.831840423498686e-05 0 0 0
928 1 38.28423930136 6.630246832323276 1.53485276522534 0 0 0
926 3 40.198451266427995 7.736192660762202 -4.83184042347236e-05 0 0 0
1027 1 36.370027336292 9.945759212277274 1.534852765225342 0 0 0
1031 1 40.198451266427995 9.945759212277274 1.5348527652253419 0 0 0
1029 3 38.28423930136 11.051705040716199 -4.8318404237129895e-05 0 0 0
932 1 42.112663231496 6.630246832323276 1.53485276522534 0 0 0
930 3 44.02687519656399 7.736192660762202 -4.831840423472399e-05 0 0 0
936 1 45.941087161632 6.630246832323276 1.5348527652253403 0 0 0
1035 1 44.02687519656399 9.945759212277274 1.5348527652253419 0 0 0
1033 3 42.112663231496 11.051705040716199 -4.8318404237129915e-05 0 0 0
1037 3 45.941087161632 11.051705040716199 -4.8318404237389656e-05 0 0 0
934 3 47.8552991267 7.7361926607622 -4.8318404231702026e-05 0 0 0
836 1 49.769511091768 6.630246832323277 1.5348527652253385 -1 0 0
834 3 51.683723056836 7.736192660762202 -4.831840423466674e-05 -1 0 0
1039 1 47.8552991267 9.945759212277276 1.534852765225339 0 0 0
939 1 51.683723056836 9.945759212277274 1.5348527652253419 -1 0 0
937 3 49.769511091768 11.051705040716199 -4.831840423589536e-05 -1 0 0
840 1 53.597935021904 6.630246832323276 1.5348527652253399 -1 0 0
838 3 55.512146986972 7.736192660762201 -4.831840423319222e-05 -1 0 0
844 1 57.426358952040005 6.630246832323277 1.5348527652253385 -1 0 0
943 1 55.512146986972 9.945759212277276 1.5348527652253403 -1 0 0
941 3 53.597935021904 11.051705040716199 -4.8318404237262256e-05 -1 0 0
945 3 57.426358952040005 11.051705040716199 -4.83184042357668e-05 -1 0 0
842 3 59.340570917108 7.736192660762202 -4.8318404234668444e-05 -1 0 0
848 1 61.254782882176 6.630246832323276 1.5348527652253399 -1 0 0
846 3 63.168994847244 7.736192660762202 -4.831840423466623e-05 -1 0 0
947 1 59.340570917108 9.945759212277274 1.5348527652253419 -1 0 0
951 1 63.168994847244 9.945759212277274 1.5348527652253419 -1 0 0
949 3 61.254782882176 11.051705040716199 -4.831840423713077e-05 -1 0 0
850 3 66.99741877738 7.7361926607622 -4.831840423169968e-05 -1 0 0
852 1 65.083206812312 6.630246832323277 1.5348527652253385 -1 0 0
856 1 68.91163074244801 6.630246832323276 1.53485276522534 -1 0 0
955 1 66.99741877738 9.945759212277276 1.534852765225339 -1 0 0
953 3 65.083206812312 11.051705040716199 -4.831840423589219e-05 -1 0 0
957 3 68.91163074244801 11.051705040716199 -4.8318404237129454e-05 -1 0 0
854 3 70.825842707516 7.736192660762204 -4.8318404237904395e-05 -1 0 0
860 1 72.740054672584 6.630246832323276 1.53485276522534 -1 0 0
858 3 74.654266637652 7.7361926607622 -4.8318404231568615e-05 -1 0 0
959 1 70.825842707516 9.945759212277272 1.5348527652253448 -1 0 0
963 1 74.654266637652 9.945759212277276 1.5348527652253388 -1 0 0
961 3 72.740054672584 11.051705040716199 -4.831840423713406e-05 -1 0 0
864 1 76.56847860272 6.630246832323276 1.5348527652253403 -1 0 0
862 3 78.482690567788 7.736192660762202 -4.8318404234725995e-05 -1 0 0
868 1 80.396902532856 6.630246832323276 1.53485276522534 -1 0 0
967 1 78.482690567788 9.945759212277274 1.5348527652253419 -1 0 0
965 3 76.56847860272 11.051705040716199 -4.831840423739205e-05 -1 0 0
969 3 80.396902532856 11.051705040716199 -4.831840423713335e-05 -1 0 0
866 3 82.311114497924 7.736192660762202 -4.8318404234987735e-05 -1 0 0
872 1 84.225326462992 6.6302468323232775 1.534852765225337 -1 0 0
870 3 86.13953842806 7.7361926607622005 -4.831840423182754e-05 -1 0 0
971 1 82.311114497924 9.945759212277274 1.534852765225342 -1 0 0
975 1 86.13953842806 9.945759212277276 1.534852765225339 -1 0 0
973 3 84.225326462992 11.051705040716197 -4.831840423438902e-05 -1 0 0
876 1 88.05375039312801 6.630246832323276 1.53485276522534 -1 0 0
874 3 89.967962358196 7.736192660762204 -4.831840423790596e-05 -1 0 0
880 1 91.882174323264 6.630246832323276 1.53485276522534 -1 0 0
979 1 89.967962358196 9.945759212277272 1.5348527652253448 -1 0 0
977 3 88.05375039312801 11.051705040716199 -4.831840423713209e-05 -1 0 0
981 3 91.882174323264 11.051705040716199 -4.8318404237133005e-05 -1 0 0
878 3 93.796386288332 7.7361926607622 -4.8318404231564285e-05 -1 0 0
884 1 95.71059825340001 6.630246832323276 1.5348527652253403 -1 0 0
882 3 97.624810218468 7.736192660762202 -4.831840423485964e-05 -1 0 0
983 1 93.796386288332 9.945759212277276 1.5348527652253388 -1 0 0
987 1 97.624810218468 9.945759212277274 1.5348527652253419 -1 0 0
985 3 95.71059825340001 11.051705040716199 -4.831840423738807e-05 -1 0 0
992 1 0 13.261271592231274 1.5348527652253363 0 0 0
996 1 3.8284239301359975 13.261271592231273 1.5348527652253379 0 0 0
990 3 1.9142119650679985 14.3672174206702 -4.831840423534417e-05 0 0 0
994 3 5.742635895203996 14.3672174206702 -4.8318404235344587e-05 0 0 0
1095 1 1.9142119650679985 16.576783972185275 1.53485276522534 0 0 0
1099 1 5.742635895203996 16.576783972185275 1.53485276522534 0 0 0
1000 1 7.656847860271998 13.261271592231274 1.5348527652253363 0 0 0
1004 1 11.485271790408 13.261271592231273 1.5348527652253379 0 0 0
998 3 9.571059825339999 14.367217420670197 -4.831840423381752e-05 0 0 0
1103 1 9.571059825339999 16.576783972185275 1.5348527652253385 0 0 0
1008 1 15.313695720543999 13.261271592231274 1.5348527652253363 0 0 0
1002 3 13.399483755475998 14.3672174206702 -4.831840423534417e-05 0 0 0
1006 3 17.227907685612 14.3672174206702 -4.8318404235446854e-05 0 0 0
1107 1 13.399483755475998 16.576783972185275 1.53485276522534 0 0 0
1111 1 17.227907685612 16.576783972185275 1.5348527652253403 0 0 0
1012 1 19.142119650679998 13.261271592231273 1.5348527652253379 0 0 0
1016 1 22.970543580815995 13.261271592231273 1.534852765225338 0 0 0
1010 3 21.056331615747997 14.3672174206702 -4.8318404235320334e-05 0 0 0
1115 1 21.056331615747997 16.576783972185275 1.53485276522534 0 0 0
1020 1 26.798967510952 13.261271592231273 1.534852765225338 0 0 0
1014 3 24.884755545883998 14.367217420670196 -4.831840423215472e-05 0 0 0
1018 3 28.71317947602 14.3672174206702 -4.831840423532064e-05 0 0 0
1119 1 24.884755545883998 16.57678397218528 1.534852765225337 0 0 0
1123 1 28.71317947602 16.576783972185275 1.53485276522534 0 0 0
1024 1 30.627391441087997 13.261271592231273 1.5348527652253379 0 0 0
1028 1 34.455815371224 13.261271592231274 1.5348527652253348 0 0 0
1022 3 32.541603406156 14.3672174206702 -4.831840423557616e-05 0 0 0
1127 1 32.541603406156 16.576783972185275 1.5348527652253403 0 0 0
1032 1 38.28423930136 13.261271592231273 1.5348527652253379 0 0 0
1026 3 36.370027336292 14.3672174206702 -4.831840423557378e-05 0 0 0
1030 3 40.198451266427995 14.3672174206702 -4.8318404235319216e-05 0 0 0
1131 1 36.370027336292 16.576783972185275 1.5348527652253403 0 0 0
1135 1 40.198451266427995 16.576783972185275 1.53485276522534 0 0 0
1036 1 42.112663231496 13.261271592231273 1.5348527652253379 0 0 0
1040 1 45.941087161632 13.261271592231273 1.534852765225338 0 0 0
1034 3 44.02687519656399 14.3672174206702 -4.831840423531888e-05 0 0 0
1139 1 44.02687519656399 16.576783972185275 1.53485276522534 0 0 0
940 1 49.769511091768 13.261271592231273 1.5348527652253365 -1 0 0
1038 3 47.8552991267 14.367217420670196 -4.8318404232283125e-05 0 0 0
938 3 51.683723056836 14.3672174206702 -4.83184042353453e-05 -1 0 0
1143 1 47.8552991267 16.57678397218528 1.5348527652253372 0 0 0
1043 1 51.683723056836 16.576783972185275 1.53485276522534 -1 0 0
944 1 53.597935021904 13.261271592231273 1.5348527652253379 -1 0 0
948 1 57.426358952040005 13.261271592231274 1.5348527652253363 -1 0 0
942 3 55.512146986972 14.367217420670197 -4.8318404233814045e-05 -1 0 0
1047 1 55.512146986972 16.576783972185275 1.5348527652253385 -1 0 0
952 1 61.254782882176 13.261271592231273 1.5348527652253379 -1 0 0
946 3 59.340570917108 14.3672174206702 -4.831840423534474e-05 -1 0 0
950 3 63.168994847244 14.3672174206702 -4.8318404235343665e-05 -1 0 0
1051 1 59.340570917108 16.576783972185275 1.53485276522534 -1 0 0
1055 1 63.168994847244 16.576783972185275 1.53485276522534 -1 0 0
956 1 65.083206812312 13.261271592231273 1.5348527652253365 -1 0 0
960 1 68.91163074244801 13.261271592231273 1.5348527652253379 -1 0 0
954 3 66.99741877738 14.367217420670196 -4.831840423228195e-05 -1 0 0
1059 1 66.99741877738 16.57678397218528 1.5348527652253372 -1 0 0
964 1 72.740054672584 13.261271592231273 1.5348527652253379 -1 0 0
958 3 70.825842707516 14.367217420670201 -4.8318404238470206e-05 -1 0 0
962 3 74.654266637652 14.367217420670196 -4.8318404232160136e-05 -1 0 0
1063 1 70.825842707516 16.576783972185275 1.5348527652253432 -1 0 0
1067 1 74.654266637652 16.57678397218528 1.534852765225337 -1 0 0
968 1 76.56847860272 13.261271592231273 1.534852765225338 -1 0 0
972 1 80.396902532856 13.261271592231273 1.5348527652253379 -1 0 0
966 3 78.482690567788 14.3672174206702 -4.831840423532245e-05 -1 0 0
1071 1 78.482690567788 16.576783972185275 1.53485276522534 -1 0 0
976 1 84.225326462992 13.261271592231274 1.534852765225335 -1 0 0
970 3 82.311114497924 14.3672174206702 -4.8318404235575854e-05 -1 0 0
974 3 86.13953842806 14.367217420670196 -4.8318404232410844e-05 -1 0 0
1075 1 82.311114497924 16.576783972185275 1.5348527652253403 -1 0 0
1079 1 86.13953842806 16.57678397218528 1.5348527652253372 -1 0 0
980 1 88.05375039312801 13.261271592231273 1.5348527652253379 -1 0 0
984 1 91.882174323264 13.261271592231273 1.5348527652253379 -1 0 0
978 3 89.967962358196 14.367217420670201 -4.8318404238472096e-05 -1 0 0
1083 1 89.967962358196 16.576783972185275 1.5348527652253432 -1 0 0
988 1 95.71059825340001 13.261271592231273 1.534852765225338 -1 0 0
982 3 93.796386288332 14.367217420670196 -4.831840423215609e-05 -1 0 0
986 3 97.624810218468 14.3672174206702 -4.8318404235447166e-05 -1 0 0
1087 1 93.796386288332 16.57678397218528 1.534852765225337 -1 0 0
1091 1 97.624810218468 16.576783972185275 1.5348527652253403 -1 0 0
1093 3 0 17.682729800624198 -4.831840423354464e-05 0 0 0
1097 3 3.8284239301359975 17.682729800624198 -4.831840423507349e-05 0 0 0
1096 1 0 19.89229635213928 1.5348527652253385 0 0 0
1100 1 3.8284239301359975 19.892296352139276 1.53485276522534 0 0 0
1094 3 1.9142119650679985 20.9982421805782 -4.831840423520019e-05 0 0 0
1098 3 5.742635895203996 20.9982421805782 -4.831840423520074e-05 0 0 0
1199 1 1.9142119650679985 23.207808732093277 1.53485276522534 0 0 0
1203 1 5.742635895203996 23.207808732093277 1.53485276522534 0 0 0
1101 3 7.656847860271998 17.682729800624198 -4.8318404233671805e-05 0 0 0
1105 3 11.485271790408 17.682729800624198 -4.831840423520459e-05 0 0 0
1104 1 7.656847860271998 19.892296352139276 1.5348527652253385 0 0 0
1108 1 11.485271790408 19.892296352139276 1.53485276522534 0 0 0
1102 3 9.571059825339999 20.9982421805782 -4.831840423367329e-05 0 0 0
1207 1 9.571059825339999 23.207808732093277 1.5348527652253388 0 0 0
1109 3 15.313695720543999 17.682729800624198 -4.8318404233540664e-05 0 0 0
1112 1 15.313695720543999 19.89229635213928 1.5348527652253385 0 0 0
1106 3 13.399483755475998 20.9982421805782 -4.831840423520033e-05 0 0 0
1110 3 17.227907685612 20.9982421805782 -4.831840423530293e-05 0 0 0
1211 1 13.399483755475998 23.207808732093277 1.53485276522534 0 0 0
1215 1 17.227907685612 23.207808732093277 1.5348527652253403 0 0 0
1113 3 19.142119650679998 17.682729800624198 -4.831840423517931e-05 0 0 0
1117 3 22.970543580815995 17.682729800624198 -4.831840423543215e-05 0 0 0
1116 1 19.142119650679998 19.892296352139276 1.53485276522534 0 0 0
1120 1 22.970543580815995 19.892296352139276 1.5348527652253403 0 0 0
1114 3 21.056331615747997 20.9982421805782 -4.831840423517661e-05 0 0 0
1219 1 21.056331615747997 23.207808732093277 1.53485276522534 0 0 0
1121 3 26.798967510952 17.682729800624198 -4.8318404235432895e-05 0 0 0
1124 1 26.798967510952 19.892296352139276 1.5348527652253403 0 0 0
1118 3 24.884755545883998 20.9982421805782 -4.831840423201254e-05 0 0 0
1122 3 28.71317947602 20.9982421805782 -4.831840423517722e-05 0 0 0
1223 1 24.884755545883998 23.20780873209328 1.534852765225337 0 0 0
1227 1 28.71317947602 23.207808732093277 1.53485276522534 0 0 0
1125 3 30.627391441087997 17.682729800624198 -4.831840423517973e-05 0 0 0
1129 3 34.455815371224 17.682729800624198 -4.831840423201336e-05 0 0 0
1128 1 30.627391441087997 19.892296352139276 1.53485276522534 0 0 0
1132 1 34.455815371224 19.89229635213928 1.534852765225337 0 0 0
1126 3 32.541603406156 20.9982421805782 -4.8318404235433125e-05 0 0 0
1231 1 32.541603406156 23.207808732093277 1.5348527652253403 0 0 0
1133 3 38.28423930136 17.682729800624198 -4.831840423517651e-05 0 0 0
1136 1 38.28423930136 19.892296352139276 1.53485276522534 0 0 0
1130 3 36.370027336292 20.9982421805782 -4.831840423543109e-05 0 0 0
1134 3 40.198451266427995 20.9982421805782 -4.831840423517557e-05 0 0 0
1235 1 36.370027336292 23.207808732093277 1.5348527652253403 0 0 0
1239 1 40.198451266427995 23.207808732093277 1.53485276522534 0 0 0
1137 3 42.112663231496 17.682729800624198 -4.831840423517683e-05 0 0 0
1141 3 45.941087161632 17.682729800624198 -4.831840423543251e-05 0 0 0
1140 1 42.112663231496 19.892296352139276 1.53485276522534 0 0 0
1144 1 45.941087161632 19.892296352139276 1.5348527652253403 0 0 0
1138 3 44.02687519656399 20.9982421805782 -4.831840423517567e-05 0 0 0
1243 1 44.02687519656399 23.207808732093277 1.53485276522534 0 0 0
1041 3 49.769511091768 17.682729800624198 -4.8318404233800676e-05 -1 0 0
1044 1 49.769511091768 19.892296352139276 1.5348527652253388 -1 0 0
1142 3 47.8552991267 20.9982421805782 -4.831840423214018e-05 0 0 0
1042 3 51.683723056836 20.9982421805782 -4.831840423520167e-05 -1 0 0
1247 1 47.8552991267 23.20780873209328 1.5348527652253372 0 0 0
1147 1 51.683723056836 23.207808732093277 1.53485276522534 -1 0 0
1045 3 53.597935021904 17.682729800624198 -4.8318404235200665e-05 -1 0 0
1049 3 57.426358952040005 17.682729800624198 -4.83184042336725e-05 -1 0 0
1048 1 53.597935021904 19.892296352139276 1.53485276522534 -1 0 0
1052 1 57.426358952040005 19.892296352139276 1.5348527652253385 -1 0 0
1046 3 55.512146986972 20.9982421805782 -4.831840423366972e-05 -1 0 0
1151 1 55.512146986972 23.207808732093277 1.5348527652253388 -1 0 0
1053 3 61.254782882176 17.682729800624198 -4.8318404235074085e-05 -1 0 0
1056 1 61.254782882176 19.892296352139276 1.53485276522534 -1 0 0
1050 3 59.340570917108 20.9982421805782 -4.831840423520237e-05 -1 0 0
1054 3 63.168994847244 20.9982421805782 -4.831840423519989e-05 -1 0 0
1155 1 59.340570917108 23.207808732093277 1.53485276522534 -1 0 0
1159 1 63.168994847244 23.207808732093277 1.53485276522534 -1 0 0
1057 3 65.083206812312 17.682729800624198 -4.831840423379773e-05 -1 0 0
1061 3 68.91163074244801 17.682729800624198 -4.831840423516999e-05 -1 0 0
1060 1 65.083206812312 19.892296352139276 1.5348527652253388 -1 0 0
1064 1 68.91163074244801 19.892296352139276 1.53485276522534 -1 0 0
1058 3 66.99741877738 20.9982421805782 -4.8318404232138655e-05 -1 0 0
1163 1 66.99741877738 23.20780873209328 1.5348527652253372 -1 0 0
1065 3 72.740054672584 17.682729800624198 -4.831840423517386e-05 -1 0 0
1068 1 72.740054672584 19.892296352139276 1.53485276522534 -1 0 0
1062 3 70.825842707516 20.998242180578202 -4.8318404238327023e-05 -1 0 0
1066 3 74.654266637652 20.9982421805782 -4.831840423201713e-05 -1 0 0
1167 1 70.825842707516 23.207808732093277 1.5348527652253432 -1 0 0
1171 1 74.654266637652 23.20780873209328 1.534852765225337 -1 0 0
1069 3 76.56847860272 17.682729800624198 -4.8318404235434995e-05 -1 0 0
1073 3 80.396902532856 17.682729800624198 -4.8318404235180825e-05 -1 0 0
1072 1 76.56847860272 19.892296352139276 1.5348527652253403 -1 0 0
1076 1 80.396902532856 19.892296352139276 1.53485276522534 -1 0 0
1070 3 78.482690567788 20.9982421805782 -4.831840423517889e-05 -1 0 0
1175 1 78.482690567788 23.207808732093277 1.53485276522534 -1 0 0
1077 3 84.225326462992 17.682729800624198 -4.831840423226806e-05 -1 0 0
1080 1 84.225326462992 19.89229635213928 1.5348527652253372 -1 0 0
1074 3 82.311114497924 20.9982421805782 -4.8318404235432265e-05 -1 0 0
1078 3 86.13953842806 20.9982421805782 -4.831840423226733e-05 -1 0 0
1179 1 82.311114497924 23.207808732093277 1.5348527652253403 -1 0 0
1183 1 86.13953842806 23.20780873209328 1.5348527652253372 -1 0 0
1081 3 88.05375039312801 17.682729800624198 -4.831840423517156e-05 -1 0 0
1085 3 91.882174323264 17.682729800624198 -4.8318404235172524e-05 -1 0 0
1084 1 88.05375039312801 19.892296352139276 1.53485276522534 -1 0 0
1088 1 91.882174323264 19.892296352139276 1.53485276522534 -1 0 0
1082 3 89.967962358196 20.998242180578202 -4.831840423832838e-05 -1 0 0
1187 1 89.967962358196 23.207808732093277 1.5348527652253432 -1 0 0
1089 3 95.71059825340001 17.682729800624198 -4.831840423543063e-05 -1 0 0
1092 1 95.71059825340001 19.892296352139276 1.5348527652253403 -1 0 0
1086 3 93.796386288332 20.9982421805782 -4.8318404232012244e-05 -1 0 0
1090 3 97.624810218468 20.9982421805782 -4.831840423530319e-05 -1 0 0
1191 1 93.796386288332 23.20780873209328 1.534852765225337 -1 0 0
1195 1 97.624810218468 23.207808732093277 1.5348527652253403 -1 0 0
1197 3 0 24.3137545605322 -4.8318404232932745e-05 0 0 0
1201 3 3.8284239301359975 24.3137545605322 -4.831840423446151e-05 0 0 0
1198 3 1.9142119650679985 27.629266940486197 -4.831840423484811e-05 0 0 0
1200 1 0 26.523321112047274 1.5348527652253423 0 0 0
1204 1 3.8284239301359975 26.523321112047274 1.5348527652253439 0 0 0
1202 3 5.742635895203996 27.629266940486197 -4.831840423484908e-05 0 0 0
1205 3 7.656847860271998 24.3137545605322 -4.831840423306029e-05 0 0 0
1209 3 11.485271790408 24.3137545605322 -4.8318404234592726e-05 0 0 0
1208 1 7.656847860271998 26.523321112047274 1.5348527652253425 0 0 0
1206 3 9.571059825339999 27.629266940486197 -4.831840423335564e-05 0 0 0
1212 1 11.485271790408 26.523321112047274 1.5348527652253439 0 0 0
1213 3 15.313695720543999 24.3137545605322 -4.831840423292953e-05 0 0 0
1210 3 13.399483755475998 27.629266940486197 -4.8318404234848096e-05 0 0 0
1216 1 15.313695720543999 26.523321112047274 1.5348527652253423 0 0 0
1214 3 17.227907685612 27.629266940486197 -4.831840423484691e-05 0 0 0
1217 3 19.142119650679998 24.3137545605322 -4.83184042345666e-05 0 0 0
1221 3 22.970543580815995 24.3137545605322 -4.831840423482051e-05 0 0 0
1220 1 19.142119650679998 26.523321112047274 1.5348527652253439 0 0 0
1218 3 21.056331615747997 27.629266940486197 -4.8318404234716325e-05 0 0 0
1224 1 22.970543580815995 26.523321112047274 1.534852765225344 0 0 0
1225 3 26.798967510952 24.3137545605322 -4.831840423482116e-05 0 0 0
1222 3 24.884755545883998 27.629266940486197 -4.8318404231715525e-05 0 0 0
1228 1 26.798967510952 26.523321112047274 1.534852765225344 0 0 0
1226 3 28.71317947602 27.629266940486197 -4.8318404234716515e-05 0 0 0
1229 3 30.627391441087997 24.3137545605322 -4.8318404234568535e-05 0 0 0
1233 3 34.455815371224 24.3137545605322 -4.831840423140241e-05 0 0 0
1232 1 30.627391441087997 26.523321112047274 1.5348527652253439 0 0 0
1230 3 32.541603406156 27.629266940486197 -4.8318404234977354e-05 0 0 0
1236 1 34.455815371224 26.523321112047274 1.5348527652253408 0 0 0
1237 3 38.28423930136 24.3137545605322 -4.831840423456529e-05 0 0 0
1234 3 36.370027336292 27.629266940486197 -4.83184042349755e-05 0 0 0
1240 1 38.28423930136 26.523321112047274 1.5348527652253439 0 0 0
1238 3 40.198451266427995 27.629266940486197 -4.831840423471516e-05 0 0 0
1241 3 42.112663231496 24.3137545605322 -4.8318404234565845e-05 0 0 0
1245 3 45.941087161632 24.3137545605322 -4.831840423482095e-05 0 0 0
1244 1 42.112663231496 26.523321112047274 1.5348527652253439 0 0 0
1242 3 44.02687519656399 27.629266940486197 -4.831840423471536e-05 0 0 0
1248 1 45.941087161632 26.523321112047274 1.534852765225344 0 0 0
1145 3 49.769511091768 24.3137545605322 -4.831840423318873e-05 -1 0 0
1246 3 47.8552991267 27.629266940486197 -4.8318404231847926e-05 0 0 0
1148 1 49.769511091768 26.523321112047274 1.5348527652253425 -1 0 0
1146 3 51.683723056836 27.629266940486197 -4.8318404234849086e-05 -1 0 0
1149 3 53.597935021904 24.3137545605322 -4.8318404234589053e-05 -1 0 0
1153 3 57.426358952040005 24.3137545605322 -4.831840423306086e-05 -1 0 0
1152 1 53.597935021904 26.523321112047274 1.5348527652253439 -1 0 0
1150 3 55.512146986972 27.629266940486197 -4.8318404233352636e-05 -1 0 0
1156 1 57.426358952040005 26.523321112047274 1.5348527652253425 -1 0 0
1157 3 61.254782882176 24.3137545605322 -4.831840423446292e-05 -1 0 0
1154 3 59.340570917108 27.629266940486197 -4.83184042348504e-05 -1 0 0
1160 1 61.254782882176 26.523321112047274 1.5348527652253439 -1 0 0
1158 3 63.168994847244 27.629266940486197 -4.831840423484854e-05 -1 0 0
1161 3 65.083206812312 24.3137545605322 -4.83184042331865e-05 -1 0 0
1165 3 68.91163074244801 24.3137545605322 -4.83184042345577e-05 -1 0 0
1162 3 66.99741877738 27.629266940486197 -4.8318404231846225e-05 -1 0 0
1164 1 65.083206812312 26.523321112047274 1.5348527652253425 -1 0 0
1168 1 68.91163074244801 26.523321112047274 1.5348527652253439 -1 0 0
1169 3 72.740054672584 24.3137545605322 -4.831840423456203e-05 -1 0 0
1166 3 70.825842707516 27.6292669404862 -4.83184042377189e-05 -1 0 0
1172 1 72.740054672584 26.523321112047274 1.5348527652253439 -1 0 0
1170 3 74.654266637652 27.629266940486197 -4.8318404231720254e-05 -1 0 0
1173 3 76.56847860272 24.3137545605322 -4.8318404234823316e-05 -1 0 0
1177 3 80.396902532856 24.3137545605322 -4.83184042345691e-05 -1 0 0
1176 1 76.56847860272 26.523321112047274 1.534852765225344 -1 0 0
1174 3 78.482690567788 27.629266940486197 -4.8318404234718534e-05 -1 0 0
1180 1 80.396902532856 26.523321112047274 1.5348527652253439 -1 0 0
1181 3 84.225326462992 24.3137545605322 -4.831840423165622e-05 -1 0 0
1178 3 82.311114497924 27.629266940486197 -4.831840423497607e-05 -1 0 0
1184 1 84.225326462992 26.523321112047274 1.534852765225341 -1 0 0