LAMMPS data file via write_data, version 29 Aug 2024, timestep = 1, units = metal

4680 atoms
6 atom types

0 99.539022183536 xlo xhi
0 99.46537139862 ylo yhi
-50 50 zlo zhi

Masses

1 28.085
2 28.085
3 28.085
4 127.6
5 127.6
6 127.6

Atoms # atomic

782 4 1.9142119650679985 1.1051683128687027 -4.1435730985210634e-05 0 0 0
786 4 5.742635895203996 1.1051683128687027 -4.143573098521015e-05 0 0 0
887 1 1.9142119650679985 3.31484526359043 1.534146759331968 0 0 0
891 1 5.742635895203996 3.31484526359043 1.534146759331968 0 0 0
885 4 0 4.420680692822702 -4.14357309839594e-05 0 0 0
889 4 3.8284239301359975 4.420680692822703 -4.143573098522254e-05 0 0 0
790 4 9.571059825339999 1.1051683128687018 -4.143573098394864e-05 0 0 0
895 1 9.571059825339999 3.314845263590431 1.5341467593319666 0 0 0
893 4 7.656847860271997 4.420680692822702 -4.143573098407639e-05 0 0 0
897 4 11.485271790408 4.420680692822703 -4.1435730985342974e-05 0 0 0
794 4 13.399483755475998 1.1051683128687027 -4.143573098521046e-05 0 0 0
798 4 17.227907685612 1.1051683128687027 -4.1435730985374606e-05 0 0 0
899 1 13.399483755475998 3.31484526359043 1.534146759331968 0 0 0
903 1 17.227907685612 3.31484526359043 1.5341467593319682 0 0 0
901 4 15.313695720543999 4.420680692822702 -4.1435730983956625e-05 0 0 0
802 4 21.056331615747997 1.1051683128687027 -4.143573098525946e-05 0 0 0
907 1 21.056331615747997 3.31484526359043 1.534146759331968 0 0 0
905 4 19.142119650679998 4.420680692822703 -4.1435730985390354e-05 0 0 0
909 4 22.970543580815995 4.420680692822703 -4.1435730985614906e-05 0 0 0
806 4 24.884755545883998 1.1051683128687007 -4.143573098254923e-05 0 0 0
810 4 28.71317947602 1.1051683128687027 -4.1435730985259416e-05 0 0 0
911 1 24.884755545883998 3.314845263590432 1.5341467593319653 0 0 0
915 1 28.71317947602 3.31484526359043 1.534146759331968 0 0 0
913 4 26.798967510952 4.420680692822703 -4.143573098561509e-05 0 0 0
814 4 32.541603406156 1.1051683128687027 -4.1435730985487254e-05 0 0 0
919 1 32.541603406156 3.31484526359043 1.5341467593319682 0 0 0
917 4 30.627391441087997 4.420680692822703 -4.1435730985391404e-05 0 0 0
921 4 34.455815371224 4.420680692822701 -4.143573098267988e-05 0 0 0
818 4 36.370027336292 1.1051683128687027 -4.143573098548424e-05 0 0 0
822 4 40.198451266427995 1.1051683128687027 -4.1435730985258034e-05 0 0 0
923 1 36.370027336292 3.31484526359043 1.5341467593319682 0 0 0
927 1 40.198451266427995 3.31484526359043 1.534146759331968 0 0 0
925 4 38.28423930136 4.420680692822703 -4.143573098538883e-05 0 0 0
826 4 44.02687519656399 1.1051683128687027 -4.1435730985258115e-05 0 0 0
931 1 44.02687519656399 3.31484526359043 1.534146759331968 0 0 0
929 4 42.112663231496 4.420680692822703 -4.143573098538874e-05 0 0 0
933 4 45.941087161632 4.420680692822703 -4.143573098561498e-05 0 0 0
830 4 47.8552991267 1.1051683128687007 -4.1435730982666824e-05 0 0 0
730 4 51.683723056836 1.1051683128687027 -4.143573098521066e-05 -1 0 0
935 1 47.8552991267 3.3148452635904317 1.5341467593319653 0 0 0
835 1 51.683723056836 3.31484526359043 1.534146759331968 -1 0 0
833 4 49.769511091768 4.420680692822702 -4.1435730984186334e-05 -1 0 0
734 4 55.512146986972 1.1051683128687018 -4.143573098394551e-05 -1 0 0
839 1 55.512146986972 3.314845263590431 1.5341467593319666 -1 0 0
837 4 53.597935021904 4.420680692822703 -4.143573098534012e-05 -1 0 0
841 4 57.426358952040005 4.420680692822702 -4.143573098407568e-05 -1 0 0
738 4 59.340570917108 1.1051683128687027 -4.143573098521162e-05 -1 0 0
742 4 63.168994847244 1.1051683128687027 -4.143573098520928e-05 -1 0 0
843 1 59.340570917108 3.31484526359043 1.534146759331968 -1 0 0
847 1 63.168994847244 3.31484526359043 1.534146759331968 -1 0 0
845 4 61.254782882176 4.420680692822703 -4.1435730985222845e-05 -1 0 0
746 4 66.99741877738 1.1051683128687007 -4.143573098266516e-05 -1 0 0
851 1 66.99741877738 3.3148452635904317 1.5341467593319653 -1 0 0
849 4 65.083206812312 4.420680692822702 -4.1435730984183596e-05 -1 0 0
853 4 68.91163074244801 4.420680692822703 -4.1435730985396744e-05 -1 0 0
750 4 70.825842707516 1.1051683128687046 -4.1435730987985825e-05 -1 0 0
754 4 74.654266637652 1.1051683128687007 -4.143573098255249e-05 -1 0 0
855 1 70.825842707516 3.314845263590428 1.5341467593319706 -1 0 0
859 1 74.654266637652 3.314845263590432 1.5341467593319653 -1 0 0
857 4 72.740054672584 4.420680692822703 -4.1435730985400376e-05 -1 0 0
758 4 78.482690567788 1.1051683128687027 -4.1435730985261015e-05 -1 0 0
863 1 78.482690567788 3.31484526359043 1.534146759331968 -1 0 0
861 4 76.56847860272 4.420680692822703 -4.1435730985617535e-05 -1 0 0
865 4 80.396902532856 4.420680692822703 -4.143573098539182e-05 -1 0 0
762 4 82.311114497924 1.1051683128687027 -4.1435730985485886e-05 -1 0 0
766 4 86.13953842806 1.1051683128687009 -4.14357309827752e-05 -1 0 0
867 1 82.311114497924 3.31484526359043 1.5341467593319682 -1 0 0
871 1 86.13953842806 3.3148452635904317 1.5341467593319655 -1 0 0
869 4 84.225326462992 4.420680692822701 -4.143573098290541e-05 -1 0 0
770 4 89.967962358196 1.1051683128687046 -4.143573098798824e-05 -1 0 0
875 1 89.967962358196 3.314845263590428 1.5341467593319706 -1 0 0
873 4 88.05375039312801 4.420680692822703 -4.143573098539852e-05 -1 0 0
877 4 91.882174323264 4.420680692822703 -4.143573098539892e-05 -1 0 0
774 4 93.796386288332 1.1051683128687007 -4.143573098255016e-05 -1 0 0
778 4 97.624810218468 1.1051683128687027 -4.143573098537517e-05 -1 0 0
879 1 93.796386288332 3.314845263590432 1.5341467593319653 -1 0 0
883 1 97.624810218468 3.31484526359043 1.5341467593319682 -1 0 0
881 4 95.71059825340001 4.420680692822703 -4.1435730985613354e-05 -1 0 0
886 4 1.9142119650679985 7.736193072776704 -4.143573098508272e-05 0 0 0
888 1 0 6.630357643544432 1.5341467593319666 0 0 0
892 1 3.8284239301359975 6.630357643544431 1.5341467593319678 0 0 0
890 4 5.742635895203996 7.736193072776704 -4.143573098508288e-05 0 0 0
991 1 1.9142119650679985 9.94587002349843 1.5341467593319695 0 0 0
995 1 5.742635895203996 9.94587002349843 1.5341467593319695 0 0 0
989 4 0 11.0517054527307 -4.143573098591191e-05 0 0 0
993 4 3.8284239301359975 11.0517054527307 -4.143573098719464e-05 0 0 0
896 1 7.656847860271997 6.630357643544432 1.5341467593319666 0 0 0
894 4 9.571059825339999 7.736193072776703 -4.1435730983820626e-05 0 0 0
900 1 11.485271790408 6.630357643544431 1.534146759331968 0 0 0
999 1 9.571059825339999 9.945870023498431 1.5341467593319684 0 0 0
997 4 7.656847860271997 11.0517054527307 -4.143573098602576e-05 0 0 0
1001 4 11.485271790408 11.0517054527307 -4.1435730987310415e-05 0 0 0
898 4 13.399483755475998 7.736193072776704 -4.1435730985081736e-05 0 0 0
904 1 15.313695720543999 6.630357643544432 1.5341467593319666 0 0 0
902 4 17.227907685612 7.736193072776704 -4.143573098524731e-05 0 0 0
1003 1 13.399483755475998 9.94587002349843 1.5341467593319695 0 0 0
1007 1 17.227907685612 9.94587002349843 1.5341467593319695 0 0 0
1005 4 15.313695720543999 11.0517054527307 -4.143573098591003e-05 0 0 0
908 1 19.142119650679998 6.630357643544431 1.534146759331968 0 0 0
906 4 21.056331615747997 7.736193072776704 -4.143573098513234e-05 0 0 0
912 1 22.970543580815995 6.63035764354443 1.5341467593319682 0 0 0
1011 1 21.056331615747997 9.94587002349843 1.5341467593319695 0 0 0
1009 4 19.142119650679998 11.0517054527307 -4.1435730987195666e-05 0 0 0
1013 4 22.970543580815995 11.0517054527307 -4.1435730987416335e-05 0 0 0
910 4 24.884755545883998 7.736193072776702 -4.143573098242147e-05 0 0 0
916 1 26.798967510952 6.63035764354443 1.5341467593319682 0 0 0
914 4 28.71317947602 7.736193072776704 -4.143573098513216e-05 0 0 0
1015 1 24.884755545883998 9.945870023498431 1.5341467593319669 0 0 0
1019 1 28.71317947602 9.94587002349843 1.5341467593319695 0 0 0
1017 4 26.798967510952 11.0517054527307 -4.1435730987417236e-05 0 0 0
920 1 30.627391441087997 6.630357643544431 1.534146759331968 0 0 0
918 4 32.541603406156 7.736193072776704 -4.143573098535887e-05 0 0 0
924 1 34.455815371224 6.630357643544433 1.5341467593319653 0 0 0
1023 1 32.541603406156 9.94587002349843 1.5341467593319698 0 0 0
1021 4 30.627391441087997 11.0517054527307 -4.1435730987196946e-05 0 0 0
1025 4 34.455815371224 11.051705452730697 -4.143573098462206e-05 0 0 0
922 4 36.370027336292 7.736193072776704 -4.1435730985356486e-05 0 0 0
928 1 38.28423930136 6.630357643544431 1.534146759331968 0 0 0
926 4 40.198451266427995 7.736193072776704 -4.143573098513073e-05 0 0 0
1027 1 36.370027336292 9.94587002349843 1.5341467593319698 0 0 0
1031 1 40.198451266427995 9.94587002349843 1.5341467593319695 0 0 0
1029 4 38.28423930136 11.0517054527307 -4.1435730987194256e-05 0 0 0
932 1 42.112663231496 6.630357643544431 1.534146759331968 0 0 0
930 4 44.02687519656399 7.736193072776704 -4.143573098513106e-05 0 0 0
936 1 45.941087161632 6.63035764354443 1.5341467593319682 0 0 0
1035 1 44.02687519656399 9.94587002349843 1.5341467593319695 0 0 0
1033 4 42.112663231496 11.0517054527307 -4.1435730987194277e-05 0 0 0
1037 4 45.941087161632 11.0517054527307 -4.143573098741702e-05 0 0 0
934 4 47.8552991267 7.736193072776702 -4.143573098253956e-05 0 0 0
836 1 49.769511091768 6.630357643544432 1.5341467593319669 -1 0 0
834 4 51.683723056836 7.736193072776704 -4.1435730985081966e-05 -1 0 0
1039 1 47.8552991267 9.945870023498431 1.534146759331967 0 0 0
939 1 51.683723056836 9.94587002349843 1.5341467593319695 -1 0 0
937 4 49.769511091768 11.0517054527307 -4.1435730986135573e-05 -1 0 0
840 1 53.597935021904 6.630357643544431 1.534146759331968 -1 0 0
838 4 55.512146986972 7.736193072776703 -4.143573098381748e-05 -1 0 0
844 1 57.426358952040005 6.630357643544432 1.5341467593319666 -1 0 0
943 1 55.512146986972 9.945870023498431 1.5341467593319684 -1 0 0
941 4 53.597935021904 11.0517054527307 -4.1435730987307765e-05 -1 0 0
945 4 57.426358952040005 11.0517054527307 -4.143573098602533e-05 -1 0 0
842 4 59.340570917108 7.736193072776704 -4.143573098508342e-05 -1 0 0
848 1 61.254782882176 6.630357643544431 1.5341467593319678 -1 0 0
846 4 63.168994847244 7.736193072776704 -4.1435730985081526e-05 -1 0 0
947 1 59.340570917108 9.94587002349843 1.5341467593319695 -1 0 0
951 1 63.168994847244 9.94587002349843 1.5341467593319695 -1 0 0
949 4 61.254782882176 11.0517054527307 -4.143573098719501e-05 -1 0 0
850 4 66.99741877738 7.736193072776702 -4.143573098253755e-05 -1 0 0
852 1 65.083206812312 6.630357643544432 1.5341467593319669 -1 0 0
856 1 68.91163074244801 6.630357643544431 1.534146759331968 -1 0 0
955 1 66.99741877738 9.945870023498431 1.534146759331967 -1 0 0
953 4 65.083206812312 11.0517054527307 -4.1435730986132856e-05 -1 0 0
957 4 68.91163074244801 11.0517054527307 -4.143573098719388e-05 -1 0 0
854 4 70.825842707516 7.736193072776706 -4.143573098785843e-05 -1 0 0
860 1 72.740054672584 6.630357643544431 1.534146759331968 -1 0 0
858 4 74.654266637652 7.736193072776702 -4.143573098242515e-05 -1 0 0
959 1 70.825842707516 9.945870023498427 1.5341467593319722 -1 0 0
963 1 74.654266637652 9.945870023498431 1.5341467593319669 -1 0 0
961 4 72.740054672584 11.0517054527307 -4.143573098719783e-05 -1 0 0
864 1 76.56847860272 6.63035764354443 1.5341467593319682 -1 0 0
862 4 78.482690567788 7.736193072776704 -4.143573098513278e-05 -1 0 0
868 1 80.396902532856 6.630357643544431 1.534146759331968 -1 0 0
967 1 78.482690567788 9.94587002349843 1.5341467593319695 -1 0 0
965 4 76.56847860272 11.0517054527307 -4.1435730987419066e-05 -1 0 0
969 4 80.396902532856 11.0517054527307 -4.143573098719722e-05 -1 0 0
866 4 82.311114497924 7.736193072776704 -4.143573098535723e-05 -1 0 0
872 1 84.225326462992 6.630357643544433 1.5341467593319655 -1 0 0
870 4 86.13953842806 7.736193072776702 -4.1435730982647194e-05 -1 0 0
971 1 82.311114497924 9.94587002349843 1.5341467593319698 -1 0 0
975 1 86.13953842806 9.945870023498431 1.534146759331967 -1 0 0
973 4 84.225326462992 11.051705452730697 -4.143573098484381e-05 -1 0 0
876 1 88.05375039312801 6.630357643544431 1.534146759331968 -1 0 0
874 4 89.967962358196 7.736193072776706 -4.143573098785978e-05 -1 0 0
880 1 91.882174323264 6.630357643544431 1.534146759331968 -1 0 0
979 1 89.967962358196 9.945870023498427 1.5341467593319722 -1 0 0
977 4 88.05375039312801 11.0517054527307 -4.143573098719614e-05 -1 0 0
981 4 91.882174323264 11.0517054527307 -4.143573098719692e-05 -1 0 0
878 4 93.796386288332 7.736193072776702 -4.1435730982421436e-05 -1 0 0
884 1 95.71059825340001 6.63035764354443 1.5341467593319682 -1 0 0
882 4 97.624810218468 7.736193072776704 -4.143573098524739e-05 -1 0 0
983 1 93.796386288332 9.945870023498431 1.5341467593319669 -1 0 0
987 1 97.624810218468 9.94587002349843 1.5341467593319695 -1 0 0
985 4 95.71059825340001 11.0517054527307 -4.143573098741566e-05 -1 0 0
992 1 0 13.261382403452428 1.5341467593319649 0 0 0
996 1 3.8284239301359975 13.261382403452428 1.5341467593319662 0 0 0
990 4 1.9142119650679985 14.3672178326847 -4.14357309856629e-05 0 0 0
994 4 5.742635895203996 14.3672178326847 -4.1435730985663254e-05 0 0 0
1095 1 1.9142119650679985 16.57689478340643 1.5341467593319682 0 0 0
1099 1 5.742635895203996 16.57689478340643 1.5341467593319682 0 0 0
1000 1 7.656847860271997 13.261382403452428 1.5341467593319649 0 0 0
1004 1 11.485271790408 13.261382403452426 1.5341467593319662 0 0 0
998 4 9.571059825339999 14.3672178326847 -4.1435730984353714e-05 0 0 0
1103 1 9.571059825339999 16.57689478340643 1.5341467593319669 0 0 0
1008 1 15.313695720543999 13.261382403452428 1.5341467593319649 0 0 0
1002 4 13.399483755475998 14.3672178326847 -4.14357309856629e-05 0 0 0
1006 4 17.227907685612 14.367217832684702 -4.143573098575095e-05 0 0 0
1107 1 13.399483755475998 16.57689478340643 1.5341467593319682 0 0 0
1111 1 17.227907685612 16.57689478340643 1.5341467593319682 0 0 0
1012 1 19.142119650679998 13.261382403452426 1.5341467593319662 0 0 0
1016 1 22.970543580815995 13.261382403452426 1.5341467593319664 0 0 0
1010 4 21.056331615747997 14.3672178326847 -4.143573098564246e-05 0 0 0
1115 1 21.056331615747997 16.57689478340643 1.5341467593319682 0 0 0
1020 1 26.798967510952 13.261382403452426 1.5341467593319664 0 0 0
1014 4 24.884755545883998 14.367217832684698 -4.143573098292777e-05 0 0 0
1018 4 28.71317947602 14.3672178326847 -4.143573098564272e-05 0 0 0
1119 1 24.884755545883998 16.57689478340643 1.5341467593319653 0 0 0
1123 1 28.71317947602 16.57689478340643 1.5341467593319682 0 0 0
1024 1 30.627391441087997 13.261382403452426 1.5341467593319662 0 0 0
1028 1 34.455815371224 13.26138240345243 1.5341467593319635 0 0 0
1022 4 32.541603406156 14.367217832684702 -4.1435730985861846e-05 0 0 0
1127 1 32.541603406156 16.57689478340643 1.5341467593319684 0 0 0
1032 1 38.28423930136 13.261382403452426 1.5341467593319662 0 0 0
1026 4 36.370027336292 14.367217832684702 -4.143573098585981e-05 0 0 0
1030 4 40.198451266427995 14.3672178326847 -4.1435730985641496e-05 0 0 0
1131 1 36.370027336292 16.57689478340643 1.5341467593319684 0 0 0
1135 1 40.198451266427995 16.57689478340643 1.5341467593319682 0 0 0
1036 1 42.112663231496 13.261382403452426 1.5341467593319662 0 0 0
1040 1 45.941087161632 13.261382403452426 1.5341467593319664 0 0 0
1034 4 44.02687519656399 14.3672178326847 -4.143573098564121e-05 0 0 0
1139 1 44.02687519656399 16.57689478340643 1.5341467593319682 0 0 0
940 1 49.769511091768 13.261382403452428 1.534146759331965 -1 0 0
1038 4 47.8552991267 14.367217832684698 -4.1435730983037886e-05 0 0 0
938 4 51.683723056836 14.3672178326847 -4.1435730985663864e-05 -1 0 0
1143 1 47.8552991267 16.57689478340643 1.5341467593319655 0 0 0
1043 1 51.683723056836 16.57689478340643 1.5341467593319682 -1 0 0
944 1 53.597935021904 13.261382403452426 1.5341467593319662 -1 0 0
948 1 57.426358952040005 13.261382403452428 1.5341467593319649 -1 0 0
942 4 55.512146986972 14.3672178326847 -4.143573098435073e-05 -1 0 0
1047 1 55.512146986972 16.57689478340643 1.5341467593319669 -1 0 0
952 1 61.254782882176 13.261382403452428 1.5341467593319662 -1 0 0
946 4 59.340570917108 14.3672178326847 -4.143573098566339e-05 -1 0 0
950 4 63.168994847244 14.3672178326847 -4.143573098566247e-05 -1 0 0
1051 1 59.340570917108 16.57689478340643 1.5341467593319682 -1 0 0
1055 1 63.168994847244 16.57689478340643 1.5341467593319682 -1 0 0
956 1 65.083206812312 13.261382403452428 1.534146759331965 -1 0 0
960 1 68.91163074244801 13.261382403452428 1.5341467593319662 -1 0 0
954 4 66.99741877738 14.367217832684698 -4.1435730983036876e-05 -1 0 0
1059 1 66.99741877738 16.57689478340643 1.5341467593319655 -1 0 0
964 1 72.740054672584 13.261382403452428 1.5341467593319662 -1 0 0
958 4 70.825842707516 14.367217832684704 -4.1435730988343646e-05 -1 0 0
962 4 74.654266637652 14.367217832684698 -4.1435730982932407e-05 -1 0 0
1063 1 70.825842707516 16.576894783406427 1.5341467593319709 -1 0 0
1067 1 74.654266637652 16.57689478340643 1.5341467593319653 -1 0 0
968 1 76.56847860272 13.261382403452426 1.5341467593319664 -1 0 0
972 1 80.396902532856 13.261382403452426 1.5341467593319662 -1 0 0
966 4 78.482690567788 14.3672178326847 -4.1435730985644274e-05 -1 0 0
1071 1 78.482690567788 16.57689478340643 1.5341467593319682 -1 0 0
976 1 84.225326462992 13.26138240345243 1.5341467593319638 -1 0 0
970 4 82.311114497924 14.367217832684702 -4.143573098586158e-05 -1 0 0
974 4 86.13953842806 14.367217832684698 -4.143573098314741e-05 -1 0 0
1075 1 82.311114497924 16.57689478340643 1.5341467593319684 -1 0 0
1079 1 86.13953842806 16.57689478340643 1.5341467593319655 -1 0 0
980 1 88.05375039312801 13.261382403452428 1.5341467593319662 -1 0 0
984 1 91.882174323264 13.261382403452428 1.5341467593319662 -1 0 0
978 4 89.967962358196 14.367217832684704 -4.143573098834527e-05 -1 0 0
1083 1 89.967962358196 16.576894783406427 1.5341467593319709 -1 0 0
988 1 95.71059825340001 13.261382403452426 1.5341467593319664 -1 0 0
982 4 93.796386288332 14.367217832684698 -4.1435730982928944e-05 -1 0 0
986 4 97.624810218468 14.367217832684702 -4.1435730985751224e-05 -1 0 0
1087 1 93.796386288332 16.57689478340643 1.5341467593319653 -1 0 0
1091 1 97.624810218468 16.57689478340643 1.5341467593319682 -1 0 0
1093 4 0 17.682730212638702 -4.14357309841197e-05 0 0 0
1097 4 3.8284239301359975 17.682730212638702 -4.1435730985430774e-05 0 0 0
1096 1 0 19.89240716336043 1.5341467593319666 0 0 0
1100 1 3.8284239301359975 19.89240716336043 1.534146759331968 0 0 0
1094 4 1.9142119650679985 20.998242592592703 -4.143573098553943e-05 0 0 0
1098 4 5.742635895203996 20.998242592592703 -4.14357309855399e-05 0 0 0
1199 1 1.9142119650679985 23.207919543314432 1.5341467593319682 0 0 0
1203 1 5.742635895203996 23.207919543314432 1.5341467593319682 0 0 0
1101 4 7.656847860271997 17.682730212638702 -4.1435730984228746e-05 0 0 0
1105 4 11.485271790408 17.682730212638702 -4.14357309855432e-05 0 0 0
1104 1 7.656847860271997 19.89240716336043 1.5341467593319669 0 0 0
1108 1 11.485271790408 19.89240716336043 1.5341467593319682 0 0 0
1102 4 9.571059825339999 20.998242592592703 -4.143573098423003e-05 0 0 0
1207 1 9.571059825339999 23.207919543314432 1.5341467593319669 0 0 0
1109 4 15.313695720543999 17.682730212638702 -4.1435730984116294e-05 0 0 0
1112 1 15.313695720543999 19.89240716336043 1.5341467593319666 0 0 0
1106 4 13.399483755475998 20.998242592592703 -4.143573098553955e-05 0 0 0
1110 4 17.227907685612 20.998242592592703 -4.143573098562754e-05 0 0 0
1211 1 13.399483755475998 23.207919543314432 1.5341467593319682 0 0 0
1215 1 17.227907685612 23.207919543314432 1.5341467593319682 0 0 0
1113 4 19.142119650679998 17.682730212638702 -4.143573098552152e-05 0 0 0
1117 4 22.970543580815995 17.682730212638702 -4.143573098573835e-05 0 0 0
1116 1 19.142119650679998 19.89240716336043 1.5341467593319682 0 0 0
1120 1 22.970543580815995 19.89240716336043 1.5341467593319684 0 0 0
1114 4 21.056331615747997 20.998242592592703 -4.1435730985519205e-05 0 0 0
1219 1 21.056331615747997 23.207919543314432 1.5341467593319682 0 0 0
1121 4 26.798967510952 17.682730212638702 -4.1435730985738986e-05 0 0 0
1124 1 26.798967510952 19.89240716336043 1.5341467593319684 0 0 0
1118 4 24.884755545883998 20.9982425925927 -4.143573098280584e-05 0 0 0
1122 4 28.71317947602 20.998242592592703 -4.143573098551973e-05 0 0 0
1223 1 24.884755545883998 23.207919543314432 1.5341467593319655 0 0 0
1227 1 28.71317947602 23.207919543314432 1.5341467593319682 0 0 0
1125 4 30.627391441087997 17.682730212638702 -4.143573098552188e-05 0 0 0
1129 4 34.455815371224 17.6827302126387 -4.1435730982806544e-05 0 0 0
1128 1 30.627391441087997 19.89240716336043 1.5341467593319682 0 0 0
1132 1 34.455815371224 19.89240716336043 1.5341467593319653 0 0 0
1126 4 32.541603406156 20.998242592592703 -4.143573098573918e-05 0 0 0
1231 1 32.541603406156 23.207919543314432 1.5341467593319684 0 0 0
1133 4 38.28423930136 17.682730212638702 -4.143573098551912e-05 0 0 0
1136 1 38.28423930136 19.89240716336043 1.5341467593319682 0 0 0
1130 4 36.370027336292 20.998242592592703 -4.143573098573744e-05 0 0 0
1134 4 40.198451266427995 20.998242592592703 -4.143573098551832e-05 0 0 0
1235 1 36.370027336292 23.207919543314432 1.5341467593319684 0 0 0
1239 1 40.198451266427995 23.207919543314432 1.5341467593319682 0 0 0
1137 4 42.112663231496 17.682730212638702 -4.14357309855194e-05 0 0 0
1141 4 45.941087161632 17.682730212638702 -4.1435730985738654e-05 0 0 0
1140 1 42.112663231496 19.89240716336043 1.5341467593319682 0 0 0
1144 1 45.941087161632 19.89240716336043 1.5341467593319684 0 0 0
1138 4 44.02687519656399 20.998242592592703 -4.14357309855184e-05 0 0 0
1243 1 44.02687519656399 23.207919543314432 1.5341467593319682 0 0 0
1041 4 49.769511091768 17.682730212638702 -4.143573098433927e-05 -1 0 0
1044 1 49.769511091768 19.89240716336043 1.5341467593319669 -1 0 0
1142 4 47.8552991267 20.9982425925927 -4.1435730982915297e-05 0 0 0
1042 4 51.683723056836 20.998242592592703 -4.14357309855407e-05 -1 0 0
1247 1 47.8552991267 23.207919543314432 1.5341467593319655 0 0 0
1147 1 51.683723056836 23.207919543314432 1.5341467593319682 -1 0 0
1045 4 53.597935021904 17.682730212638702 -4.143573098553984e-05 -1 0 0
1049 4 57.426358952040005 17.682730212638702 -4.143573098422935e-05 -1 0 0
1048 1 53.597935021904 19.89240716336043 1.5341467593319682 -1 0 0
1052 1 57.426358952040005 19.89240716336043 1.5341467593319669 -1 0 0
1046 4 55.512146986972 20.998242592592703 -4.143573098422696e-05 -1 0 0
1151 1 55.512146986972 23.207919543314432 1.5341467593319669 -1 0 0
1053 4 61.254782882176 17.682730212638702 -4.143573098543128e-05 -1 0 0
1056 1 61.254782882176 19.89240716336043 1.534146759331968 -1 0 0
1050 4 59.340570917108 20.998242592592703 -4.14357309855413e-05 -1 0 0
1054 4 63.168994847244 20.998242592592703 -4.1435730985539174e-05 -1 0 0
1155 1 59.340570917108 23.207919543314432 1.5341467593319682 -1 0 0
1159 1 63.168994847244 23.207919543314432 1.5341467593319682 -1 0 0
1057 4 65.083206812312 17.682730212638702 -4.143573098433674e-05 -1 0 0
1061 4 68.91163074244801 17.682730212638702 -4.143573098551353e-05 -1 0 0
1060 1 65.083206812312 19.89240716336043 1.5341467593319669 -1 0 0
1064 1 68.91163074244801 19.89240716336043 1.5341467593319682 -1 0 0
1058 4 66.99741877738 20.9982425925927 -4.1435730982913995e-05 -1 0 0
1163 1 66.99741877738 23.207919543314432 1.5341467593319655 -1 0 0
1065 4 72.740054672584 17.682730212638702 -4.1435730985516846e-05 -1 0 0
1068 1 72.740054672584 19.89240716336043 1.5341467593319682 -1 0 0
1062 4 70.825842707516 20.998242592592703 -4.143573098822086e-05 -1 0 0
1066 4 74.654266637652 20.9982425925927 -4.1435730982809777e-05 -1 0 0
1167 1 70.825842707516 23.20791954331443 1.5341467593319709 -1 0 0
1171 1 74.654266637652 23.207919543314432 1.5341467593319653 -1 0 0
1069 4 76.56847860272 17.682730212638702 -4.143573098574079e-05 -1 0 0
1073 4 80.396902532856 17.682730212638702 -4.143573098552282e-05 -1 0 0
1072 1 76.56847860272 19.89240716336043 1.5341467593319684 -1 0 0
1076 1 80.396902532856 19.89240716336043 1.5341467593319682 -1 0 0
1070 4 78.482690567788 20.998242592592703 -4.143573098552116e-05 -1 0 0
1175 1 78.482690567788 23.207919543314432 1.5341467593319682 -1 0 0
1077 4 84.225326462992 17.6827302126387 -4.1435730983024964e-05 -1 0 0
1080 1 84.225326462992 19.89240716336043 1.5341467593319655 -1 0 0
1074 4 82.311114497924 20.998242592592703 -4.1435730985738444e-05 -1 0 0
1078 4 86.13953842806 20.9982425925927 -4.143573098302433e-05 -1 0 0
1179 1 82.311114497924 23.207919543314432 1.5341467593319684 -1 0 0
1183 1 86.13953842806 23.207919543314432 1.5341467593319655 -1 0 0
1081 4 88.05375039312801 17.682730212638702 -4.1435730985514875e-05 -1 0 0
1085 4 91.882174323264 17.682730212638702 -4.14357309855157e-05 -1 0 0
1084 1 88.05375039312801 19.89240716336043 1.5341467593319682 -1 0 0
1088 1 91.882174323264 19.89240716336043 1.5341467593319682 -1 0 0
1082 4 89.967962358196 20.998242592592703 -4.1435730988222026e-05 -1 0 0
1187 1 89.967962358196 23.20791954331443 1.5341467593319709 -1 0 0
1089 4 95.71059825340001 17.682730212638702 -4.143573098573705e-05 -1 0 0
1092 1 95.71059825340001 19.89240716336043 1.5341467593319684 -1 0 0
1086 4 93.796386288332 20.9982425925927 -4.143573098280559e-05 -1 0 0
1090 4 97.624810218468 20.998242592592703 -4.1435730985627754e-05 -1 0 0
1191 1 93.796386288332 23.207919543314432 1.5341467593319655 -1 0 0
1195 1 97.624810218468 23.207919543314432 1.5341467593319682 -1 0 0
1197 4 0 24.3137549725467 -4.143573098359497e-05 0 0 0
1201 4 3.8284239301359975 24.313754972546704 -4.143573098490597e-05 0 0 0
1198 4 1.9142119650679985 27.629267352500698 -4.1435730985237495e-05 0 0 0
1200 1 0 26.52343192326843 1.53414675933197 0 0 0
1204 1 3.8284239301359975 26.52343192326843 1.5341467593319713 0 0 0
1202 4 5.742635895203996 27.629267352500698 -4.143573098523833e-05 0 0 0
1205 4 7.656847860271997 24.3137549725467 -4.1435730983704345e-05 0 0 0
1209 4 11.485271790408 24.313754972546704 -4.143573098501849e-05 0 0 0
1208 1 7.656847860271997 26.52343192326843 1.5341467593319702 0 0 0
1206 4 9.571059825339999 27.629267352500698 -4.143573098395762e-05 0 0 0
1212 1 11.485271790408 26.52343192326843 1.5341467593319713 0 0 0
1213 4 15.313695720543999 24.3137549725467 -4.143573098359221e-05 0 0 0
1210 4 13.399483755475998 27.629267352500698 -4.143573098523749e-05 0 0 0
1216 1 15.313695720543999 26.52343192326843 1.53414675933197 0 0 0
1214 4 17.227907685612 27.629267352500698 -4.143573098523647e-05 0 0 0
1217 4 19.142119650679998 24.313754972546704 -4.143573098499609e-05 0 0 0
1221 4 22.970543580815995 24.313754972546704 -4.143573098521383e-05 0 0 0
1220 1 19.142119650679998 26.52343192326843 1.5341467593319713 0 0 0
1218 4 21.056331615747997 27.629267352500698 -4.143573098512449e-05 0 0 0
1224 1 22.970543580815995 26.52343192326843 1.5341467593319715 0 0 0
1225 4 26.798967510952 24.313754972546704 -4.143573098521439e-05 0 0 0
1222 4 24.884755545883998 27.629267352500698 -4.143573098255113e-05 0 0 0
1228 1 26.798967510952 26.52343192326843 1.5341467593319715 0 0 0
1226 4 28.71317947602 27.629267352500698 -4.143573098512465e-05 0 0 0
1229 4 30.627391441087997 24.313754972546704 -4.1435730984997744e-05 0 0 0
1233 4 34.455815371224 24.3137549725467 -4.143573098228262e-05 0 0 0
1232 1 30.627391441087997 26.52343192326843 1.5341467593319713 0 0 0
1230 4 32.541603406156 27.629267352500698 -4.1435730985348334e-05 0 0 0
1236 1 34.455815371224 26.52343192326843 1.5341467593319686 0 0 0
1237 4 38.28423930136 24.313754972546704 -4.1435730984994966e-05 0 0 0
1234 4 36.370027336292 27.629267352500698 -4.143573098534674e-05 0 0 0
1240 1 38.28423930136 26.52343192326843 1.5341467593319713 0 0 0
1238 4 40.198451266427995 27.629267352500698 -4.1435730985123484e-05 0 0 0
1241 4 42.112663231496 24.313754972546704 -4.143573098499545e-05 0 0 0
1245 4 45.941087161632 24.313754972546704 -4.1435730985214205e-05 0 0 0
1244 1 42.112663231496 26.52343192326843 1.5341467593319713 0 0 0
1242 4 44.02687519656399 27.629267352500698 -4.143573098512366e-05 0 0 0
1248 1 45.941087161632 26.52343192326843 1.5341467593319715 0 0 0
1145 4 49.769511091768 24.3137549725467 -4.143573098381449e-05 -1 0 0
1246 4 47.8552991267 27.629267352500698 -4.1435730982664676e-05 0 0 0
1148 1 49.769511091768 26.52343192326843 1.5341467593319702 -1 0 0
1146 4 51.683723056836 27.629267352500698 -4.1435730985238335e-05 -1 0 0
1149 4 53.597935021904 24.313754972546704 -4.143573098501534e-05 -1 0 0
1153 4 57.426358952040005 24.3137549725467 -4.143573098370483e-05 -1 0 0
1152 1 53.597935021904 26.52343192326843 1.5341467593319713 -1 0 0
1150 4 55.512146986972 27.629267352500698 -4.1435730983955046e-05 -1 0 0
1156 1 57.426358952040005 26.52343192326843 1.5341467593319702 -1 0 0
1157 4 61.254782882176 24.313754972546704 -4.143573098490718e-05 -1 0 0
1154 4 59.340570917108 27.629267352500698 -4.143573098523947e-05 -1 0 0
1160 1 61.254782882176 26.52343192326843 1.5341467593319713 -1 0 0
1158 4 63.168994847244 27.629267352500698 -4.143573098523787e-05 -1 0 0
1161 4 65.083206812312 24.3137549725467 -4.143573098381258e-05 -1 0 0
1165 4 68.91163074244801 24.313754972546704 -4.1435730984988454e-05 -1 0 0
1162 4 66.99741877738 27.629267352500698 -4.143573098266322e-05 -1 0 0
1164 1 65.083206812312 26.52343192326843 1.5341467593319702 -1 0 0
1168 1 68.91163074244801 26.52343192326843 1.5341467593319713 -1 0 0
1169 4 72.740054672584 24.313754972546704 -4.1435730984992174e-05 -1 0 0
1166 4 70.825842707516 27.6292673525007 -4.143573098769936e-05 -1 0 0
1172 1 72.740054672584 26.52343192326843 1.5341467593319713 -1 0 0
1170 4 74.654266637652 27.629267352500698 -4.143573098255519e-05 -1 0 0
1173 4 76.56847860272 24.313754972546704 -4.143573098521624e-05 -1 0 0
1177 4 80.396902532856 24.313754972546704 -4.143573098499823e-05 -1 0 0
1176 1 76.56847860272 26.52343192326843 1.5341467593319715 -1 0 0
1174 4 78.482690567788 27.629267352500698 -4.143573098512638e-05 -1 0 0
1180 1 80.396902532856 26.52343192326843 1.5341467593319713 -1 0 0
1181 4 84.225326462992 24.3137549725467 -4.143573098250028e-05 -1 0 0
1178 4 82.311114497924 27.629267352500698 -4.1435730985347237e-05 -1 0 0