LAMMPS data file via write_data, version 29 Aug 2024, timestep = 0, units = metal

5016 atoms
4 atom types

0 99.99 xlo xhi
0 99.714164991746 ylo yhi
0 106 zlo zhi

Masses

1 10.81
2 10.81
3 32.06
4 32.06

Atoms # atomic

2508 3 0 0.8746856578230009 0 0 0 0
2514 1 1.5150000000000006 0 0.8387000000000029 0 0 0
2516 3 3.030000000000001 0.8746856578230009 0 0 0 0
2522 1 4.545000000000002 0 0.8387000000000029 0 0 0
2524 3 6.060000000000002 0.8746856578230009 0 0 0 0
2530 1 7.575000000000003 0 0.8387000000000029 0 0 0
2532 3 9.090000000000003 0.8746856578230009 0 0 0 0
2538 1 10.605000000000004 0 0.8387000000000029 0 0 0
2540 3 12.120000000000005 0.8746856578230009 0 0 0 0
2546 1 13.635000000000005 0 0.8387000000000029 0 0 0
2548 3 15.149999999999999 0.8746856578230009 0 0 0 0
2554 1 16.665 0 0.8387000000000029 0 0 0
2556 3 18.18 0.8746856578230009 0 0 0 0
2562 1 19.695 0 0.8387000000000029 0 0 0
2564 3 21.21 0.8746856578230009 0 0 0 0
2570 1 22.725 0 0.8387000000000029 0 0 0
2572 3 24.240000000000002 0.8746856578230009 0 0 0 0
2578 1 25.755000000000003 0 0.8387000000000029 0 0 0
2580 3 27.270000000000003 0.8746856578230009 0 0 0 0
2586 1 28.785000000000004 0 0.8387000000000029 0 0 0
2588 3 30.300000000000004 0.8746856578230009 0 0 0 0
2594 1 31.815000000000005 0 0.8387000000000029 0 0 0
2596 3 33.330000000000005 0.8746856578230009 0 0 0 0
2602 1 34.845000000000006 0 0.8387000000000029 0 0 0
2604 3 36.36000000000001 0.8746856578230009 0 0 0 0
2610 1 37.87500000000001 0 0.8387000000000029 0 0 0
2612 3 39.39000000000001 0.8746856578230009 0 0 0 0
2618 1 40.90500000000001 0 0.8387000000000029 0 0 0
2620 3 42.42000000000001 0.8746856578230009 0 0 0 0
2626 1 43.93500000000001 0 0.8387000000000029 0 0 0
2628 3 45.449999999999996 0.8746856578230009 0 0 0 0
2634 1 46.964999999999996 0 0.8387000000000029 0 0 0
2636 3 48.48 0.8746856578230009 0 0 0 0
2378 1 49.995 0 0.8387000000000029 -1 0 0
2380 3 51.51 0.8746856578230009 0 -1 0 0
2386 1 53.025 0 0.8387000000000029 -1 0 0
2388 3 54.54 0.8746856578230009 0 -1 0 0
2394 1 56.055 0 0.8387000000000029 -1 0 0
2396 3 57.57 0.8746856578230009 0 -1 0 0
2402 1 59.084999999999994 0 0.8387000000000029 -1 0 0
2404 3 60.599999999999994 0.8746856578230009 0 -1 0 0
2410 1 62.114999999999995 0 0.8387000000000029 -1 0 0
2412 3 63.629999999999995 0.8746856578230009 0 -1 0 0
2418 1 65.145 0 0.8387000000000029 -1 0 0
2420 3 66.66 0.8746856578230009 0 -1 0 0
2426 1 68.175 0 0.8387000000000029 -1 0 0
2428 3 69.69 0.8746856578230009 0 -1 0 0
2434 1 71.205 0 0.8387000000000029 -1 0 0
2436 3 72.72 0.8746856578230009 0 -1 0 0
2442 1 74.235 0 0.8387000000000029 -1 0 0
2444 3 75.75 0.8746856578230009 0 -1 0 0
2450 1 77.265 0 0.8387000000000029 -1 0 0
2452 3 78.78 0.8746856578230009 0 -1 0 0
2458 1 80.295 0 0.8387000000000029 -1 0 0
2460 3 81.81 0.8746856578230009 0 -1 0 0
2466 1 83.32499999999999 0 0.8387000000000029 -1 0 0
2468 3 84.84 0.8746856578230009 0 -1 0 0
2474 1 86.35499999999999 0 0.8387000000000029 -1 0 0
2476 3 87.87 0.8746856578230009 0 -1 0 0
2482 1 89.38499999999999 0 0.8387000000000029 -1 0 0
2484 3 90.9 0.8746856578230009 0 -1 0 0
2490 1 92.41499999999999 0 0.8387000000000029 -1 0 0
2492 3 93.93 0.8746856578230009 0 -1 0 0
2498 1 95.445 0 0.8387000000000029 -1 0 0
2500 3 96.96000000000001 0.8746856578230009 0 -1 0 0
2506 1 98.475 0 0.8387000000000029 -1 0 0
2769 1 0 2.624056973466999 0.8387000000000029 0 0 0
2777 1 3.030000000000001 2.624056973466999 0.8387000000000029 0 0 0
2785 1 6.060000000000002 2.624056973466999 0.8387000000000029 0 0 0
2793 1 9.090000000000003 2.624056973466999 0.8387000000000029 0 0 0
2801 1 12.120000000000005 2.624056973466999 0.8387000000000029 0 0 0
2809 1 15.149999999999999 2.624056973466999 0.8387000000000029 0 0 0
2817 1 18.18 2.624056973466999 0.8387000000000029 0 0 0
2825 1 21.21 2.624056973466999 0.8387000000000029 0 0 0
2833 1 24.240000000000002 2.624056973466999 0.8387000000000029 0 0 0
2841 1 27.270000000000003 2.624056973466999 0.8387000000000029 0 0 0
2849 1 30.300000000000004 2.624056973466999 0.8387000000000029 0 0 0
2857 1 33.330000000000005 2.624056973466999 0.8387000000000029 0 0 0
2865 1 36.36000000000001 2.624056973466999 0.8387000000000029 0 0 0
2873 1 39.39000000000001 2.624056973466999 0.8387000000000029 0 0 0
2881 1 42.42000000000001 2.624056973466999 0.8387000000000029 0 0 0
2889 1 45.449999999999996 2.624056973466999 0.8387000000000029 0 0 0
2897 1 48.48 2.624056973466999 0.8387000000000029 0 0 0
2641 1 51.51 2.624056973466999 0.8387000000000029 -1 0 0
2649 1 54.54 2.624056973466999 0.8387000000000029 -1 0 0
2657 1 57.57 2.624056973466999 0.8387000000000029 -1 0 0
2665 1 60.599999999999994 2.624056973466999 0.8387000000000029 -1 0 0
2673 1 63.629999999999995 2.624056973466999 0.8387000000000029 -1 0 0
2681 1 66.66 2.624056973466999 0.8387000000000029 -1 0 0
2689 1 69.69 2.624056973466999 0.8387000000000029 -1 0 0
2697 1 72.72 2.624056973466999 0.8387000000000029 -1 0 0
2705 1 75.75 2.624056973466999 0.8387000000000029 -1 0 0
2713 1 78.78 2.624056973466999 0.8387000000000029 -1 0 0
2721 1 81.81 2.624056973466999 0.8387000000000029 -1 0 0
2729 1 84.84 2.624056973466999 0.8387000000000029 -1 0 0
2737 1 87.87 2.624056973466999 0.8387000000000029 -1 0 0
2745 1 90.9 2.624056973466999 0.8387000000000029 -1 0 0
2753 1 93.93 2.624056973466999 0.8387000000000029 -1 0 0
2761 1 96.96000000000001 2.624056973466999 0.8387000000000029 -1 0 0
2779 3 1.5150000000000006 3.49874263129 0 0 0 0
2787 3 4.545000000000002 3.49874263129 0 0 0 0
2795 3 7.575000000000003 3.49874263129 0 0 0 0
2803 3 10.605000000000004 3.49874263129 0 0 0 0
2811 3 13.635000000000005 3.49874263129 0 0 0 0
2819 3 16.665 3.49874263129 0 0 0 0
2827 3 19.695 3.49874263129 0 0 0 0
2835 3 22.725 3.49874263129 0 0 0 0
2843 3 25.755000000000003 3.49874263129 0 0 0 0
2851 3 28.785000000000004 3.49874263129 0 0 0 0
2859 3 31.815000000000005 3.49874263129 0 0 0 0
2867 3 34.845000000000006 3.49874263129 0 0 0 0
2875 3 37.87500000000001 3.49874263129 0 0 0 0
2883 3 40.90500000000001 3.49874263129 0 0 0 0
2891 3 43.93500000000001 3.49874263129 0 0 0 0
2899 3 46.964999999999996 3.49874263129 0 0 0 0
2643 3 49.995 3.49874263129 0 -1 0 0
2651 3 53.025 3.49874263129 0 -1 0 0
2659 3 56.055 3.49874263129 0 -1 0 0
2667 3 59.084999999999994 3.49874263129 0 -1 0 0
2675 3 62.114999999999995 3.49874263129 0 -1 0 0
2683 3 65.145 3.49874263129 0 -1 0 0
2691 3 68.175 3.49874263129 0 -1 0 0
2699 3 71.205 3.49874263129 0 -1 0 0
2707 3 74.235 3.49874263129 0 -1 0 0
2715 3 77.265 3.49874263129 0 -1 0 0
2723 3 80.295 3.49874263129 0 -1 0 0
2731 3 83.32499999999999 3.49874263129 0 -1 0 0
2739 3 86.35499999999999 3.49874263129 0 -1 0 0
2747 3 89.38499999999999 3.49874263129 0 -1 0 0
2755 3 92.41499999999999 3.49874263129 0 -1 0 0
2763 3 95.445 3.49874263129 0 -1 0 0
2771 3 98.475 3.49874263129 0 -1 0 0
2772 3 0 6.122799604756999 0 0 0 0
2778 1 1.5150000000000006 5.248113946933998 0.8387000000000029 0 0 0
2780 3 3.030000000000001 6.122799604756999 0 0 0 0
2786 1 4.545000000000002 5.248113946933998 0.8387000000000029 0 0 0
2788 3 6.060000000000002 6.122799604756999 0 0 0 0
2794 1 7.575000000000003 5.248113946933998 0.8387000000000029 0 0 0
2796 3 9.090000000000003 6.122799604756999 0 0 0 0
2802 1 10.605000000000004 5.248113946933998 0.8387000000000029 0 0 0
2804 3 12.120000000000005 6.122799604756999 0 0 0 0
2810 1 13.635000000000005 5.248113946933998 0.8387000000000029 0 0 0
2812 3 15.149999999999999 6.122799604756999 0 0 0 0
2818 1 16.665 5.248113946933998 0.8387000000000029 0 0 0
2820 3 18.18 6.122799604756999 0 0 0 0
2826 1 19.695 5.248113946933998 0.8387000000000029 0 0 0
2828 3 21.21 6.122799604756999 0 0 0 0
2834 1 22.725 5.248113946933998 0.8387000000000029 0 0 0
2836 3 24.240000000000002 6.122799604756999 0 0 0 0
2842 1 25.755000000000003 5.248113946933998 0.8387000000000029 0 0 0
2844 3 27.270000000000003 6.122799604756999 0 0 0 0
2850 1 28.785000000000004 5.248113946933998 0.8387000000000029 0 0 0
2852 3 30.300000000000004 6.122799604756999 0 0 0 0
2858 1 31.815000000000005 5.248113946933998 0.8387000000000029 0 0 0
2860 3 33.330000000000005 6.122799604756999 0 0 0 0
2866 1 34.845000000000006 5.248113946933998 0.8387000000000029 0 0 0
2868 3 36.36000000000001 6.122799604756999 0 0 0 0
2874 1 37.87500000000001 5.248113946933998 0.8387000000000029 0 0 0
2876 3 39.39000000000001 6.122799604756999 0 0 0 0
2882 1 40.90500000000001 5.248113946933998 0.8387000000000029 0 0 0
2884 3 42.42000000000001 6.122799604756999 0 0 0 0
2890 1 43.93500000000001 5.248113946933998 0.8387000000000029 0 0 0
2892 3 45.449999999999996 6.122799604756999 0 0 0 0
2898 1 46.964999999999996 5.248113946933998 0.8387000000000029 0 0 0
2900 3 48.48 6.122799604756999 0 0 0 0
2642 1 49.995 5.248113946933998 0.8387000000000029 -1 0 0
2644 3 51.51 6.122799604756999 0 -1 0 0
2650 1 53.025 5.248113946933998 0.8387000000000029 -1 0 0
2652 3 54.54 6.122799604756999 0 -1 0 0
2658 1 56.055 5.248113946933998 0.8387000000000029 -1 0 0
2660 3 57.57 6.122799604756999 0 -1 0 0
2666 1 59.084999999999994 5.248113946933998 0.8387000000000029 -1 0 0
2668 3 60.599999999999994 6.122799604756999 0 -1 0 0
2674 1 62.114999999999995 5.248113946933998 0.8387000000000029 -1 0 0
2676 3 63.629999999999995 6.122799604756999 0 -1 0 0
2682 1 65.145 5.248113946933998 0.8387000000000029 -1 0 0
2684 3 66.66 6.122799604756999 0 -1 0 0
2690 1 68.175 5.248113946933998 0.8387000000000029 -1 0 0
2692 3 69.69 6.122799604756999 0 -1 0 0
2698 1 71.205 5.248113946933998 0.8387000000000029 -1 0 0
2700 3 72.72 6.122799604756999 0 -1 0 0
2706 1 74.235 5.248113946933998 0.8387000000000029 -1 0 0
2708 3 75.75 6.122799604756999 0 -1 0 0
2714 1 77.265 5.248113946933998 0.8387000000000029 -1 0 0
2716 3 78.78 6.122799604756999 0 -1 0 0
2722 1 80.295 5.248113946933998 0.8387000000000029 -1 0 0
2724 3 81.81 6.122799604756999 0 -1 0 0
2730 1 83.32499999999999 5.248113946933998 0.8387000000000029 -1 0 0
2732 3 84.84 6.122799604756999 0 -1 0 0
2738 1 86.35499999999999 5.248113946933998 0.8387000000000029 -1 0 0
2740 3 87.87 6.122799604756999 0 -1 0 0
2746 1 89.38499999999999 5.248113946933998 0.8387000000000029 -1 0 0
2748 3 90.9 6.122799604756999 0 -1 0 0
2754 1 92.41499999999999 5.248113946933998 0.8387000000000029 -1 0 0
2756 3 93.93 6.122799604756999 0 -1 0 0
2762 1 95.445 5.248113946933998 0.8387000000000029 -1 0 0
2764 3 96.96000000000001 6.122799604756999 0 -1 0 0
2770 1 98.475 5.248113946933998 0.8387000000000029 -1 0 0
3043 3 1.5150000000000006 8.746856578223998 0 0 0 0
3033 1 0 7.872170920400997 0.8387000000000029 0 0 0
3041 1 3.030000000000001 7.872170920400997 0.8387000000000029 0 0 0
3051 3 4.545000000000002 8.746856578223998 0 0 0 0
3049 1 6.060000000000002 7.872170920400997 0.8387000000000029 0 0 0
3059 3 7.575000000000003 8.746856578223998 0 0 0 0
3057 1 9.090000000000003 7.872170920400997 0.8387000000000029 0 0 0
3067 3 10.605000000000004 8.746856578223998 0 0 0 0
3065 1 12.120000000000005 7.872170920400997 0.8387000000000029 0 0 0
3075 3 13.635000000000005 8.746856578223998 0 0 0 0
3073 1 15.149999999999999 7.872170920400997 0.8387000000000029 0 0 0
3083 3 16.665 8.746856578223998 0 0 0 0
3081 1 18.18 7.872170920400997 0.8387000000000029 0 0 0
3091 3 19.695 8.746856578223998 0 0 0 0
3089 1 21.21 7.872170920400997 0.8387000000000029 0 0 0
3099 3 22.725 8.746856578223998 0 0 0 0
3097 1 24.240000000000002 7.872170920400997 0.8387000000000029 0 0 0
3107 3 25.755000000000003 8.746856578223998 0 0 0 0
3105 1 27.270000000000003 7.872170920400997 0.8387000000000029 0 0 0
3115 3 28.785000000000004 8.746856578223998 0 0 0 0
3113 1 30.300000000000004 7.872170920400997 0.8387000000000029 0 0 0
3123 3 31.815000000000005 8.746856578223998 0 0 0 0
3121 1 33.330000000000005 7.872170920400997 0.8387000000000029 0 0 0
3131 3 34.845000000000006 8.746856578223998 0 0 0 0
3129 1 36.36000000000001 7.872170920400997 0.8387000000000029 0 0 0
3139 3 37.87500000000001 8.746856578223998 0 0 0 0
3137 1 39.39000000000001 7.872170920400997 0.8387000000000029 0 0 0
3147 3 40.90500000000001 8.746856578223998 0 0 0 0
3145 1 42.42000000000001 7.872170920400997 0.8387000000000029 0 0 0
3155 3 43.93500000000001 8.746856578223998 0 0 0 0
3153 1 45.449999999999996 7.872170920400997 0.8387000000000029 0 0 0
3163 3 46.964999999999996 8.746856578223998 0 0 0 0
3161 1 48.48 7.872170920400997 0.8387000000000029 0 0 0
2907 3 49.995 8.746856578223998 0 -1 0 0
2905 1 51.51 7.872170920400997 0.8387000000000029 -1 0 0
2915 3 53.025 8.746856578223998 0 -1 0 0
2913 1 54.54 7.872170920400997 0.8387000000000029 -1 0 0
2923 3 56.055 8.746856578223998 0 -1 0 0
2921 1 57.57 7.872170920400997 0.8387000000000029 -1 0 0
2931 3 59.084999999999994 8.746856578223998 0 -1 0 0
2929 1 60.599999999999994 7.872170920400997 0.8387000000000029 -1 0 0
2939 3 62.114999999999995 8.746856578223998 0 -1 0 0
2937 1 63.629999999999995 7.872170920400997 0.8387000000000029 -1 0 0
2947 3 65.145 8.746856578223998 0 -1 0 0
2945 1 66.66 7.872170920400997 0.8387000000000029 -1 0 0
2955 3 68.175 8.746856578223998 0 -1 0 0
2953 1 69.69 7.872170920400997 0.8387000000000029 -1 0 0
2963 3 71.205 8.746856578223998 0 -1 0 0
2961 1 72.72 7.872170920400997 0.8387000000000029 -1 0 0
2971 3 74.235 8.746856578223998 0 -1 0 0
2969 1 75.75 7.872170920400997 0.8387000000000029 -1 0 0
2979 3 77.265 8.746856578223998 0 -1 0 0
2977 1 78.78 7.872170920400997 0.8387000000000029 -1 0 0
2987 3 80.295 8.746856578223998 0 -1 0 0
2985 1 81.81 7.872170920400997 0.8387000000000029 -1 0 0
2995 3 83.32499999999999 8.746856578223998 0 -1 0 0
2993 1 84.84 7.872170920400997 0.8387000000000029 -1 0 0
3003 3 86.35499999999999 8.746856578223998 0 -1 0 0
3001 1 87.87 7.872170920400997 0.8387000000000029 -1 0 0
3011 3 89.38499999999999 8.746856578223998 0 -1 0 0
3009 1 90.9 7.872170920400997 0.8387000000000029 -1 0 0
3019 3 92.41499999999999 8.746856578223998 0 -1 0 0
3017 1 93.93 7.872170920400997 0.8387000000000029 -1 0 0
3027 3 95.445 8.746856578223998 0 -1 0 0
3025 1 96.96000000000001 7.872170920400997 0.8387000000000029 -1 0 0
3035 3 98.475 8.746856578223998 0 -1 0 0
3042 1 1.5150000000000006 10.496227893868003 0.8387000000000029 0 0 0
3050 1 4.545000000000002 10.496227893868003 0.8387000000000029 0 0 0
3058 1 7.575000000000003 10.496227893868003 0.8387000000000029 0 0 0
3066 1 10.605000000000004 10.496227893868003 0.8387000000000029 0 0 0
3074 1 13.635000000000005 10.496227893868003 0.8387000000000029 0 0 0
3082 1 16.665 10.496227893868003 0.8387000000000029 0 0 0
3090 1 19.695 10.496227893868003 0.8387000000000029 0 0 0
3098 1 22.725 10.496227893868003 0.8387000000000029 0 0 0
3106 1 25.755000000000003 10.496227893868003 0.8387000000000029 0 0 0
3114 1 28.785000000000004 10.496227893868003 0.8387000000000029 0 0 0
3122 1 31.815000000000005 10.496227893868003 0.8387000000000029 0 0 0
3130 1 34.845000000000006 10.496227893868003 0.8387000000000029 0 0 0
3138 1 37.87500000000001 10.496227893868003 0.8387000000000029 0 0 0
3146 1 40.90500000000001 10.496227893868003 0.8387000000000029 0 0 0
3154 1 43.93500000000001 10.496227893868003 0.8387000000000029 0 0 0
3162 1 46.964999999999996 10.496227893868003 0.8387000000000029 0 0 0
2906 1 49.995 10.496227893868003 0.8387000000000029 -1 0 0
2914 1 53.025 10.496227893868003 0.8387000000000029 -1 0 0
2922 1 56.055 10.496227893868003 0.8387000000000029 -1 0 0
2930 1 59.084999999999994 10.496227893868003 0.8387000000000029 -1 0 0
2938 1 62.114999999999995 10.496227893868003 0.8387000000000029 -1 0 0
2946 1 65.145 10.496227893868003 0.8387000000000029 -1 0 0
2954 1 68.175 10.496227893868003 0.8387000000000029 -1 0 0
2962 1 71.205 10.496227893868003 0.8387000000000029 -1 0 0
2970 1 74.235 10.496227893868003 0.8387000000000029 -1 0 0
2978 1 77.265 10.496227893868003 0.8387000000000029 -1 0 0
2986 1 80.295 10.496227893868003 0.8387000000000029 -1 0 0
2994 1 83.32499999999999 10.496227893868003 0.8387000000000029 -1 0 0
3002 1 86.35499999999999 10.496227893868003 0.8387000000000029 -1 0 0
3010 1 89.38499999999999 10.496227893868003 0.8387000000000029 -1 0 0
3018 1 92.41499999999999 10.496227893868003 0.8387000000000029 -1 0 0
3026 1 95.445 10.496227893868003 0.8387000000000029 -1 0 0
3034 1 98.475 10.496227893868003 0.8387000000000029 -1 0 0
3036 3 0 11.370913551690997 0 0 0 0
3044 3 3.030000000000001 11.370913551690997 0 0 0 0
3052 3 6.060000000000002 11.370913551690997 0 0 0 0
3060 3 9.090000000000003 11.370913551690997 0 0 0 0
3068 3 12.120000000000005 11.370913551690997 0 0 0 0
3076 3 15.149999999999999 11.370913551690997 0 0 0 0
3084 3 18.18 11.370913551690997 0 0 0 0
3092 3 21.21 11.370913551690997 0 0 0 0
3100 3 24.240000000000002 11.370913551690997 0 0 0 0
3108 3 27.270000000000003 11.370913551690997 0 0 0 0
3116 3 30.300000000000004 11.370913551690997 0 0 0 0
3124 3 33.330000000000005 11.370913551690997 0 0 0 0
3132 3 36.36000000000001 11.370913551690997 0 0 0 0
3140 3 39.39000000000001 11.370913551690997 0 0 0 0
3148 3 42.42000000000001 11.370913551690997 0 0 0 0
3156 3 45.449999999999996 11.370913551690997 0 0 0 0
3164 3 48.48 11.370913551690997 0 0 0 0
2908 3 51.51 11.370913551690997 0 -1 0 0
2916 3 54.54 11.370913551690997 0 -1 0 0
2924 3 57.57 11.370913551690997 0 -1 0 0
2932 3 60.599999999999994 11.370913551690997 0 -1 0 0
2940 3 63.629999999999995 11.370913551690997 0 -1 0 0
2948 3 66.66 11.370913551690997 0 -1 0 0
2956 3 69.69 11.370913551690997 0 -1 0 0
2964 3 72.72 11.370913551690997 0 -1 0 0
2972 3 75.75 11.370913551690997 0 -1 0 0
2980 3 78.78 11.370913551690997 0 -1 0 0
2988 3 81.81 11.370913551690997 0 -1 0 0
2996 3 84.84 11.370913551690997 0 -1 0 0
3004 3 87.87 11.370913551690997 0 -1 0 0
3012 3 90.9 11.370913551690997 0 -1 0 0
3020 3 93.93 11.370913551690997 0 -1 0 0
3028 3 96.96000000000001 11.370913551690997 0 -1 0 0
3307 3 1.5150000000000006 13.994970525157996 0 0 0 0
3297 1 0 13.120284867335002 0.8387000000000029 0 0 0
3305 1 3.030000000000001 13.120284867335002 0.8387000000000029 0 0 0
3315 3 4.545000000000002 13.994970525157996 0 0 0 0
3313 1 6.060000000000002 13.120284867335002 0.8387000000000029 0 0 0
3323 3 7.575000000000003 13.994970525157996 0 0 0 0
3321 1 9.090000000000003 13.120284867335002 0.8387000000000029 0 0 0
3331 3 10.605000000000004 13.994970525157996 0 0 0 0
3329 1 12.120000000000005 13.120284867335002 0.8387000000000029 0 0 0
3339 3 13.635000000000005 13.994970525157996 0 0 0 0
3337 1 15.149999999999999 13.120284867335002 0.8387000000000029 0 0 0
3347 3 16.665 13.994970525157996 0 0 0 0
3345 1 18.18 13.120284867335002 0.8387000000000029 0 0 0
3355 3 19.695 13.994970525157996 0 0 0 0
3353 1 21.21 13.120284867335002 0.8387000000000029 0 0 0
3363 3 22.725 13.994970525157996 0 0 0 0
3361 1 24.240000000000002 13.120284867335002 0.8387000000000029 0 0 0
3371 3 25.755000000000003 13.994970525157996 0 0 0 0
3369 1 27.270000000000003 13.120284867335002 0.8387000000000029 0 0 0
3379 3 28.785000000000004 13.994970525157996 0 0 0 0
3377 1 30.300000000000004 13.120284867335002 0.8387000000000029 0 0 0
3387 3 31.815000000000005 13.994970525157996 0 0 0 0
3385 1 33.330000000000005 13.120284867335002 0.8387000000000029 0 0 0
3395 3 34.845000000000006 13.994970525157996 0 0 0 0
3393 1 36.36000000000001 13.120284867335002 0.8387000000000029 0 0 0
3403 3 37.87500000000001 13.994970525157996 0 0 0 0
3401 1 39.39000000000001 13.120284867335002 0.8387000000000029 0 0 0
3411 3 40.90500000000001 13.994970525157996 0 0 0 0
3409 1 42.42000000000001 13.120284867335002 0.8387000000000029 0 0 0
3419 3 43.93500000000001 13.994970525157996 0 0 0 0
3417 1 45.449999999999996 13.120284867335002 0.8387000000000029 0 0 0
3427 3 46.964999999999996 13.994970525157996 0 0 0 0
3425 1 48.48 13.120284867335002 0.8387000000000029 0 0 0
3171 3 49.995 13.994970525157996 0 -1 0 0
3169 1 51.51 13.120284867335002 0.8387000000000029 -1 0 0
3179 3 53.025 13.994970525157996 0 -1 0 0
3177 1 54.54 13.120284867335002 0.8387000000000029 -1 0 0
3187 3 56.055 13.994970525157996 0 -1 0 0
3185 1 57.57 13.120284867335002 0.8387000000000029 -1 0 0
3195 3 59.084999999999994 13.994970525157996 0 -1 0 0
3193 1 60.599999999999994 13.120284867335002 0.8387000000000029 -1 0 0
3203 3 62.114999999999995 13.994970525157996 0 -1 0 0
3201 1 63.629999999999995 13.120284867335002 0.8387000000000029 -1 0 0
3211 3 65.145 13.994970525157996 0 -1 0 0
3209 1 66.66 13.120284867335002 0.8387000000000029 -1 0 0
3219 3 68.175 13.994970525157996 0 -1 0 0
3217 1 69.69 13.120284867335002 0.8387000000000029 -1 0 0
3227 3 71.205 13.994970525157996 0 -1 0 0
3225 1 72.72 13.120284867335002 0.8387000000000029 -1 0 0
3235 3 74.235 13.994970525157996 0 -1 0 0
3233 1 75.75 13.120284867335002 0.8387000000000029 -1 0 0
3243 3 77.265 13.994970525157996 0 -1 0 0
3241 1 78.78 13.120284867335002 0.8387000000000029 -1 0 0
3251 3 80.295 13.994970525157996 0 -1 0 0
3249 1 81.81 13.120284867335002 0.8387000000000029 -1 0 0
3259 3 83.32499999999999 13.994970525157996 0 -1 0 0
3257 1 84.84 13.120284867335002 0.8387000000000029 -1 0 0
3267 3 86.35499999999999 13.994970525157996 0 -1 0 0
3265 1 87.87 13.120284867335002 0.8387000000000029 -1 0 0
3275 3 89.38499999999999 13.994970525157996 0 -1 0 0
3273 1 90.9 13.120284867335002 0.8387000000000029 -1 0 0
3283 3 92.41499999999999 13.994970525157996 0 -1 0 0
3281 1 93.93 13.120284867335002 0.8387000000000029 -1 0 0
3291 3 95.445 13.994970525157996 0 -1 0 0
3289 1 96.96000000000001 13.120284867335002 0.8387000000000029 -1 0 0
3299 3 98.475 13.994970525157996 0 -1 0 0
3300 3 0 16.619027498625 0 0 0 0
3306 1 1.5150000000000006 15.744341840801994 0.8387000000000029 0 0 0
3308 3 3.030000000000001 16.619027498625 0 0 0 0
3314 1 4.545000000000002 15.744341840801994 0.8387000000000029 0 0 0
3316 3 6.060000000000002 16.619027498625 0 0 0 0
3322 1 7.575000000000003 15.744341840801994 0.8387000000000029 0 0 0
3324 3 9.090000000000003 16.619027498625 0 0 0 0
3330 1 10.605000000000004 15.744341840801994 0.8387000000000029 0 0 0
3332 3 12.120000000000005 16.619027498625 0 0 0 0
3338 1 13.635000000000005 15.744341840801994 0.8387000000000029 0 0 0
3340 3 15.149999999999999 16.619027498625 0 0 0 0
3346 1 16.665 15.744341840801994 0.8387000000000029 0 0 0
3348 3 18.18 16.619027498625 0 0 0 0
3354 1 19.695 15.744341840801994 0.8387000000000029 0 0 0
3356 3 21.21 16.619027498625 0 0 0 0
3362 1 22.725 15.744341840801994 0.8387000000000029 0 0 0
3364 3 24.240000000000002 16.619027498625 0 0 0 0
3370 1 25.755000000000003 15.744341840801994 0.8387000000000029 0 0 0
3372 3 27.270000000000003 16.619027498625 0 0 0 0
3378 1 28.785000000000004 15.744341840801994 0.8387000000000029 0 0 0
3380 3 30.300000000000004 16.619027498625 0 0 0 0
3386 1 31.815000000000005 15.744341840801994 0.8387000000000029 0 0 0
3388 3 33.330000000000005 16.619027498625 0 0 0 0
3394 1 34.845000000000006 15.744341840801994 0.8387000000000029 0 0 0
3396 3 36.36000000000001 16.619027498625 0 0 0 0
3402 1 37.87500000000001 15.744341840801994 0.8387000000000029 0 0 0
3404 3 39.39000000000001 16.619027498625 0 0 0 0
3410 1 40.90500000000001 15.744341840801994 0.8387000000000029 0 0 0
3412 3 42.42000000000001 16.619027498625 0 0 0 0
3418 1 43.93500000000001 15.744341840801994 0.8387000000000029 0 0 0
3420 3 45.449999999999996 16.619027498625 0 0 0 0
3426 1 46.964999999999996 15.744341840801994 0.8387000000000029 0 0 0
3428 3 48.48 16.619027498625 0 0 0 0
3170 1 49.995 15.744341840801994 0.8387000000000029 -1 0 0
3172 3 51.51 16.619027498625 0 -1 0 0
3178 1 53.025 15.744341840801994 0.8387000000000029 -1 0 0
3180 3 54.54 16.619027498625 0 -1 0 0
3186 1 56.055 15.744341840801994 0.8387000000000029 -1 0 0
3188 3 57.57 16.619027498625 0 -1 0 0
3194 1 59.084999999999994 15.744341840801994 0.8387000000000029 -1 0 0
3196 3 60.599999999999994 16.619027498625 0 -1 0 0
3202 1 62.114999999999995 15.744341840801994 0.8387000000000029 -1 0 0
3204 3 63.629999999999995 16.619027498625 0 -1 0 0
3210 1 65.145 15.744341840801994 0.8387000000000029 -1 0 0
3212 3 66.66 16.619027498625 0 -1 0 0
3218 1 68.175 15.744341840801994 0.8387000000000029 -1 0 0
3220 3 69.69 16.619027498625 0 -1 0 0
3226 1 71.205 15.744341840801994 0.8387000000000029 -1 0 0
3228 3 72.72 16.619027498625 0 -1 0 0
3234 1 74.235 15.744341840801994 0.8387000000000029 -1 0 0
3236 3 75.75 16.619027498625 0 -1 0 0
3242 1 77.265 15.744341840801994 0.8387000000000029 -1 0 0
3244 3 78.78 16.619027498625 0 -1 0 0
3250 1 80.295 15.744341840801994 0.8387000000000029 -1 0 0
3252 3 81.81 16.619027498625 0 -1 0 0
3258 1 83.32499999999999 15.744341840801994 0.8387000000000029 -1 0 0
3260 3 84.84 16.619027498625 0 -1 0 0
3266 1 86.35499999999999 15.744341840801994 0.8387000000000029 -1 0 0
3268 3 87.87 16.619027498625 0 -1 0 0
3274 1 89.38499999999999 15.744341840801994 0.8387000000000029 -1 0 0
3276 3 90.9 16.619027498625 0 -1 0 0
3282 1 92.41499999999999 15.744341840801994 0.8387000000000029 -1 0 0
3284 3 93.93 16.619027498625 0 -1 0 0
3290 1 95.445 15.744341840801994 0.8387000000000029 -1 0 0
3292 3 96.96000000000001 16.619027498625 0 -1 0 0
3298 1 98.475 15.744341840801994 0.8387000000000029 -1 0 0
3561 1 0 18.368398814269 0.8387000000000029 0 0 0
3569 1 3.030000000000001 18.368398814269 0.8387000000000029 0 0 0
3577 1 6.060000000000002 18.368398814269 0.8387000000000029 0 0 0
3585 1 9.090000000000003 18.368398814269 0.8387000000000029 0 0 0
3593 1 12.120000000000005 18.368398814269 0.8387000000000029 0 0 0
3601 1 15.149999999999999 18.368398814269 0.8387000000000029 0 0 0
3609 1 18.18 18.368398814269 0.8387000000000029 0 0 0
3617 1 21.21 18.368398814269 0.8387000000000029 0 0 0
3625 1 24.240000000000002 18.368398814269 0.8387000000000029 0 0 0
3633 1 27.270000000000003 18.368398814269 0.8387000000000029 0 0 0
3641 1 30.300000000000004 18.368398814269 0.8387000000000029 0 0 0
3649 1 33.330000000000005 18.368398814269 0.8387000000000029 0 0 0
3657 1 36.36000000000001 18.368398814269 0.8387000000000029 0 0 0
3665 1 39.39000000000001 18.368398814269 0.8387000000000029 0 0 0
3673 1 42.42000000000001 18.368398814269 0.8387000000000029 0 0 0
3681 1 45.449999999999996 18.368398814269 0.8387000000000029 0 0 0
3689 1 48.48 18.368398814269 0.8387000000000029 0 0 0
3433 1 51.51 18.368398814269 0.8387000000000029 -1 0 0
3441 1 54.54 18.368398814269 0.8387000000000029 -1 0 0
3449 1 57.57 18.368398814269 0.8387000000000029 -1 0 0
3457 1 60.599999999999994 18.368398814269 0.8387000000000029 -1 0 0
3465 1 63.629999999999995 18.368398814269 0.8387000000000029 -1 0 0
3473 1 66.66 18.368398814269 0.8387000000000029 -1 0 0
3481 1 69.69 18.368398814269 0.8387000000000029 -1 0 0
3489 1 72.72 18.368398814269 0.8387000000000029 -1 0 0
3497 1 75.75 18.368398814269 0.8387000000000029 -1 0 0
3505 1 78.78 18.368398814269 0.8387000000000029 -1 0 0
3513 1 81.81 18.368398814269 0.8387000000000029 -1 0 0
3521 1 84.84 18.368398814269 0.8387000000000029 -1 0 0
3529 1 87.87 18.368398814269 0.8387000000000029 -1 0 0
3537 1 90.9 18.368398814269 0.8387000000000029 -1 0 0
3545 1 93.93 18.368398814269 0.8387000000000029 -1 0 0
3553 1 96.96000000000001 18.368398814269 0.8387000000000029 -1 0 0
3571 3 1.5150000000000006 19.243084472091994 0 0 0 0
3579 3 4.545000000000002 19.243084472091994 0 0 0 0
3587 3 7.575000000000003 19.243084472091994 0 0 0 0
3595 3 10.605000000000004 19.243084472091994 0 0 0 0
3603 3 13.635000000000005 19.243084472091994 0 0 0 0
3611 3 16.665 19.243084472091994 0 0 0 0
3619 3 19.695 19.243084472091994 0 0 0 0
3627 3 22.725 19.243084472091994 0 0 0 0
3635 3 25.755000000000003 19.243084472091994 0 0 0 0
3643 3 28.785000000000004 19.243084472091994 0 0 0 0
3651 3 31.815000000000005 19.243084472091994 0 0 0 0
3659 3 34.845000000000006 19.243084472091994 0 0 0 0
3667 3 37.87500000000001 19.243084472091994 0 0 0 0
3675 3 40.90500000000001 19.243084472091994 0 0 0 0
3683 3 43.93500000000001 19.243084472091994 0 0 0 0
3691 3 46.964999999999996 19.243084472091994 0 0 0 0
3435 3 49.995 19.243084472091994 0 -1 0 0
3443 3 53.025 19.243084472091994 0 -1 0 0
3451 3 56.055 19.243084472091994 0 -1 0 0
3459 3 59.084999999999994 19.243084472091994 0 -1 0 0
3467 3 62.114999999999995 19.243084472091994 0 -1 0 0
3475 3 65.145 19.243084472091994 0 -1 0 0
3483 3 68.175 19.243084472091994 0 -1 0 0
3491 3 71.205 19.243084472091994 0 -1 0 0
3499 3 74.235 19.243084472091994 0 -1 0 0
3507 3 77.265 19.243084472091994 0 -1 0 0
3515 3 80.295 19.243084472091994 0 -1 0 0
3523 3 83.32499999999999 19.243084472091994 0 -1 0 0
3531 3 86.35499999999999 19.243084472091994 0 -1 0 0
3539 3 89.38499999999999 19.243084472091994 0 -1 0 0
3547 3 92.41499999999999 19.243084472091994 0 -1 0 0
3555 3 95.445 19.243084472091994 0 -1 0 0
3563 3 98.475 19.243084472091994 0 -1 0 0
3570 1 1.5150000000000006 20.992455787736006 0.8387000000000029 0 0 0
3578 1 4.545000000000002 20.992455787736006 0.8387000000000029 0 0 0
3586 1 7.575000000000003 20.992455787736006 0.8387000000000029 0 0 0
3594 1 10.605000000000004 20.992455787736006 0.8387000000000029 0 0 0
3602 1 13.635000000000005 20.992455787736006 0.8387000000000029 0 0 0
3610 1 16.665 20.992455787736006 0.8387000000000029 0 0 0
3618 1 19.695 20.992455787736006 0.8387000000000029 0 0 0
3626 1 22.725 20.992455787736006 0.8387000000000029 0 0 0
3634 1 25.755000000000003 20.992455787736006 0.8387000000000029 0 0 0
3642 1 28.785000000000004 20.992455787736006 0.8387000000000029 0 0 0
3650 1 31.815000000000005 20.992455787736006 0.8387000000000029 0 0 0
3658 1 34.845000000000006 20.992455787736006 0.8387000000000029 0 0 0
3666 1 37.87500000000001 20.992455787736006 0.8387000000000029 0 0 0
3674 1 40.90500000000001 20.992455787736006 0.8387000000000029 0 0 0
3682 1 43.93500000000001 20.992455787736006 0.8387000000000029 0 0 0
3690 1 46.964999999999996 20.992455787736006 0.8387000000000029 0 0 0
3434 1 49.995 20.992455787736006 0.8387000000000029 -1 0 0
3442 1 53.025 20.992455787736006 0.8387000000000029 -1 0 0
3450 1 56.055 20.992455787736006 0.8387000000000029 -1 0 0
3458 1 59.084999999999994 20.992455787736006 0.8387000000000029 -1 0 0
3466 1 62.114999999999995 20.992455787736006 0.8387000000000029 -1 0 0