LAMMPS data file via write_data, version 29 Aug 2024, timestep = 1, units = metal

10032 atoms
8 atom types

0 99.99 xlo xhi
0 99.714164991746 ylo yhi
-50 113.03747107679314 zlo zhi

Masses

1 10.81
2 10.81
3 10.81
4 10.81
5 32.06
6 32.06
7 32.06
8 32.06

Atoms # atomic

2514 1 1.5149990222904401 7.123793843852255e-07 0.8397446939827943 0 0 0
2516 5 3.0299988778451543 0.8746855374553023 0.00022997843356056423 0 0 0
2522 1 4.544999022290441 7.123793843851766e-07 0.8397446939827943 0 0 0
2777 1 3.0299990222904407 2.6240576858463833 0.8397446939827945 0 0 0
2779 5 1.514998877845154 3.4987425109223014 0.00022997843356056415 0 0 0
2787 5 4.544998877845155 3.4987425109223014 0.00022997843356056433 0 0 0
2778 1 1.5149990222904401 5.248114659313382 0.8397446939827945 0 0 0
2786 1 4.544999022290441 5.248114659313382 0.8397446939827945 0 0 0
2524 5 6.059998877845156 0.8746855374553023 0.00022997843356056447 0 0 0
2530 1 7.574999022290442 7.123793843852255e-07 0.8397446939827943 0 0 0
2532 5 9.089998877845156 0.8746855374553023 0.0002299784335605644 0 0 0
2538 1 10.604999022290444 7.123793843852255e-07 0.8397446939827943 0 0 0
2785 1 6.059999022290442 2.6240576858463833 0.8397446939827945 0 0 0
2793 1 9.089999022290444 2.6240576858463833 0.8397446939827945 0 0 0
2795 5 7.5749988778451565 3.4987425109223014 0.00022997843356056452 0 0 0
2803 5 10.604998877845157 3.4987425109223014 0.00022997843356056428 0 0 0
2794 1 7.574999022290442 5.248114659313382 0.8397446939827945 0 0 0
2802 1 10.604999022290444 5.248114659313382 0.8397446939827945 0 0 0
2540 5 12.119998877845157 0.8746855374553022 0.00022997843356065554 0 0 0
2546 1 13.634999022290442 7.123793835100787e-07 0.8397446939827952 0 0 0
2548 5 15.149998877845155 0.8746855374553032 0.00022997843355964886 0 0 0
2554 1 16.664999022290438 7.123793844805502e-07 0.8397446939827942 0 0 0
2801 1 12.119999022290445 2.6240576858463833 0.8397446939827944 0 0 0
2809 1 15.14999902229044 2.6240576858463824 0.8397446939827954 0 0 0
2811 5 13.634998877845156 3.4987425109223023 0.00022997843355964878 0 0 0
2819 5 16.664998877845154 3.4987425109223014 0.00022997843356065546 0 0 0
2810 1 13.634999022290442 5.248114659313381 0.8397446939827954 0 0 0
2818 1 16.664999022290438 5.248114659313382 0.8397446939827944 0 0 0
2556 5 18.179998877845154 0.8746855374553023 0.00022997843356056428 0 0 0
2562 1 19.69499902229044 7.123793843854213e-07 0.8397446939827943 0 0 0
2564 5 21.209998877845155 0.8746855374553023 0.00022997843356056458 0 0 0
2570 1 22.72499902229044 7.123793843853234e-07 0.8397446939827943 0 0 0
2817 1 18.17999902229044 2.6240576858463833 0.8397446939827945 0 0 0
2825 1 21.20999902229044 2.6240576858463833 0.8397446939827945 0 0 0
2827 5 19.694998877845155 3.4987425109223014 0.00022997843356056428 0 0 0
2835 5 22.724998877845156 3.4987425109223014 0.00022997843356056458 0 0 0
2826 1 19.69499902229044 5.248114659313382 0.8397446939827945 0 0 0
2834 1 22.72499902229044 5.248114659313382 0.8397446939827945 0 0 0
2572 5 24.239998877845156 0.8746855374553023 0.00022997843356056477 0 0 0
2578 1 25.75499902229044 7.123793843852255e-07 0.8397446939827943 0 0 0
2580 5 27.269998877845158 0.8746855374553023 0.00022997843356056444 0 0 0
2586 1 28.784999022290442 7.123793843852744e-07 0.8397446939827943 0 0 0
2833 1 24.23999902229044 2.6240576858463833 0.8397446939827945 0 0 0
2841 1 27.269999022290442 2.6240576858463833 0.8397446939827945 0 0 0
2843 5 25.754998877845157 3.4987425109223014 0.00022997843356056444 0 0 0
2851 5 28.784998877845158 3.4987425109223014 0.00022997843356056415 0 0 0
2842 1 25.75499902229044 5.248114659313382 0.8397446939827945 0 0 0
2850 1 28.784999022290442 5.248114659313382 0.8397446939827945 0 0 0
2588 5 30.29999887784516 0.8746855374553023 0.0002299784335605642 0 0 0
2594 1 31.814999022290444 7.123793843852255e-07 0.8397446939827943 0 0 0
2596 5 33.329998877845156 0.8746855374553023 0.0002299784335605642 0 0 0
2602 1 34.844999022290445 7.123793843852744e-07 0.8397446939827943 0 0 0
2849 1 30.299999022290443 2.6240576858463833 0.8397446939827945 0 0 0
2857 1 33.329999022290444 2.6240576858463833 0.8397446939827945 0 0 0
2859 5 31.81499887784516 3.4987425109223014 0.00022997843356056398 0 0 0
2867 5 34.84499887784516 3.4987425109223014 0.00022997843356056423 0 0 0
2858 1 31.814999022290444 5.248114659313382 0.8397446939827945 0 0 0
2866 1 34.844999022290445 5.248114659313382 0.8397446939827945 0 0 0
2604 5 36.35999887784516 0.8746855374553023 0.00022997843356056458 0 0 0
2610 1 37.874999022290446 7.123793843853724e-07 0.8397446939827943 0 0 0
2612 5 39.38999887784516 0.8746855374553023 0.00022997843356056488 0 0 0
2618 1 40.90499902229045 7.123793843853234e-07 0.8397446939827943 0 0 0
2865 1 36.359999022290445 2.6240576858463833 0.8397446939827945 0 0 0
2873 1 39.389999022290446 2.6240576858463833 0.8397446939827945 0 0 0
2875 5 37.87499887784516 3.4987425109223014 0.00022997843356056463 0 0 0
2883 5 40.90499887784516 3.4987425109223014 0.0002299784335605647 0 0 0
2874 1 37.874999022290446 5.248114659313382 0.8397446939827945 0 0 0
2882 1 40.90499902229045 5.248114659313382 0.8397446939827945 0 0 0
2620 5 42.41999887784516 0.8746855374553021 0.0002299784335607472 0 0 0
2626 1 43.93499902229045 7.123793826309681e-07 0.839744693982796 0 0 0
2628 5 45.449998877845154 0.8746855374553041 0.00022997843355872634 0 0 0
2634 1 46.964999022290435 7.123793845758259e-07 0.839744693982794 0 0 0
2881 1 42.41999902229045 2.6240576858463833 0.8397446939827943 0 0 0
2889 1 45.44999902229044 2.6240576858463815 0.8397446939827963 0 0 0
2891 5 43.93499887784516 3.498742510922303 0.00022997843355872626 0 0 0
2899 5 46.96499887784515 3.498742510922301 0.00022997843356074686 0 0 0
2890 1 43.93499902229045 5.24811465931338 0.8397446939827963 0 0 0
2898 1 46.964999022290435 5.248114659313383 0.8397446939827943 0 0 0
2636 5 48.47999887784515 0.8746855374553023 0.00022997843356056428 0 0 0
2378 1 49.994999022290436 7.123793843852744e-07 0.8397446939827943 -1 0 0
2380 5 51.50999887784515 0.8746855374553023 0.0002299784335605642 -1 0 0
2897 1 48.479999022290436 2.6240576858463833 0.8397446939827945 0 0 0
2641 1 51.50999902229044 2.6240576858463833 0.8397446939827945 -1 0 0
2643 5 49.99499887784515 3.4987425109223014 0.0002299784335605642 -1 0 0
2642 1 49.994999022290436 5.248114659313382 0.8397446939827945 -1 0 0
2386 1 53.02499902229044 7.123793843852744e-07 0.8397446939827943 -1 0 0
2388 5 54.53999887784515 0.8746855374553023 0.00022997843356056428 -1 0 0
2394 1 56.05499902229044 7.123793844805991e-07 0.8397446939827942 -1 0 0
2396 5 57.56999887784515 0.8746855374553032 0.00022997843355964878 -1 0 0
2649 1 54.53999902229044 2.6240576858463833 0.8397446939827945 -1 0 0
2657 1 57.56999902229044 2.6240576858463824 0.8397446939827954 -1 0 0
2651 5 53.02499887784515 3.4987425109223014 0.0002299784335605642 -1 0 0
2659 5 56.05499887784515 3.4987425109223014 0.00022997843356065546 -1 0 0
2650 1 53.02499902229044 5.248114659313382 0.8397446939827945 -1 0 0
2658 1 56.05499902229044 5.248114659313382 0.8397446939827944 -1 0 0
2402 1 59.08499902229043 7.123793835100298e-07 0.8397446939827952 -1 0 0
2404 5 60.599998877845145 0.8746855374553022 0.0002299784335606555 -1 0 0
2410 1 62.114999022290434 7.123793843852255e-07 0.8397446939827943 -1 0 0
2412 5 63.629998877845146 0.8746855374553023 0.00022997843356056415 -1 0 0
2665 1 60.59999902229043 2.6240576858463833 0.8397446939827944 -1 0 0
2673 1 63.629999022290434 2.6240576858463833 0.8397446939827945 -1 0 0
2667 5 59.08499887784515 3.4987425109223023 0.00022997843355964873 -1 0 0
2675 5 62.114998877845146 3.4987425109223014 0.0002299784335605641 -1 0 0
2666 1 59.08499902229043 5.248114659313381 0.8397446939827954 -1 0 0
2674 1 62.114999022290434 5.248114659313382 0.8397446939827945 -1 0 0
2418 1 65.14499902229043 7.123793843851766e-07 0.8397446939827943 -1 0 0
2420 5 66.65999887784515 0.8746855374553023 0.00022997843356056452 -1 0 0
2426 1 68.17499902229044 7.123793843853234e-07 0.8397446939827943 -1 0 0
2428 5 69.68999887784516 0.8746855374553023 0.00022997843356056477 -1 0 0
2681 1 66.65999902229044 2.6240576858463833 0.8397446939827945 -1 0 0
2689 1 69.68999902229044 2.6240576858463833 0.8397446939827945 -1 0 0
2683 5 65.14499887784515 3.4987425109223014 0.00022997843356056423 -1 0 0
2691 5 68.17499887784516 3.4987425109223014 0.0002299784335605647 -1 0 0
2682 1 65.14499902229043 5.248114659313382 0.8397446939827945 -1 0 0
2690 1 68.17499902229044 5.248114659313382 0.8397446939827945 -1 0 0
2434 1 71.20499902229044 7.123793843851766e-07 0.8397446939827943 -1 0 0
2436 5 72.71999887784516 0.8746855374553023 0.00022997843356056458 -1 0 0
2442 1 74.23499902229044 7.123793843853234e-07 0.8397446939827943 -1 0 0
2444 5 75.74999887784516 0.8746855374553023 0.00022997843356056423 -1 0 0
2697 1 72.71999902229044 2.6240576858463833 0.8397446939827945 -1 0 0
2705 1 75.74999902229044 2.6240576858463833 0.8397446939827945 -1 0 0
2699 5 71.20499887784516 3.4987425109223014 0.00022997843356056471 -1 0 0
2707 5 74.23499887784516 3.4987425109223014 0.00022997843356056433 -1 0 0
2698 1 71.20499902229044 5.248114659313382 0.8397446939827945 -1 0 0
2706 1 74.23499902229044 5.248114659313382 0.8397446939827945 -1 0 0
2450 1 77.26499902229044 7.123793843853234e-07 0.8397446939827943 -1 0 0
2452 5 78.77999887784516 0.8746855374553023 0.00022997843356056428 -1 0 0
2458 1 80.29499902229044 7.123793845758259e-07 0.839744693982794 -1 0 0
2460 5 81.80999887784515 0.8746855374553043 0.00022997843355854357 -1 0 0
2713 1 78.77999902229044 2.6240576858463833 0.8397446939827945 -1 0 0
2721 1 81.80999902229044 2.624057685846381 0.8397446939827965 -1 0 0
2715 5 77.26499887784516 3.4987425109223014 0.0002299784335605642 -1 0 0
2723 5 80.29499887784516 3.498742510922301 0.00022997843356074686 -1 0 0
2714 1 77.26499902229044 5.248114659313382 0.8397446939827945 -1 0 0
2722 1 80.29499902229044 5.248114659313383 0.8397446939827943 -1 0 0
2466 1 83.32499902229044 7.123793846166374e-07 0.839744693982794 -1 0 0
2468 5 84.83999887784515 0.8746855374553023 0.00022997843356058184 -1 0 0
2474 1 86.35499902229044 7.123793844259391e-07 0.8397446939827942 -1 0 0
2476 5 87.86999887784515 0.8746855374553023 0.00022997843356058176 -1 0 0
2729 1 84.83999902229043 2.6240576858463833 0.8397446939827945 -1 0 0
2737 1 87.86999902229043 2.6240576858463833 0.8397446939827945 -1 0 0
2731 5 83.32499887784515 3.498742510922301 0.00022997843356076437 -1 0 0
2739 5 86.35499887784515 3.4987425109223014 0.00022997843356058166 -1 0 0
2730 1 83.32499902229044 5.248114659313383 0.8397446939827943 -1 0 0
2738 1 86.35499902229044 5.248114659313382 0.8397446939827945 -1 0 0
2482 1 89.38499902229044 7.12379384426086e-07 0.8397446939827942 -1 0 0
2484 5 90.89999887784515 0.8746855374553023 0.00022997843356058184 -1 0 0
2490 1 92.41499902229044 7.123793844259391e-07 0.8397446939827942 -1 0 0
2492 5 93.92999887784515 0.8746855374553023 0.00022997843356058176 -1 0 0
2745 1 90.89999902229043 2.6240576858463833 0.8397446939827945 -1 0 0
2753 1 93.92999902229043 2.6240576858463833 0.8397446939827945 -1 0 0
2747 5 89.38499887784515 3.4987425109223014 0.0002299784335605817 -1 0 0
2755 5 92.41499887784515 3.4987425109223014 0.00022997843356058166 -1 0 0
2746 1 89.38499902229044 5.248114659313382 0.8397446939827945 -1 0 0
2754 1 92.41499902229044 5.248114659313382 0.8397446939827945 -1 0 0
2508 5 99.98999887784515 0.8746855374553021 0.00022997843356074697 -1 0 0
2769 1 99.98999902229043 2.6240576858463833 0.8397446939827943 -1 0 0
2498 1 95.44499902229045 7.12379384426086e-07 0.8397446939827942 -1 0 0
2500 5 96.95999887784515 0.8746855374553021 0.00022997843356076453 -1 0 0
2506 1 98.47499902229043 7.123793824402669e-07 0.8397446939827963 -1 0 0
2761 1 96.95999902229043 2.6240576858463833 0.8397446939827943 -1 0 0
2763 5 95.44499887784515 3.4987425109223014 0.0002299784335605817 -1 0 0
2771 5 98.47499887784515 3.498742510922303 0.00022997843355854357 -1 0 0
2762 1 95.44499902229045 5.248114659313382 0.8397446939827945 -1 0 0
2770 1 98.47499902229043 5.24811465931338 0.8397446939827965 -1 0 0
2780 5 3.0299988778451543 6.1227994843893 0.00022997843356056404 0 0 0
3043 5 1.514998877845154 8.746856457856302 0.00022997843356183673 0 0 0
3041 1 3.0299990222904407 7.872171632780382 0.8397446939827946 0 0 0
3051 5 4.544998877845155 8.746856457856302 0.00022997843356183692 0 0 0
3042 1 1.5149990222904401 10.496228606247382 0.8397446939827947 0 0 0
3050 1 4.544999022290441 10.496228606247382 0.8397446939827947 0 0 0
3044 5 3.0299988778451543 11.370913431323304 0.00022997843356051742 0 0 0
2788 5 6.059998877845156 6.1227994843893 0.0002299784335605644 0 0 0
2796 5 9.089998877845156 6.1227994843893 0.00022997843356056423 0 0 0
3049 1 6.059999022290442 7.872171632780382 0.8397446939827946 0 0 0
3059 5 7.5749988778451565 8.746856457856302 0.00022997843356183713 0 0 0
3057 1 9.089999022290444 7.872171632780382 0.8397446939827946 0 0 0
3067 5 10.604998877845157 8.746856457856302 0.00022997843356183692 0 0 0
3058 1 7.574999022290442 10.496228606247382 0.8397446939827947 0 0 0
3066 1 10.604999022290444 10.496228606247382 0.8397446939827947 0 0 0
3052 5 6.059998877845156 11.370913431323304 0.00022997843356051755 0 0 0
3060 5 9.089998877845156 11.370913431323304 0.0002299784335605175 0 0 0
2804 5 12.119998877845157 6.1227994843893 0.00022997843356065546 0 0 0
2812 5 15.149998877845155 6.122799484389301 0.00022997843355964867 0 0 0
3065 1 12.119999022290445 7.872171632780382 0.8397446939827945 0 0 0
3075 5 13.634998877845156 8.746856457856303 0.00022997843356092372 0 0 0
3073 1 15.14999902229044 7.872171632780381 0.8397446939827955 0 0 0
3083 5 16.664998877845154 8.746856457856302 0.0002299784335619281 0 0 0
3074 1 13.634999022290442 10.496228606247382 0.8397446939827957 0 0 0
3082 1 16.664999022290438 10.496228606247382 0.8397446939827947 0 0 0
3068 5 12.119998877845157 11.370913431323304 0.00022997843356060754 0 0 0
3076 5 15.149998877845155 11.370913431323304 0.0002299784335595946 0 0 0
2820 5 18.179998877845154 6.1227994843893 0.00022997843356056415 0 0 0
2828 5 21.209998877845155 6.1227994843893 0.0002299784335605644 0 0 0
3081 1 18.17999902229044 7.872171632780382 0.8397446939827946 0 0 0
3091 5 19.694998877845155 8.746856457856302 0.0002299784335618369 0 0 0
3089 1 21.20999902229044 7.872171632780382 0.8397446939827946 0 0 0
3099 5 22.724998877845156 8.746856457856302 0.00022997843356183722 0 0 0
3090 1 19.69499902229044 10.496228606247382 0.8397446939827947 0 0 0
3098 1 22.72499902229044 10.496228606247382 0.8397446939827947 0 0 0
3084 5 18.179998877845154 11.370913431323304 0.00022997843356051736 0 0 0
3092 5 21.209998877845155 11.370913431323304 0.0002299784335605176 0 0 0
2836 5 24.239998877845156 6.1227994843893 0.00022997843356056463 0 0 0
2844 5 27.269998877845158 6.1227994843893 0.00022997843356056423 0 0 0
3097 1 24.23999902229044 7.872171632780382 0.8397446939827946 0 0 0
3107 5 25.754998877845157 8.746856457856302 0.00022997843356183713 0 0 0
3105 1 27.269999022290442 7.872171632780382 0.8397446939827946 0 0 0
3115 5 28.784998877845158 8.746856457856302 0.00022997843356183678 0 0 0
3106 1 25.75499902229044 10.496228606247382 0.8397446939827947 0 0 0
3114 1 28.784999022290442 10.496228606247382 0.8397446939827947 0 0 0
3100 5 24.239998877845156 11.370913431323304 0.00022997843356051785 0 0 0
3108 5 27.269998877845158 11.370913431323304 0.0002299784335605175 0 0 0
2852 5 30.29999887784516 6.1227994843893 0.00022997843356056398 0 0 0
2860 5 33.329998877845156 6.1227994843893 0.00022997843356056398 0 0 0
3113 1 30.299999022290443 7.872171632780382 0.8397446939827946 0 0 0
3123 5 31.81499887784516 8.746856457856302 0.00022997843356183665 0 0 0
3121 1 33.329999022290444 7.872171632780382 0.8397446939827946 0 0 0
3131 5 34.84499887784516 8.746856457856302 0.00022997843356183684 0 0 0
3122 1 31.814999022290444 10.496228606247382 0.8397446939827947 0 0 0
3130 1 34.844999022290445 10.496228606247382 0.8397446939827947 0 0 0
3116 5 30.29999887784516 11.370913431323304 0.0002299784335605172 0 0 0
3124 5 33.329998877845156 11.370913431323304 0.0002299784335605172 0 0 0
2868 5 36.35999887784516 6.1227994843893 0.0002299784335605644 0 0 0
2876 5 39.38999887784516 6.1227994843893 0.00022997843356056471 0 0 0
3129 1 36.359999022290445 7.872171632780382 0.8397446939827946 0 0 0
3139 5 37.87499887784516 8.746856457856302 0.00022997843356183722 0 0 0
3137 1 39.389999022290446 7.872171632780382 0.8397446939827946 0 0 0
3147 5 40.90499887784516 8.746856457856302 0.00022997843356183732 0 0 0
3138 1 37.874999022290446 10.496228606247382 0.8397446939827947 0 0 0
3146 1 40.90499902229045 10.496228606247382 0.8397446939827947 0 0 0
3132 5 36.35999887784516 11.370913431323304 0.0002299784335605176 0 0 0
3140 5 39.38999887784516 11.370913431323304 0.00022997843356051796 0 0 0
2884 5 42.41999887784516 6.1227994843893 0.0002299784335607471 0 0 0
2892 5 45.449998877845154 6.122799484389302 0.0002299784335587261 0 0 0
3145 1 42.41999902229045 7.872171632780382 0.8397446939827944 0 0 0
3155 5 43.93499887784516 8.746856457856303 0.00022997843356000242 0 0 0
3153 1 45.44999902229044 7.87217163278038 0.8397446939827964 0 0 0
3163 5 46.96499887784515 8.746856457856302 0.00022997843356201944 0 0 0
3154 1 43.93499902229045 10.49622860624738 0.8397446939827966 0 0 0
3162 1 46.964999022290435 10.496228606247382 0.8397446939827946 0 0 0
3148 5 42.41999887784516 11.370913431323304 0.00022997843356070027 0 0 0
3156 5 45.449998877845154 11.370913431323306 0.00022997843355872146 0 0 0
2900 5 48.47999887784515 6.1227994843893 0.0002299784335605641 0 0 0
2644 5 51.50999887784515 6.1227994843893 0.0002299784335605641 -1 0 0
3161 1 48.479999022290436 7.872171632780382 0.8397446939827946 0 0 0
2907 5 49.99499887784515 8.746856457856302 0.00022997843356183678 -1 0 0
2905 1 51.50999902229044 7.872171632780382 0.8397446939827946 -1 0 0
2906 1 49.994999022290436 10.496228606247382 0.8397446939827947 -1 0 0
3164 5 48.47999887784515 11.370913431323304 0.00022997843356051736 0 0 0
2908 5 51.50999887784515 11.370913431323304 0.0002299784335605173 -1 0 0
2652 5 54.53999887784515 6.1227994843893 0.0002299784335605641 -1 0 0
2660 5 57.56999887784515 6.122799484389301 0.00022997843355964867 -1 0 0
2915 5 53.02499887784515 8.746856457856302 0.00022997843356183673 -1 0 0
2913 1 54.53999902229044 7.872171632780382 0.8397446939827946 -1 0 0
2923 5 56.05499887784515 8.746856457856302 0.0002299784335619281 -1 0 0
2921 1 57.56999902229044 7.872171632780381 0.8397446939827955 -1 0 0
2914 1 53.02499902229044 10.496228606247382 0.8397446939827947 -1 0 0
2922 1 56.05499902229044 10.496228606247382 0.8397446939827947 -1 0 0
2916 5 54.53999887784515 11.370913431323304 0.00022997843356051736 -1 0 0
2924 5 57.56999887784515 11.370913431323304 0.0002299784335595946 -1 0 0
2668 5 60.599998877845145 6.1227994843893 0.00022997843356065535 -1 0 0
2676 5 63.629998877845146 6.1227994843893 0.00022997843356056404 -1 0 0
2931 5 59.08499887784515 8.746856457856303 0.0002299784335609236 -1 0 0
2929 1 60.59999902229043 7.872171632780382 0.8397446939827945 -1 0 0
2939 5 62.114998877845146 8.746856457856302 0.00022997843356183665 -1 0 0
2937 1 63.629999022290434 7.872171632780382 0.8397446939827946 -1 0 0
2930 1 59.08499902229043 10.496228606247382 0.8397446939827957 -1 0 0
2938 1 62.114999022290434 10.496228606247382 0.8397446939827947 -1 0 0
2932 5 60.599998877845145 11.370913431323304 0.00022997843356060746 -1 0 0
2940 5 63.629998877845146 11.370913431323304 0.00022997843356051725 -1 0 0
2684 5 66.65999887784515 6.1227994843893 0.0002299784335605644 -1 0 0
2692 5 69.68999887784516 6.1227994843893 0.00022997843356056471 -1 0 0
2947 5 65.14499887784515 8.746856457856302 0.00022997843356183684 -1 0 0
2945 1 66.65999902229044 7.872171632780382 0.8397446939827946 -1 0 0
2955 5 68.17499887784516 8.746856457856302 0.00022997843356183727 -1 0 0
2953 1 69.68999902229044 7.872171632780382 0.8397446939827946 -1 0 0
2946 1 65.14499902229043 10.496228606247382 0.8397446939827947 -1 0 0
2954 1 68.17499902229044 10.496228606247382 0.8397446939827947 -1 0 0
2948 5 66.65999887784515 11.370913431323304 0.0002299784335605176 -1 0 0
2956 5 69.68999887784516 11.370913431323304 0.00022997843356051796 -1 0 0
2700 5 72.71999887784516 6.1227994843893 0.0002299784335605644 -1 0 0
2708 5 75.74999887784516 6.1227994843893 0.0002299784335605642 -1 0 0
2963 5 71.20499887784516 8.746856457856302 0.00022997843356183738 -1 0 0
2961 1 72.71999902229044 7.872171632780382 0.8397446939827946 -1 0 0
2971 5 74.23499887784516 8.746856457856302 0.00022997843356183697 -1 0 0
2969 1 75.74999902229044 7.872171632780382 0.8397446939827946 -1 0 0
2962 1 71.20499902229044 10.496228606247382 0.8397446939827947 -1 0 0
2970 1 74.23499902229044 10.496228606247382 0.8397446939827947 -1 0 0
2964 5 72.71999887784516 11.370913431323304 0.00022997843356051766 -1 0 0
2972 5 75.74999887784516 11.370913431323304 0.00022997843356051742 -1 0 0
2716 5 78.77999887784516 6.1227994843893 0.0002299784335605642 -1 0 0
2724 5 81.80999887784515 6.1227994843893025 0.0002299784335585435 -1 0 0
2979 5 77.26499887784516 8.746856457856302 0.00022997843356183684 -1 0 0
2977 1 78.77999902229044 7.872171632780382 0.8397446939827946 -1 0 0
2987 5 80.29499887784516 8.746856457856302 0.00022997843356201944 -1 0 0
2985 1 81.80999902229044 7.872171632780379 0.8397446939827966 -1 0 0
2978 1 77.26499902229044 10.496228606247382 0.8397446939827947 -1 0 0
2986 1 80.29499902229044 10.496228606247382 0.8397446939827946 -1 0 0
2980 5 78.77999887784516 11.370913431323304 0.0002299784335605173 -1 0 0
2988 5 81.80999887784515 11.370913431323306 0.00022997843355854108 -1 0 0
2732 5 84.83999887784515 6.1227994843893 0.00022997843356058176 -1 0 0
2740 5 87.86999887784515 6.1227994843893 0.0002299784335605817 -1 0 0
2995 5 83.32499887784515 8.746856457856302 0.00022997843356204386 -1 0 0
2993 1 84.83999902229043 7.872171632780382 0.8397446939827945 -1 0 0
3003 5 86.35499887784515 8.746856457856302 0.0002299784335618612 -1 0 0
3001 1 87.86999902229043 7.872171632780382 0.8397446939827945 -1 0 0
2994 1 83.32499902229044 10.496228606247382 0.8397446939827945 -1 0 0
3002 1 86.35499902229044 10.496228606247382 0.8397446939827946 -1 0 0
2996 5 84.83999887784515 11.370913431323304 0.00022997843356063744 -1 0 0
3004 5 87.86999887784515 11.370913431323304 0.00022997843356063744 -1 0 0
2748 5 90.89999887784515 6.1227994843893 0.00022997843356058176 -1 0 0
2756 5 93.92999887784515 6.1227994843893 0.0002299784335605817 -1 0 0
3011 5 89.38499887784515 8.746856457856302 0.0002299784335618612 -1 0 0
3009 1 90.89999902229043 7.872171632780382 0.8397446939827945 -1 0 0
3019 5 92.41499887784515 8.746856457856302 0.0002299784335618612 -1 0 0
3017 1 93.92999902229043 7.872171632780382 0.8397446939827945 -1 0 0
3010 1 89.38499902229044 10.496228606247382 0.8397446939827946 -1 0 0
3018 1 92.41499902229044 10.496228606247382 0.8397446939827946 -1 0 0
3012 5 90.89999887784515 11.370913431323304 0.00022997843356063744 -1 0 0
3020 5 93.92999887784515 11.370913431323304 0.00022997843356063744 -1 0 0
2772 5 99.98999887784515 6.1227994843893 0.00022997843356074691 -1 0 0
3033 1 99.98999902229043 7.872171632780382 0.8397446939827944 -1 0 0
3036 5 99.98999887784515 11.370913431323304 0.00022997843356070008 -1 0 0
2764 5 96.95999887784515 6.1227994843893 0.00022997843356076442 -1 0 0
3027 5 95.44499887784515 8.746856457856302 0.0002299784335618612 -1 0 0
3025 1 96.95999902229043 7.872171632780382 0.8397446939827944 -1 0 0
3035 5 98.47499887784515 8.746856457856303 0.0002299784335598197 -1 0 0
3026 1 95.44499902229045 10.496228606247382 0.8397446939827946 -1 0 0
3034 1 98.47499902229043 10.49622860624738 0.8397446939827967 -1 0 0
3028 5 96.95999887784515 11.370913431323304 0.00022997843356081782 -1 0 0
3307 5 1.514998877845154 13.9949704047903 0.00022997843355899736 0 0 0
3305 1 3.0299990222904407 13.12028557971438 0.8397446939827945 0 0 0
3315 5 4.544998877845155 13.9949704047903 0.0002299784335589975 0 0 0
3306 1 1.5149990222904401 15.744342553181381 0.8397446939827931 0 0 0
3308 5 3.0299988778451543 16.6190273782573 0.0002299784335619848 0 0 0
3314 1 4.544999022290441 15.744342553181381 0.8397446939827931 0 0 0
3313 1 6.059999022290442 13.12028557971438 0.8397446939827945 0 0 0
3323 5 7.5749988778451565 13.9949704047903 0.00022997843355899764 0 0 0
3321 1 9.089999022290444 13.12028557971438 0.8397446939827945 0 0 0
3331 5 10.604998877845157 13.9949704047903 0.00022997843355899745 0 0 0
3316 5 6.059998877845156 16.6190273782573 0.00022997843356198505 0 0 0
3322 1 7.574999022290442 15.744342553181381 0.8397446939827931 0 0 0
3324 5 9.089998877845156 16.6190273782573 0.00022997843356198496 0 0 0
3330 1 10.604999022290444 15.744342553181381 0.8397446939827931 0 0 0
3329 1 12.119999022290445 13.12028557971438 0.8397446939827944 0 0 0
3339 5 13.634998877845156 13.994970404790301 0.00022997843355807346 0 0 0
3337 1 15.14999902229044 13.12028557971438 0.8397446939827954 0 0 0
3347 5 16.664998877845154 13.9949704047903 0.0002299784335590876 0 0 0
3332 5 12.119998877845157 16.6190273782573 0.00022997843356207734 0 0 0
3338 1 13.634999022290442 15.74434255318138 0.8397446939827939 0 0 0
3340 5 15.149998877845155 16.6190273782573 0.00022997843356105345 0 0 0
3346 1 16.664999022290438 15.744342553181381 0.839744693982793 0 0 0
3345 1 18.17999902229044 13.12028557971438 0.8397446939827945 0 0 0
3355 5 19.694998877845155 13.9949704047903 0.0002299784335589975 0 0 0
3353 1 21.20999902229044 13.12028557971438 0.8397446939827945 0 0 0
3363 5 22.724998877845156 13.9949704047903 0.00022997843355899785 0 0 0
3348 5 18.179998877845154 16.6190273782573 0.00022997843356198486 0 0 0
3354 1 19.69499902229044 15.744342553181381 0.8397446939827931 0 0 0
3356 5 21.209998877845155 16.6190273782573 0.00022997843356198515 0 0 0
3362 1 22.72499902229044 15.744342553181381 0.8397446939827931 0 0 0
3361 1 24.23999902229044 13.12028557971438 0.8397446939827945 0 0 0
3371 5 25.754998877845157 13.9949704047903 0.0002299784335589977 0 0 0
3369 1 27.269999022290442 13.12028557971438 0.8397446939827945 0 0 0
3379 5 28.784998877845158 13.9949704047903 0.0002299784335589974 0 0 0
3364 5 24.239998877845156 16.6190273782573 0.0002299784335619854 0 0 0
3370 1 25.75499902229044 15.744342553181381 0.8397446939827931 0 0 0
3372 5 27.269998877845158 16.6190273782573 0.00022997843356198502 0 0 0
3378 1 28.784999022290442 15.744342553181381 0.8397446939827931 0 0 0
3377 1 30.299999022290443 13.12028557971438 0.8397446939827945 0 0 0
3387 5 31.81499887784516 13.9949704047903 0.00022997843355899726 0 0 0
3385 1 33.329999022290444 13.12028557971438 0.8397446939827945 0 0 0
3395 5 34.84499887784516 13.9949704047903 0.0002299784335589975 0 0 0
3380 5 30.29999887784516 16.6190273782573 0.00022997843356198472 0 0 0
3386 1 31.814999022290444 15.744342553181381 0.8397446939827931 0 0 0
3388 5 33.329998877845156 16.6190273782573 0.00022997843356198472 0 0 0
3394 1 34.844999022290445 15.744342553181381 0.8397446939827931 0 0 0
3393 1 36.359999022290445 13.12028557971438 0.8397446939827945 0 0 0
3403 5 37.87499887784516 13.9949704047903 0.00022997843355899785 0 0 0
3401 1 39.389999022290446 13.12028557971438 0.8397446939827945 0 0 0
3411 5 40.90499887784516 13.9949704047903 0.00022997843355899793 0 0 0
3396 5 36.35999887784516 16.6190273782573 0.0002299784335619851 0 0 0
3402 1 37.874999022290446 15.744342553181381 0.8397446939827931 0 0 0
3404 5 39.38999887784516 16.6190273782573 0.0002299784335619854 0 0 0
3410 1 40.90499902229045 15.744342553181381 0.8397446939827931 0 0 0
3409 1 42.41999902229045 13.12028557971438 0.8397446939827943 0 0 0
3419 5 43.93499887784516 13.994970404790301 0.0002299784335572016 0 0 0
3417 1 45.44999902229044 13.120285579714379 0.8397446939827963 0 0 0
3427 5 46.96499887784515 13.9949704047903 0.00022997843355918013 0 0 0
3412 5 42.41999887784516 16.6190273782573 0.00022997843356216895 0 0 0
3418 1 43.93499902229045 15.74434255318138 0.8397446939827948 0 0 0
3420 5 45.449998877845154 16.619027378257304 0.00022997843356019655 0 0 0
3426 1 46.964999022290435 15.744342553181381 0.8397446939827928 0 0 0
3425 1 48.479999022290436 13.12028557971438 0.8397446939827945 0 0 0
3171 5 49.99499887784515 13.9949704047903 0.00022997843355899745 -1 0 0
3169 1 51.50999902229044 13.12028557971438 0.8397446939827945 -1 0 0
3428 5 48.47999887784515 16.6190273782573 0.0002299784335619848 0 0 0
3170 1 49.994999022290436 15.744342553181381 0.8397446939827931 -1 0 0
3172 5 51.50999887784515 16.6190273782573 0.0002299784335619848 -1 0 0
3179 5 53.02499887784515 13.9949704047903 0.0002299784335589974 -1 0 0
3177 1 54.53999902229044 13.12028557971438 0.8397446939827945 -1 0 0
3187 5 56.05499887784515 13.9949704047903 0.0002299784335590876 -1 0 0
3185 1 57.56999902229044 13.12028557971438 0.8397446939827954 -1 0 0
3178 1 53.02499902229044 15.744342553181381 0.8397446939827931 -1 0 0
3180 5 54.53999887784515 16.6190273782573 0.0002299784335619848 -1 0 0
3186 1 56.05499902229044 15.744342553181381 0.839744693982793 -1 0 0
3188 5 57.56999887784515 16.6190273782573 0.0002299784335610534 -1 0 0
3195 5 59.08499887784515 13.994970404790301 0.00022997843355807338 -1 0 0
3193 1 60.59999902229043 13.12028557971438 0.8397446939827944 -1 0 0
3203 5 62.114998877845146 13.9949704047903 0.00022997843355899726 -1 0 0
3201 1 63.629999022290434 13.12028557971438 0.8397446939827945 -1 0 0
3194 1 59.08499902229043 15.74434255318138 0.8397446939827939 -1 0 0
3196 5 60.599998877845145 16.6190273782573 0.00022997843356207726 -1 0 0
3202 1 62.114999022290434 15.744342553181381 0.8397446939827931 -1 0 0
3204 5 63.629998877845146 16.6190273782573 0.00022997843356198475 -1 0 0
3211 5 65.14499887784515 13.9949704047903 0.00022997843355899745 -1 0 0
3209 1 66.65999902229044 13.12028557971438 0.8397446939827945 -1 0 0
3219 5 68.17499887784516 13.9949704047903 0.00022997843355899785 -1 0 0