LAMMPS data file via write_data, version 29 Aug 2024, timestep = 2, units = metal

15048 atoms
12 atom types

0 99.99 xlo xhi
0 99.714164991746 ylo yhi
-50 120.07494215358626 zlo zhi

Masses

1 10.81
2 10.81
3 10.81
4 10.81
5 10.81
6 10.81
7 32.06
8 32.06
9 32.06
10 32.06
11 32.06
12 32.06

Atoms # atomic

2516 7 3.0299968579490466 0.874686439460215 0.0011623042588750918 0 0 0
2769 1 2.845714768900345e-05 2.6240550085594556 0.8409854782273284 0 0 0
2777 1 3.0300284571476865 2.6240550085594565 0.8409854782273272 0 0 0
2779 7 1.5149968579490465 3.4987434129272135 0.0011623042588754648 0 0 0
2787 7 4.544996857949047 3.498743412927214 0.0011623042588752369 0 0 0
2778 1 1.5150284571476862 5.2481119820264555 0.8409854782273272 0 0 0
2786 1 4.545028457147687 5.2481119820264555 0.8409854782273272 0 0 0
2524 7 6.059996857949048 0.874686439460215 0.0011623042588751098 0 0 0
2532 7 9.08999685794905 0.8746864394602148 0.0011623042588752384 0 0 0
2785 1 6.060028457147688 2.624055008559456 0.8409854782273273 0 0 0
2793 1 9.090028457147689 2.6240550085594565 0.8409854782273272 0 0 0
2795 7 7.574996857949048 3.498743412927214 0.0011623042588753646 0 0 0
2803 7 10.60499685794905 3.498743412927214 0.0011623042588753368 0 0 0
2794 1 7.575028457147688 5.2481119820264555 0.840985478227327 0 0 0
2802 1 10.60502845714769 5.2481119820264555 0.8409854782273274 0 0 0
2540 7 12.11999685794905 0.8746864394602151 0.0011623042588751228 0 0 0
2548 7 15.149996857949047 0.8746864394602157 0.0011623042588738575 0 0 0
2801 1 12.12002845714769 2.624055008559456 0.8409854782273274 0 0 0
2809 1 15.150028457147688 2.624055008559456 0.8409854782273272 0 0 0
2811 7 13.634996857949048 3.4987434129272144 0.001162304258873938 0 0 0
2819 7 16.664996857949046 3.498743412927214 0.0011623042588753474 0 0 0
2810 1 13.635028457147687 5.248111982026455 0.8409854782273273 0 0 0
2818 1 16.665028457147685 5.2481119820264555 0.8409854782273272 0 0 0
2556 7 18.179996857949046 0.874686439460215 0.0011623042588751037 0 0 0
2564 7 21.209996857949047 0.874686439460215 0.001162304258875113 0 0 0
2817 1 18.180028457147685 2.6240550085594565 0.8409854782273272 0 0 0
2825 1 21.210028457147686 2.624055008559456 0.8409854782273273 0 0 0
2827 7 19.694996857949047 3.498743412927214 0.001162304258875255 0 0 0
2835 7 22.724996857949048 3.498743412927214 0.0011623042588752553 0 0 0
2826 1 19.695028457147686 5.2481119820264555 0.8409854782273272 0 0 0
2834 1 22.725028457147687 5.2481119820264555 0.8409854782273272 0 0 0
2572 7 24.23999685794905 0.874686439460215 0.0011623042588751133 0 0 0
2580 7 27.26999685794905 0.874686439460215 0.0011623042588751124 0 0 0
2833 1 24.240028457147687 2.624055008559456 0.8409854782273273 0 0 0
2841 1 27.27002845714769 2.624055008559456 0.8409854782273273 0 0 0
2843 7 25.75499685794905 3.498743412927214 0.0011623042588752555 0 0 0
2851 7 28.78499685794905 3.498743412927214 0.0011623042588752544 0 0 0
2842 1 25.755028457147688 5.2481119820264555 0.8409854782273272 0 0 0
2850 1 28.78502845714769 5.2481119820264555 0.8409854782273272 0 0 0
2588 7 30.299996857949047 0.874686439460215 0.0011623042588751599 0 0 0
2596 7 33.32999685794905 0.8746864394602151 0.0011623042588750653 0 0 0
2849 1 30.30002845714769 2.624055008559456 0.8409854782273273 0 0 0
2857 1 33.33002845714769 2.6240550085594556 0.8409854782273279 0 0 0
2859 7 31.81499685794905 3.498743412927214 0.0011623042588752553 0 0 0
2867 7 34.84499685794905 3.498743412927214 0.0011623042588752611 0 0 0
2858 1 31.81502845714769 5.248111982026455 0.8409854782273278 0 0 0
2866 1 34.84502845714769 5.2481119820264555 0.8409854782273273 0 0 0
2604 7 36.35999685794905 0.8746864394602151 0.0011623042588750603 0 0 0
2612 7 39.38999685794905 0.8746864394602151 0.0011623042588750562 0 0 0
2865 1 36.36002845714769 2.624055008559456 0.8409854782273274 0 0 0
2873 1 39.39002845714769 2.624055008559456 0.8409854782273274 0 0 0
2875 7 37.87499685794905 3.498743412927214 0.001162304258875214 0 0 0
2883 7 40.90499685794905 3.498743412927214 0.0011623042588752384 0 0 0
2874 1 37.87502845714769 5.2481119820264555 0.8409854782273273 0 0 0
2882 1 40.905028457147694 5.2481119820264555 0.8409854782273272 0 0 0
2620 7 42.41999685794905 0.8746864394602141 0.0011623042588760478 0 0 0
2628 7 45.449996857949046 0.8746864394602171 0.0011623042588720944 0 0 0
2881 1 42.420028457147694 2.624055008559457 0.8409854782273264 0 0 0
2889 1 45.45002845714769 2.6240550085594543 0.8409854782273284 0 0 0
2891 7 43.93499685794905 3.498743412927215 0.0011623042588732924 0 0 0
2899 7 46.96499685794904 3.498743412927214 0.0011623042588752607 0 0 0
2890 1 43.93502845714769 5.248111982026454 0.8409854782273274 0 0 0
2898 1 46.96502845714768 5.2481119820264555 0.8409854782273275 0 0 0
2636 7 48.47999685794904 0.8746864394602148 0.0011623042588751824 0 0 0
2380 7 51.50999685794904 0.8746864394602151 0.0011623042588750597 -1 0 0
2897 1 48.48002845714768 2.6240550085594565 0.8409854782273272 0 0 0
2641 1 51.51002845714768 2.624055008559456 0.8409854782273274 -1 0 0
2643 7 49.99499685794904 3.498743412927214 0.0011623042588752115 -1 0 0
2642 1 49.99502845714768 5.2481119820264555 0.8409854782273273 -1 0 0
2388 7 54.53999685794904 0.874686439460215 0.0011623042588750734 -1 0 0
2396 7 57.56999685794904 0.874686439460215 0.0011623042588746661 -1 0 0
2649 1 54.540028457147685 2.624055008559456 0.8409854782273273 -1 0 0
2657 1 57.570028457147686 2.6240550085594565 0.8409854782273267 -1 0 0
2651 7 53.02499685794904 3.498743412927214 0.0011623042588752128 -1 0 0
2659 7 56.05499685794904 3.4987434129272135 0.0011623042588757323 -1 0 0
2650 1 53.025028457147684 5.2481119820264555 0.8409854782273273 -1 0 0
2658 1 56.055028457147685 5.2481119820264555 0.8409854782273269 -1 0 0
2404 7 60.59999685794904 0.8746864394602155 0.0011623042588745224 -1 0 0
2412 7 63.62999685794904 0.8746864394602151 0.0011623042588750597 -1 0 0
2665 1 60.60002845714768 2.6240550085594556 0.8409854782273279 -1 0 0
2673 1 63.63002845714768 2.624055008559456 0.8409854782273274 -1 0 0
2667 7 59.084996857949044 3.498743412927215 0.0011623042588737023 -1 0 0
2675 7 62.11499685794904 3.498743412927214 0.0011623042588753195 -1 0 0
2666 1 59.08502845714768 5.248111982026454 0.8409854782273278 -1 0 0
2674 1 62.11502845714768 5.2481119820264555 0.840985478227327 -1 0 0
2420 7 66.65999685794904 0.8746864394602151 0.0011623042588750601 -1 0 0
2428 7 69.68999685794904 0.8746864394602151 0.0011623042588750608 -1 0 0
2681 1 66.66002845714767 2.624055008559456 0.8409854782273274 -1 0 0
2689 1 69.69002845714768 2.624055008559456 0.8409854782273274 -1 0 0
2683 7 65.14499685794904 3.498743412927214 0.0011623042588752128 -1 0 0
2691 7 68.17499685794904 3.498743412927214 0.0011623042588752137 -1 0 0
2682 1 65.14502845714767 5.2481119820264555 0.8409854782273273 -1 0 0
2690 1 68.17502845714768 5.2481119820264555 0.8409854782273273 -1 0 0
2436 7 72.71999685794904 0.8746864394602151 0.0011623042588750601 -1 0 0
2444 7 75.74999685794904 0.8746864394602151 0.0011623042588750593 -1 0 0
2697 1 72.72002845714768 2.624055008559456 0.8409854782273274 -1 0 0
2705 1 75.75002845714768 2.624055008559456 0.8409854782273274 -1 0 0
2699 7 71.20499685794904 3.498743412927214 0.0011623042588752139 -1 0 0
2707 7 74.23499685794904 3.498743412927214 0.0011623042588752128 -1 0 0
2698 1 71.20502845714768 5.2481119820264555 0.8409854782273273 -1 0 0
2706 1 74.23502845714768 5.2481119820264555 0.8409854782273273 -1 0 0
2452 7 78.77999685794904 0.874686439460215 0.0011623042588750866 -1 0 0
2460 7 81.80999685794905 0.874686439460216 0.0011623042588732005 -1 0 0
2713 1 78.78002845714768 2.624055008559456 0.8409854782273273 -1 0 0
2721 1 81.81002845714768 2.6240550085594556 0.8409854782273269 -1 0 0
2715 7 77.26499685794904 3.498743412927214 0.0011623042588752108 -1 0 0
2723 7 80.29499685794904 3.498743412927213 0.001162304258876087 -1 0 0
2714 1 77.26502845714768 5.2481119820264555 0.8409854782273273 -1 0 0
2722 1 80.29502845714768 5.248111982026456 0.8409854782273266 -1 0 0
2468 7 84.83999685794905 0.874686439460215 0.0011623042588751042 -1 0 0
2476 7 87.86999685794905 0.8746864394602151 0.0011623042588750656 -1 0 0
2729 1 84.84002845714768 2.6240550085594565 0.8409854782273269 -1 0 0
2737 1 87.87002845714768 2.6240550085594565 0.8409854782273273 -1 0 0
2731 7 83.32499685794905 3.498743412927215 0.0011623042588738012 -1 0 0
2739 7 86.35499685794905 3.498743412927214 0.0011623042588753065 -1 0 0
2730 1 83.3250284571477 5.2481119820264555 0.8409854782273264 -1 0 0
2738 1 86.3550284571477 5.2481119820264555 0.8409854782273273 -1 0 0
2484 7 90.89999685794905 0.8746864394602151 0.0011623042588750656 -1 0 0
2492 7 93.92999685794905 0.8746864394602151 0.0011623042588750619 -1 0 0
2745 1 90.90002845714768 2.6240550085594565 0.8409854782273273 -1 0 0
2753 1 93.93002845714769 2.6240550085594565 0.8409854782273273 -1 0 0
2747 7 89.38499685794905 3.498743412927214 0.0011623042588753078 -1 0 0
2755 7 92.41499685794905 3.498743412927214 0.0011623042588753078 -1 0 0
2746 1 89.3850284571477 5.2481119820264555 0.8409854782273272 -1 0 0
2754 1 92.4150284571477 5.2481119820264555 0.8409854782273272 -1 0 0
2508 7 99.98999685794904 0.8746864394602146 0.0011623042588760697 -1 0 0
2500 7 96.95999685794904 0.8746864394602158 0.0011623042588738228 -1 0 0
2761 1 96.96002845714769 2.6240550085594565 0.8409854782273263 -1 0 0
2763 7 95.44499685794905 3.498743412927214 0.0011623042588752909 -1 0 0
2771 7 98.47499685794904 3.498743412927215 0.0011623042588739172 -1 0 0
2762 1 95.4450284571477 5.2481119820264555 0.8409854782273269 -1 0 0
2770 1 98.47502845714769 5.248111982026453 0.8409854782273293 -1 0 0
2780 7 3.0299968579490466 6.122800386394213 0.0011623042588750415 0 0 0
3043 7 1.5149968579490465 8.746857359861215 0.0011623042588766671 0 0 0
3033 1 2.8457147689041317e-05 7.872168955493454 0.8409854782273285 0 0 0
3041 1 3.0300284571476865 7.872168955493455 0.8409854782273272 0 0 0
3051 7 4.544996857949047 8.746857359861215 0.0011623042588764997 0 0 0
3042 1 1.5150284571476862 10.496225928960454 0.8409854782273275 0 0 0
3050 1 4.545028457147687 10.496225928960454 0.8409854782273275 0 0 0
3044 7 3.0299968579490466 11.370914333328216 0.0011623042588752802 0 0 0
2788 7 6.059996857949048 6.122800386394213 0.0011623042588751076 0 0 0
2796 7 9.08999685794905 6.122800386394212 0.0011623042588752405 0 0 0
3049 1 6.060028457147688 7.872168955493455 0.8409854782273272 0 0 0
3059 7 7.574996857949048 8.746857359861215 0.0011623042588766255 0 0 0
3057 1 9.090028457147689 7.872168955493455 0.840985478227327 0 0 0
3067 7 10.60499685794905 8.746857359861215 0.0011623042588765355 0 0 0
3058 1 7.575028457147688 10.496225928960454 0.8409854782273274 0 0 0
3066 1 10.60502845714769 10.496225928960454 0.8409854782273277 0 0 0
3052 7 6.059996857949048 11.370914333328216 0.0011623042588753494 0 0 0
3060 7 9.08999685794905 11.370914333328216 0.0011623042588754648 0 0 0
2804 7 12.11999685794905 6.122800386394213 0.0011623042588752087 0 0 0
2812 7 15.149996857949047 6.122800386394214 0.0011623042588739768 0 0 0
3065 1 12.12002845714769 7.872168955493455 0.8409854782273274 0 0 0
3075 7 13.634996857949048 8.746857359861215 0.0011623042588751174 0 0 0
3073 1 15.150028457147688 7.872168955493454 0.8409854782273273 0 0 0
3083 7 16.664996857949046 8.746857359861215 0.0011623042588764431 0 0 0
3074 1 13.635028457147687 10.496225928960454 0.8409854782273268 0 0 0
3082 1 16.665028457147685 10.496225928960454 0.8409854782273272 0 0 0
3068 7 12.11999685794905 11.370914333328216 0.0011623042588754778 0 0 0
3076 7 15.149996857949047 11.370914333328216 0.001162304258874054 0 0 0
2820 7 18.179996857949046 6.122800386394213 0.0011623042588750875 0 0 0
2828 7 21.209996857949047 6.122800386394213 0.0011623042588751048 0 0 0
3081 1 18.180028457147685 7.872168955493455 0.8409854782273272 0 0 0
3091 7 19.694996857949047 8.746857359861215 0.0011623042588765433 0 0 0
3089 1 21.210028457147686 7.872168955493455 0.8409854782273272 0 0 0
3099 7 22.724996857949048 8.746857359861215 0.0011623042588765453 0 0 0
3090 1 19.695028457147686 10.496225928960454 0.8409854782273275 0 0 0
3098 1 22.725028457147687 10.496225928960454 0.8409854782273275 0 0 0
3084 7 18.179996857949046 11.370914333328216 0.0011623042588753997 0 0 0
3092 7 21.209996857949047 11.370914333328216 0.0011623042588753555 0 0 0
2836 7 24.23999685794905 6.122800386394213 0.0011623042588751052 0 0 0
2844 7 27.26999685794905 6.122800386394213 0.0011623042588751044 0 0 0
3097 1 24.240028457147687 7.872168955493455 0.8409854782273272 0 0 0
3107 7 25.75499685794905 8.746857359861215 0.0011623042588765448 0 0 0
3105 1 27.27002845714769 7.872168955493455 0.8409854782273272 0 0 0
3115 7 28.78499685794905 8.746857359861215 0.001162304258876544 0 0 0
3106 1 25.755028457147688 10.496225928960454 0.8409854782273275 0 0 0
3114 1 28.78502845714769 10.496225928960454 0.8409854782273275 0 0 0
3100 7 24.23999685794905 11.370914333328216 0.0011623042588753563 0 0 0
3108 7 27.26999685794905 11.370914333328216 0.0011623042588753555 0 0 0
2852 7 30.299996857949047 6.122800386394213 0.0011623042588751532 0 0 0
2860 7 33.32999685794905 6.122800386394213 0.001162304258875069 0 0 0
3113 1 30.30002845714769 7.872168955493455 0.8409854782273272 0 0 0
3123 7 31.81499685794905 8.746857359861215 0.001162304258876546 0 0 0
3121 1 33.33002845714769 7.872168955493455 0.8409854782273277 0 0 0
3131 7 34.84499685794905 8.746857359861215 0.0011623042588765954 0 0 0
3122 1 31.81502845714769 10.496225928960454 0.840985478227328 0 0 0
3130 1 34.84502845714769 10.496225928960454 0.8409854782273274 0 0 0
3116 7 30.29999685794905 11.370914333328216 0.0011623042588754053 0 0 0
3124 7 33.32999685794905 11.370914333328216 0.0011623042588754131 0 0 0
2868 7 36.35999685794905 6.122800386394213 0.0011623042588750627 0 0 0
2876 7 39.38999685794905 6.122800386394213 0.001162304258875062 0 0 0
3129 1 36.36002845714769 7.872168955493455 0.8409854782273272 0 0 0
3139 7 37.87499685794905 8.746857359861215 0.001162304258876546 0 0 0
3137 1 39.39002845714769 7.872168955493455 0.8409854782273272 0 0 0
3147 7 40.90499685794905 8.746857359861215 0.0011623042588765576 0 0 0
3138 1 37.87502845714769 10.496225928960454 0.8409854782273274 0 0 0
3146 1 40.905028457147694 10.496225928960454 0.8409854782273275 0 0 0
3132 7 36.35999685794905 11.370914333328216 0.0011623042588754105 0 0 0
3140 7 39.38999685794905 11.370914333328216 0.0011623042588754075 0 0 0
2884 7 42.41999685794905 6.122800386394212 0.001162304258876134 0 0 0
2892 7 45.449996857949046 6.122800386394215 0.0011623042588722351 0 0 0
3145 1 42.420028457147694 7.872168955493456 0.8409854782273264 0 0 0
3155 7 43.93499685794905 8.746857359861215 0.0011623042588746301 0 0 0
3153 1 45.45002845714769 7.8721689554934535 0.840985478227328 0 0 0
3163 7 46.96499685794904 8.746857359861215 0.0011623042588764314 0 0 0
3154 1 43.93502845714769 10.496225928960454 0.8409854782273273 0 0 0
3162 1 46.96502845714768 10.496225928960454 0.8409854782273275 0 0 0
3148 7 42.41999685794905 11.370914333328214 0.001162304258876185 0 0 0
3156 7 45.449996857949046 11.370914333328217 0.001162304258872417 0 0 0
2900 7 48.47999685794904 6.122800386394213 0.0011623042588751245 0 0 0
2644 7 51.50999685794904 6.122800386394213 0.0011623042588750623 -1 0 0
3161 1 48.48002845714768 7.872168955493455 0.840985478227327 0 0 0
2907 7 49.99499685794904 8.746857359861215 0.001162304258876542 -1 0 0
2905 1 51.51002845714768 7.872168955493455 0.8409854782273272 -1 0 0
2906 1 49.99502845714768 10.496225928960454 0.8409854782273274 -1 0 0
3164 7 48.47999685794904 11.370914333328216 0.001162304258875467 0 0 0
2908 7 51.50999685794904 11.370914333328216 0.0011623042588754097 -1 0 0
2652 7 54.53999685794904 6.122800386394213 0.0011623042588750697 -1 0 0
2660 7 57.56999685794904 6.122800386394213 0.0011623042588747947 -1 0 0
2915 7 53.02499685794904 8.746857359861215 0.0011623042588765433 -1 0 0
2913 1 54.540028457147685 7.872168955493455 0.8409854782273272 -1 0 0
2923 7 56.05499685794904 8.746857359861213 0.0011623042588768827 -1 0 0
2921 1 57.570028457147686 7.872168955493455 0.8409854782273268 -1 0 0
2914 1 53.025028457147684 10.496225928960454 0.8409854782273274 -1 0 0
2922 1 56.055028457147685 10.496225928960456 0.8409854782273268 -1 0 0
2916 7 54.53999685794904 11.370914333328216 0.0011623042588754344 -1 0 0
2924 7 57.56999685794904 11.370914333328214 0.0011623042588748951 -1 0 0
2668 7 60.59999685794904 6.122800386394213 0.0011623042588746668 -1 0 0
2676 7 63.62999685794904 6.122800386394213 0.0011623042588750619 -1 0 0
2931 7 59.084996857949044 8.746857359861215 0.0011623042588748958 -1 0 0
2929 1 60.60002845714768 7.872168955493454 0.8409854782273278 -1 0 0
2939 7 62.11499685794904 8.746857359861215 0.0011623042588766457 -1 0 0
2937 1 63.63002845714768 7.872168955493455 0.8409854782273272 -1 0 0
2930 1 59.08502845714768 10.496225928960452 0.8409854782273274 -1 0 0
2938 1 62.11502845714768 10.496225928960454 0.8409854782273273 -1 0 0
2932 7 60.59999685794904 11.370914333328216 0.0011623042588749474 -1 0 0
2940 7 63.62999685794904 11.370914333328216 0.0011623042588754082 -1 0 0
2684 7 66.65999685794904 6.122800386394213 0.0011623042588750627 -1 0 0
2692 7 69.68999685794904 6.122800386394213 0.0011623042588750634 -1 0 0
2947 7 65.14499685794904 8.746857359861215 0.0011623042588765444 -1 0 0
2945 1 66.66002845714767 7.872168955493455 0.8409854782273272 -1 0 0
2955 7 68.17499685794904 8.746857359861215 0.0011623042588765455 -1 0 0
2953 1 69.69002845714768 7.872168955493455 0.8409854782273272 -1 0 0
2946 1 65.14502845714767 10.496225928960454 0.8409854782273274 -1 0 0
2954 1 68.17502845714768 10.496225928960454 0.8409854782273274 -1 0 0
2948 7 66.65999685794904 11.370914333328216 0.0011623042588754101 -1 0 0
2956 7 69.68999685794904 11.370914333328216 0.001162304258875411 -1 0 0
2700 7 72.71999685794904 6.122800386394213 0.0011623042588750627 -1 0 0
2708 7 75.74999685794904 6.122800386394213 0.001162304258875062 -1 0 0
2963 7 71.20499685794904 8.746857359861215 0.001162304258876546 -1 0 0
2961 1 72.72002845714768 7.872168955493455 0.8409854782273272 -1 0 0
2971 7 74.23499685794904 8.746857359861215 0.0011623042588765448 -1 0 0
2969 1 75.75002845714768 7.872168955493455 0.8409854782273272 -1 0 0
2962 1 71.20502845714768 10.496225928960454 0.8409854782273274 -1 0 0
2970 1 74.23502845714768 10.496225928960454 0.8409854782273274 -1 0 0
2964 7 72.71999685794904 11.370914333328216 0.0011623042588754103 -1 0 0
2972 7 75.74999685794904 11.370914333328216 0.0011623042588754097 -1 0 0
2716 7 78.77999685794904 6.122800386394213 0.0011623042588750354 -1 0 0
2724 7 81.80999685794905 6.122800386394214 0.001162304258873073 -1 0 0
2979 7 77.26499685794904 8.746857359861215 0.0011623042588765418 -1 0 0
2977 1 78.78002845714768 7.872168955493455 0.8409854782273272 -1 0 0
2987 7 80.29499685794904 8.746857359861213 0.001162304258877393 -1 0 0
2985 1 81.81002845714768 7.872168955493455 0.8409854782273268 -1 0 0
2978 1 77.26502845714768 10.496225928960454 0.8409854782273274 -1 0 0
2986 1 80.29502845714768 10.496225928960456 0.8409854782273267 -1 0 0
2980 7 78.77999685794904 11.370914333328216 0.001162304258875366 -1 0 0
2988 7 81.80999685794905 11.370914333328216 0.0011623042588736112 -1 0 0
2732 7 84.83999685794905 6.122800386394213 0.0011623042588750827 -1 0 0
2740 7 87.86999685794905 6.122800386394213 0.0011623042588751163 -1 0 0
2995 7 83.32499685794905 8.746857359861215 0.0011623042588750688 -1 0 0
2993 1 84.84002845714768 7.872168955493456 0.8409854782273269 -1 0 0
3003 7 86.35499685794905 8.746857359861215 0.0011623042588765535 -1 0 0
3001 1 87.87002845714768 7.872168955493455 0.8409854782273272 -1 0 0
2994 1 83.3250284571477 10.496225928960454 0.8409854782273264 -1 0 0
3002 1 86.3550284571477 10.496225928960454 0.8409854782273274 -1 0 0
2996 7 84.83999685794905 11.370914333328216 0.0011623042588754203 -1 0 0
3004 7 87.86999685794905 11.370914333328216 0.001162304258875394 -1 0 0
2748 7 90.89999685794905 6.122800386394213 0.001162304258875116 -1 0 0
2756 7 93.92999685794905 6.122800386394213 0.001162304258875115 -1 0 0
3011 7 89.38499685794905 8.746857359861215 0.001162304258876556 -1 0 0
3009 1 90.90002845714768 7.872168955493455 0.8409854782273272 -1 0 0
3019 7 92.41499685794905 8.746857359861215 0.0011623042588765561 -1 0 0
3017 1 93.93002845714769 7.872168955493455 0.8409854782273272 -1 0 0
3010 1 89.3850284571477 10.496225928960454 0.8409854782273274 -1 0 0
3018 1 92.4150284571477 10.496225928960454 0.8409854782273274 -1 0 0
3012 7 90.89999685794905 11.370914333328216 0.001162304258875394 -1 0 0
3020 7 93.92999685794905 11.370914333328216 0.0011623042588753917 -1 0 0
2772 7 99.98999685794904 6.122800386394212 0.0011623042588761283 -1 0 0
3036 7 99.98999685794904 11.370914333328216 0.0011623042588762532 -1 0 0
2764 7 96.95999685794904 6.122800386394214 0.0011623042588738775 -1 0 0
3027 7 95.44499685794905 8.746857359861215 0.0011623042588765706 -1 0 0
3025 1 96.96002845714769 7.872168955493455 0.8409854782273263 -1 0 0
3035 7 98.47499685794904 8.746857359861215 0.0011623042588753442 -1 0 0
3026 1 95.4450284571477 10.496225928960454 0.8409854782273272 -1 0 0
3034 1 98.47502845714769 10.496225928960452 0.8409854782273292 -1 0 0
3028 7 96.95999685794904 11.370914333328216 0.0011623042588740807 -1 0 0
3307 7 1.5149968579490465 13.994971306795213 0.0011623042588738985 0 0 0
3297 1 2.8457147688950234e-05 13.120282902427453 0.8409854782273284 0 0 0
3305 1 3.0300284571476865 13.120282902427453 0.8409854782273268 0 0 0
3315 7 4.544996857949047 13.994971306795213 0.0011623042588736687 0 0 0
3306 1 1.5150284571476862 15.744339875894456 0.8409854782273275 0 0 0
3308 7 3.0299968579490466 16.619028280262214 0.0011623042588762688 0 0 0
3314 1 4.545028457147687 15.744339875894456 0.8409854782273274 0 0 0
3313 1 6.060028457147688 13.120282902427453 0.8409854782273268 0 0 0
3323 7 7.574996857949048 13.994971306795213 0.001162304258873904 0 0 0
3321 1 9.090028457147689 13.120282902427453 0.8409854782273267 0 0 0
3331 7 10.60499685794905 13.994971306795213 0.0011623042588738148 0 0 0
3316 7 6.059996857949048 16.619028280262214 0.0011623042588763412 0 0 0
3322 1 7.575028457147688 15.744339875894456 0.8409854782273273 0 0 0
3324 7 9.08999685794905 16.619028280262214 0.0011623042588764642 0 0 0
3330 1 10.60502845714769 15.744339875894456 0.8409854782273277 0 0 0
3329 1 12.12002845714769 13.120282902427453 0.8409854782273274 0 0 0
3339 7 13.634996857949048 13.994971306795213 0.0011623042588724155 0 0 0
3337 1 15.150028457147688 13.120282902427453 0.8409854782273272 0 0 0
3347 7 16.664996857949046 13.994971306795213 0.0011623042588738881 0 0 0
3332 7 12.11999685794905 16.619028280262214 0.0011623042588763952 0 0 0
3338 1 13.635028457147687 15.744339875894454 0.8409854782273275 0 0 0
3340 7 15.149996857949047 16.619028280262214 0.0011623042588754502 0 0 0
3346 1 16.665028457147685 15.744339875894456 0.8409854782273274 0 0 0
3345 1 18.180028457147685 13.120282902427453 0.8409854782273268 0 0 0
3355 7 19.694996857949047 13.994971306795213 0.0011623042588737576 0 0 0
3353 1 21.210028457147686 13.120282902427453 0.8409854782273268 0 0 0
3363 7 22.724996857949048 13.994971306795213 0.0011623042588737584 0 0 0
3348 7 18.179996857949046 16.619028280262214 0.0011623042588763746 0 0 0
3354 1 19.695028457147686 15.744339875894456 0.8409854782273274 0 0 0
3356 7 21.209996857949047 16.619028280262214 0.0011623042588763456 0 0 0
3362 1 22.725028457147687 15.744339875894456 0.8409854782273274 0 0 0
3361 1 24.240028457147687 13.120282902427453 0.8409854782273268 0 0 0
3371 7 25.75499685794905 13.994971306795213 0.0011623042588737582 0 0 0
3369 1 27.27002845714769 13.120282902427453 0.8409854782273268 0 0 0
3379 7 28.78499685794905 13.994971306795213 0.0011623042588737576 0 0 0
3364 7 24.23999685794905 16.619028280262214 0.0011623042588763458 0 0 0
3370 1 25.755028457147688 15.744339875894456 0.8409854782273274 0 0 0
3372 7 27.26999685794905 16.619028280262214 0.001162304258876345 0 0 0
3378 1 28.78502845714769 15.744339875894456 0.8409854782273274 0 0 0
3377 1 30.30002845714769 13.120282902427453 0.8409854782273268 0 0 0
3387 7 31.81499685794905 13.994971306795213 0.0011623042588737626 0 0 0
3385 1 33.33002845714769 13.120282902427453 0.8409854782273274 0 0 0
3395 7 34.84499685794905 13.994971306795213 0.0011623042588738562 0 0 0
3380 7 30.299996857949047 16.619028280262214 0.001162304258876394 0 0 0
3386 1 31.81502845714769 15.744339875894456 0.840985478227328 0 0 0
3388 7 33.32999685794905 16.619028280262214 0.0011623042588762937 0 0 0
3394 1 34.84502845714769 15.744339875894456 0.8409854782273275 0 0 0
3393 1 36.36002845714769 13.120282902427453 0.8409854782273268 0 0 0
3403 7 37.87499685794905 13.994971306795213 0.00116230425887381 0 0 0
3401 1 39.39002845714769 13.120282902427453 0.8409854782273268 0 0 0
3411 7 40.90499685794905 13.994971306795213 0.0011623042588737626 0 0 0
3396 7 36.35999685794905 16.619028280262214 0.001162304258876291 0 0 0
3402 1 37.87502845714769 15.744339875894456 0.8409854782273275 0 0 0
3404 7 39.38999685794905 16.619028280262214 0.0011623042588762903 0 0 0
3410 1 40.905028457147694 15.744339875894456 0.8409854782273275 0 0 0
3409 1 42.420028457147694 13.120282902427455 0.8409854782273264 0 0 0
3419 7 43.93499685794905 13.994971306795215 0.0011623042588719123 0 0 0
3417 1 45.45002845714769 13.120282902427451 0.840985478227328 0 0 0
3427 7 46.96499685794904 13.994971306795213 0.001162304258873721 0 0 0
3412 7 42.41999685794905 16.61902828026221 0.0011623042588771182 0 0 0
3418 1 43.93502845714769 15.744339875894454 0.8409854782273277 0 0 0
3420 7 45.449996857949046 16.619028280262214 0.0011623042588731376 0 0 0
3426 1 46.96502845714768 15.744339875894456 0.8409854782273279 0 0 0
3425 1 48.48002845714768 13.120282902427453 0.8409854782273267 0 0 0
3171 7 49.99499685794904 13.994971306795213 0.001162304258873805 -1 0 0
3169 1 51.51002845714768 13.120282902427453 0.8409854782273268 -1 0 0
3428 7 48.47999685794904 16.619028280262214 0.0011623042588763946 0 0 0
3170 1 49.99502845714768 15.744339875894456 0.8409854782273275 -1 0 0
3172 7 51.50999685794904 16.619028280262214 0.0011623042588762903 -1 0 0
3179 7 53.02499685794904 13.994971306795213 0.0011623042588738092 -1 0 0
3177 1 54.540028457147685 13.120282902427453 0.8409854782273268 -1 0 0
3187 7 56.05499685794904 13.994971306795213 0.0011623042588743307 -1 0 0
3185 1 57.570028457147686 13.120282902427453 0.8409854782273267 -1 0 0
3178 1 53.025028457147684 15.744339875894456 0.8409854782273275 -1 0 0
3180 7 54.53999685794904 16.619028280262214 0.0011623042588762872 -1 0 0
3186 1 56.055028457147685 15.744339875894456 0.8409854782273273 -1 0 0
3188 7 57.56999685794904 16.619028280262214 0.0011623042588762198 -1 0 0
3195 7 59.084996857949044 13.994971306795213 0.0011623042588721952 -1 0 0
3193 1 60.60002845714768 13.120282902427453 0.8409854782273279 -1 0 0
3203 7 62.11499685794904 13.994971306795213 0.0011623042588738604 -1 0 0
3201 1 63.63002845714768 13.120282902427453 0.8409854782273268 -1 0 0
3194 1 59.08502845714768 15.744339875894454 0.840985478227328 -1 0 0
3196 7 60.59999685794904 16.619028280262214 0.0011623042588758555 -1 0 0
3202 1 62.11502845714768 15.744339875894456 0.8409854782273274 -1 0 0
3204 7 63.62999685794904 16.619028280262214 0.001162304258876289 -1 0 0
3211 7 65.14499685794904 13.994971306795213 0.0011623042588738094 -1 0 0
3209 1 66.66002845714767 13.120282902427453 0.8409854782273268 -1 0 0
3219 7 68.17499685794904 13.994971306795213 0.00116230425887381 -1 0 0
3217 1 69.69002845714768 13.120282902427453 0.8409854782273268 -1 0 0
3210 1 65.14502845714767 15.744339875894456 0.8409854782273275 -1 0 0
3212 7 66.65999685794904 16.619028280262214 0.0011623042588762907 -1 0 0
3218 1 68.17502845714768 15.744339875894456 0.8409854782273275 -1 0 0
3220 7 69.68999685794904 16.619028280262214 0.0011623042588762914 -1 0 0
3227 7 71.20499685794904 13.994971306795213 0.0011623042588738103 -1 0 0
3225 1 72.72002845714768 13.120282902427453 0.8409854782273268 -1 0 0
3235 7 74.23499685794904 13.994971306795213 0.0011623042588738094 -1 0 0
3233 1 75.75002845714768 13.120282902427453 0.8409854782273268 -1 0 0
3226 1 71.20502845714768 15.744339875894456 0.8409854782273275 -1 0 0
3228 7 72.71999685794904 16.619028280262214 0.0011623042588762911 -1 0 0
3234 1 74.23502845714768 15.744339875894456 0.8409854782273275 -1 0 0
3236 7 75.74999685794904 16.619028280262214 0.00116230425887629 -1 0 0
3243 7 77.26499685794904 13.994971306795213 0.0011623042588738053 -1 0 0
3241 1 78.78002845714768 13.120282902427453 0.8409854782273268 -1 0 0
3251 7 80.29499685794904 13.994971306795213 0.001162304258874611 -1 0 0
3249 1 81.81002845714768 13.120282902427453 0.8409854782273266 -1 0 0
3242 1 77.26502845714768 15.744339875894456 0.8409854782273275 -1 0 0
3244 7 78.77999685794904 16.619028280262214 0.0011623042588762979 -1 0 0
3250 1 80.29502845714768 15.744339875894456 0.840985478227327 -1 0 0
3252 7 81.80999685794905 16.619028280262214 0.0011623042588743767 -1 0 0
3259 7 83.32499685794905 13.994971306795215 0.0011623042588723563 -1 0 0
3257 1 84.84002845714768 13.120282902427453 0.8409854782273268 -1 0 0
3267 7 86.35499685794905 13.994971306795213 0.0011623042588737626 -1 0 0
3265 1 87.87002845714768 13.120282902427453 0.840985478227327 -1 0 0
3258 1 83.3250284571477 15.744339875894456 0.8409854782273269 -1 0 0
3260 7 84.83999685794905 16.619028280262214 0.0011623042588763738 -1 0 0
3266 1 86.3550284571477 15.744339875894456 0.8409854782273277 -1 0 0
3268 7 87.86999685794905 16.619028280262214 0.0011623042588763638 -1 0 0
3275 7 89.38499685794905 13.994971306795213 0.0011623042588737626 -1 0 0
3273 1 90.90002845714768 13.120282902427453 0.840985478227327 -1 0 0
3283 7 92.41499685794905 13.994971306795213 0.0011623042588737626 -1 0 0
3281 1 93.93002845714769 13.120282902427453 0.840985478227327 -1 0 0
3274 1 89.3850284571477 15.744339875894456 0.8409854782273277 -1 0 0