LAMMPS data file via write_data, version 29 Aug 2024, timestep = 7, units = metal

4680 atoms
6 atom types

0 99.517963959102 xlo xhi
0 99.44432875554 ylo yhi
-50 50 zlo zhi

Masses

1 44.955908
2 44.955908
3 127.6
4 127.6
5 127.6
6 127.6

Atoms # atomic

1176 4 1.9138069992134723 2.158036122065991 -0.07412868931953281 0 0 0
1327 1 2.5579538487363607e-13 3.260706119997346 1.7628246197751003 0 0 0
1333 1 3.8276139984272444 3.260706119997349 1.7628246197751036 0 0 0
1182 4 5.741420997640468 2.1580361220659947 -0.07412868931952907 0 0 0
1337 4 3.827613998426908 5.472847080583987 -0.07412868931952338 0 0 0
1339 1 7.6552279968542445 3.2607061199973493 1.7628246197751045 0 0 0
1188 4 9.569034996067467 2.1580361220659916 -0.07412868931953238 0 0 0
1345 1 11.482841995281243 3.2607061199973475 1.7628246197751025 0 0 0
1343 4 7.655227996853908 5.47284708058399 -0.07412868931952192 0 0 0
1349 4 11.482841995280905 5.47284708058399 -0.07412868931952342 0 0 0
1194 4 13.396648994494472 2.1580361220659934 -0.07412868931952728 0 0 0
1351 1 15.310455993708244 3.2607061199973533 1.7628246197751052 0 0 0
1200 4 17.224262992921464 2.158036122065996 -0.07412868931953061 0 0 0
1355 4 15.310455993707905 5.472847080583988 -0.07412868931952013 0 0 0
1357 1 19.138069992135243 3.260706119997347 1.7628246197751014 0 0 0
1206 4 21.05187699134847 2.1580361220659885 -0.07412868931952846 0 0 0
1363 1 22.96568399056224 3.260706119997346 1.7628246197751019 0 0 0
1361 4 19.13806999213491 5.472847080583991 -0.07412868931952103 0 0 0
1367 4 22.965683990561914 5.472847080583991 -0.07412868931952298 0 0 0
1212 4 24.87949098977547 2.158036122065987 -0.0741286893195276 0 0 0
1369 1 26.79329798898924 3.2607061199973466 1.7628246197751014 0 0 0
1218 4 28.70710498820247 2.1580361220659903 -0.07412868931952925 0 0 0
1373 4 26.793297988988904 5.47284708058399 -0.07412868931952352 0 0 0
1375 1 30.620911987416243 3.260706119997348 1.7628246197751019 0 0 0
1224 4 32.53471898662947 2.15803612206599 -0.07412868931952771 0 0 0
1381 1 34.44852598584324 3.260706119997348 1.762824619775103 0 0 0
1379 4 30.620911987415905 5.472847080583988 -0.07412868931952524 0 0 0
1385 4 34.448525985842906 5.472847080583993 -0.07412868931951917 0 0 0
1230 4 36.36233298505646 2.158036122065992 -0.07412868931953442 0 0 0
1387 1 38.27613998427024 3.2607061199973466 1.7628246197750999 0 0 0
1236 4 40.189946983483466 2.1580361220659916 -0.07412868931953086 0 0 0
1391 4 38.27613998426991 5.472847080583988 -0.07412868931952103 0 0 0
1393 1 42.10375398269724 3.26070611999735 1.762824619775104 0 0 0
1242 4 44.01756098191047 2.158036122065996 -0.07412868931952599 0 0 0
1399 1 45.93136798112425 3.260706119997351 1.7628246197751067 0 0 0
1397 4 42.10375398269691 5.472847080583991 -0.0741286893195194 0 0 0
1403 4 45.93136798112391 5.47284708058399 -0.07412868931952606 0 0 0
1248 4 47.84517498033747 2.1580361220659845 -0.0741286893195279 0 0 0
1098 4 51.672788978764466 2.158036122065994 -0.07412868931952475 -1 0 0
1249 1 49.75898197955124 3.260706119997349 1.7628246197751019 -1 0 0
1253 4 49.75898197955092 5.472847080583986 -0.07412868931952725 -1 0 0
1255 1 53.58659597797824 3.260706119997351 1.7628246197751085 -1 0 0
1104 4 55.50040297719146 2.1580361220659925 -0.07412868931953083 -1 0 0
1261 1 57.414209976405246 3.2607061199973475 1.7628246197750987 -1 0 0
1259 4 53.58659597797791 5.472847080583991 -0.07412868931952175 -1 0 0
1265 4 57.41420997640491 5.47284708058399 -0.07412868931952385 -1 0 0
1110 4 59.32801697561847 2.1580361220659916 -0.07412868931953287 -1 0 0
1267 1 61.24182397483224 3.260706119997347 1.762824619775102 -1 0 0
1116 4 63.15563097404548 2.1580361220659956 -0.07412868931951727 -1 0 0
1271 4 61.24182397483192 5.472847080583989 -0.07412868931952625 -1 0 0
1273 1 65.06943797325927 3.2607061199973515 1.762824619775107 -1 0 0
1122 4 66.98324497247248 2.1580361220659827 -0.0741286893195268 -1 0 0
1279 1 68.89705197168625 3.2607061199973457 1.7628246197751003 -1 0 0
1277 4 65.0694379732589 5.472847080583986 -0.0741286893195252 -1 0 0
1283 4 68.89705197168591 5.472847080583993 -0.07412868931951674 -1 0 0
1128 4 70.81085897089949 2.1580361220659947 -0.07412868931952753 -1 0 0
1285 1 72.72466597011326 3.260706119997349 1.7628246197751016 -1 0 0
1134 4 74.63847296932649 2.15803612206599 -0.07412868931952783 -1 0 0
1289 4 72.72466597011291 5.472847080583992 -0.07412868931952209 -1 0 0
1291 1 76.55227996854026 3.26070611999735 1.762824619775107 -1 0 0
1140 4 78.46608696775347 2.158036122065993 -0.07412868931953163 -1 0 0
1297 1 80.37989396696726 3.2607061199973426 1.762824619775096 -1 0 0
1295 4 76.55227996853992 5.472847080583985 -0.07412868931952851 -1 0 0
1301 4 80.37989396696689 5.472847080583991 -0.07412868931952214 -1 0 0
1146 4 82.2937009661805 2.1580361220659876 -0.07412868931952424 -1 0 0
1303 1 84.20750796539426 3.2607061199973533 1.7628246197751067 -1 0 0
1152 4 86.12131496460748 2.15803612206599 -0.07412868931952316 -1 0 0
1307 4 84.2075079653939 5.47284708058399 -0.07412868931952192 -1 0 0
1309 1 88.03512196382125 3.2607061199973444 1.7628246197750983 -1 0 0
1158 4 89.94892896303449 2.1580361220659916 -0.07412868931953005 -1 0 0
1315 1 91.86273596224827 3.2607061199973493 1.7628246197751023 -1 0 0
1313 4 88.03512196382091 5.472847080583989 -0.07412868931952248 -1 0 0
1319 4 91.8627359622479 5.472847080583993 -0.07412868931952092 -1 0 0
1331 4 99.5179639591019 5.4728470805839935 -0.07412868931951626 -1 0 0
1164 4 93.77654296146149 2.1580361220659907 -0.07412868931952943 -1 0 0
1321 1 95.69034996067525 3.2607061199973506 1.762824619775102 -1 0 0
1170 4 97.60415695988847 2.1580361220659947 -0.07412868931953001 -1 0 0
1325 4 95.69034996067491 5.472847080583982 -0.07412868931952996 -1 0 0
1328 1 1.9138069992134468 6.575517078515346 1.7628246197751034 0 0 0
1334 1 5.7414209976404464 6.575517078515347 1.762824619775106 0 0 0
1332 4 1.9138069992134705 8.787658039101984 -0.07412868931952535 0 0 0
1483 1 2.4158453015843406e-13 9.890328037033342 1.7628246197750979 0 0 0
1489 1 3.8276139984272453 9.890328037033346 1.7628246197751019 0 0 0
1338 4 5.741420997640468 8.787658039101986 -0.0741286893195237 0 0 0
1340 1 9.569034996067446 6.575517078515348 1.7628246197751052 0 0 0
1495 1 7.655227996854244 9.890328037033344 1.7628246197751056 0 0 0
1344 4 9.569034996067465 8.787658039101984 -0.07412868931952735 0 0 0
1501 1 11.482841995281243 9.890328037033342 1.7628246197751005 0 0 0
1346 1 13.396648994494443 6.575517078515346 1.7628246197751032 0 0 0
1352 1 17.224262992921446 6.575517078515346 1.7628246197751034 0 0 0
1350 4 13.396648994494472 8.787658039101986 -0.07412868931952375 0 0 0
1507 1 15.310455993708244 9.890328037033347 1.7628246197751054 0 0 0
1356 4 17.22426299292146 8.787658039101986 -0.07412868931952601 0 0 0
1358 1 21.05187699134845 6.575517078515348 1.7628246197751052 0 0 0
1513 1 19.13806999213524 9.890328037033342 1.7628246197751 0 0 0
1362 4 21.05187699134847 8.787658039101984 -0.07412868931952495 0 0 0
1519 1 22.965683990562244 9.890328037033344 1.7628246197750983 0 0 0
1364 1 24.879490989775444 6.575517078515349 1.7628246197751058 0 0 0
1370 1 28.707104988202442 6.575517078515346 1.762824619775105 0 0 0
1368 4 24.87949098977547 8.787658039101984 -0.07412868931952435 0 0 0
1525 1 26.79329798898924 9.890328037033344 1.7628246197751003 0 0 0
1374 4 28.70710498820247 8.787658039101986 -0.07412868931952495 0 0 0
1376 1 32.53471898662945 6.575517078515348 1.762824619775107 0 0 0
1531 1 30.620911987416243 9.890328037033346 1.7628246197751039 0 0 0
1380 4 32.534718986629464 8.787658039101984 -0.07412868931952633 0 0 0
1537 1 34.44852598584324 9.890328037033344 1.7628246197751016 0 0 0
1382 1 36.36233298505645 6.5755170785153485 1.7628246197751039 0 0 0
1388 1 40.189946983483445 6.575517078515348 1.762824619775104 0 0 0
1386 4 36.36233298505646 8.787658039101984 -0.07412868931952724 0 0 0
1543 1 38.27613998427024 9.890328037033342 1.762824619775099 0 0 0
1392 4 40.189946983483466 8.787658039101984 -0.07412868931952762 0 0 0
1394 1 44.01756098191045 6.575517078515347 1.7628246197751039 0 0 0
1549 1 42.10375398269724 9.890328037033346 1.762824619775103 0 0 0
1398 4 44.01756098191047 8.78765803910199 -0.07412868931952167 0 0 0
1555 1 45.93136798112425 9.890328037033347 1.7628246197751045 0 0 0
1400 1 47.845174980337454 6.575517078515343 1.7628246197751025 0 0 0
1250 1 51.67278897876445 6.575517078515348 1.7628246197751085 -1 0 0
1404 4 47.84517498033747 8.787658039101983 -0.07412868931952636 0 0 0
1254 4 51.672788978764466 8.787658039101988 -0.07412868931952137 -1 0 0
1405 1 49.75898197955124 9.890328037033344 1.7628246197751034 -1 0 0
1256 1 55.50040297719145 6.575517078515346 1.762824619775103 -1 0 0
1411 1 53.58659597797824 9.890328037033347 1.7628246197751052 -1 0 0
1260 4 55.50040297719146 8.787658039101986 -0.07412868931952396 -1 0 0
1417 1 57.414209976405246 9.890328037033342 1.7628246197750994 -1 0 0
1262 1 59.32801697561845 6.575517078515346 1.762824619775104 -1 0 0
1268 1 63.15563097404546 6.575517078515349 1.762824619775107 -1 0 0
1266 4 59.32801697561847 8.787658039101984 -0.07412868931952721 -1 0 0
1423 1 61.241823974832236 9.890328037033346 1.7628246197751012 -1 0 0
1272 4 63.15563097404548 8.787658039101993 -0.07412868931951655 -1 0 0
1274 1 66.98324497247245 6.575517078515347 1.7628246197751116 -1 0 0
1429 1 65.06943797325926 9.890328037033344 1.7628246197751105 -1 0 0
1278 4 66.98324497247248 8.787658039101979 -0.07412868931953052 -1 0 0
1435 1 68.89705197168624 9.89032803703334 1.7628246197751007 -1 0 0
1280 1 70.81085897089945 6.57551707851535 1.7628246197751025 -1 0 0
1286 1 74.63847296932646 6.575517078515341 1.7628246197750947 -1 0 0
1284 4 70.81085897089949 8.787658039101988 -0.07412868931952481 -1 0 0
1441 1 72.72466597011325 9.890328037033349 1.7628246197751023 -1 0 0
1290 4 74.63847296932649 8.787658039101988 -0.0741286893195232 -1 0 0
1292 1 78.46608696775344 6.57551707851535 1.76282461977511 -1 0 0
1447 1 76.55227996854026 9.890328037033347 1.7628246197751092 -1 0 0
1296 4 78.46608696775347 8.787658039101988 -0.0741286893195276 -1 0 0
1453 1 80.37989396696726 9.89032803703334 1.7628246197750972 -1 0 0
1298 1 82.29370096618044 6.575517078515347 1.7628246197751054 -1 0 0
1304 1 86.12131496460745 6.575517078515348 1.762824619775111 -1 0 0
1302 4 82.2937009661805 8.787658039101984 -0.07412868931952322 -1 0 0
1459 1 84.20750796539424 9.890328037033347 1.7628246197751107 -1 0 0
1308 4 86.12131496460748 8.787658039101984 -0.07412868931952508 -1 0 0
1310 1 89.94892896303445 6.575517078515349 1.7628246197751016 -1 0 0
1465 1 88.03512196382125 9.89032803703334 1.7628246197751007 -1 0 0
1314 4 89.94892896303449 8.787658039101986 -0.07412868931952821 -1 0 0
1471 1 91.86273596224825 9.890328037033347 1.7628246197751036 -1 0 0
1316 1 93.77654296146146 6.575517078515341 1.7628246197750943 -1 0 0
1322 1 97.60415695988844 6.575517078515348 1.7628246197751036 -1 0 0
1320 4 93.77654296146149 8.787658039101988 -0.07412868931952435 -1 0 0
1477 1 95.69034996067525 9.890328037033349 1.762824619775112 -1 0 0
1326 4 97.60415695988846 8.787658039101986 -0.07412868931952728 -1 0 0
1493 4 3.827613998426908 12.102468997619987 -0.0741286893195251 0 0 0
1484 1 1.9138069992134472 13.205138995551346 1.7628246197751039 0 0 0
1490 1 5.7414209976404464 13.205138995551348 1.762824619775109 0 0 0
1488 4 1.91380699921347 15.417279956137982 -0.07412868931952518 0 0 0
1494 4 5.741420997640467 15.417279956137985 -0.07412868931952456 0 0 0
1639 1 2.4158453015843406e-13 16.51994995406934 1.7628246197750963 0 0 0
1645 1 3.827613998427244 16.519949954069343 1.7628246197751012 0 0 0
1499 4 7.655227996853907 12.102468997619988 -0.0741286893195248 0 0 0
1505 4 11.482841995280904 12.102468997619987 -0.07412868931952533 0 0 0
1496 1 9.569034996067444 13.205138995551348 1.7628246197751063 0 0 0
1500 4 9.569034996067465 15.417279956137984 -0.07412868931952674 0 0 0
1651 1 7.655227996854243 16.51994995406934 1.7628246197751027 0 0 0
1657 1 11.482841995281245 16.51994995406934 1.7628246197750972 0 0 0
1511 4 15.310455993707905 12.102468997619987 -0.07412868931952349 0 0 0
1502 1 13.396648994494441 13.205138995551346 1.7628246197751019 0 0 0
1508 1 17.224262992921446 13.205138995551346 1.7628246197751039 0 0 0
1506 4 13.396648994494473 15.417279956137987 -0.07412868931952238 0 0 0
1512 4 17.224262992921464 15.417279956137987 -0.07412868931952375 0 0 0
1663 1 15.310455993708244 16.519949954069347 1.7628246197751012 0 0 0
1517 4 19.138069992134913 12.102468997619988 -0.07412868931952353 0 0 0
1523 4 22.965683990561914 12.102468997619988 -0.07412868931952551 0 0 0
1514 1 21.051876991348454 13.205138995551346 1.762824619775106 0 0 0
1518 4 21.05187699134847 15.417279956137984 -0.07412868931952543 0 0 0
1669 1 19.138069992135243 16.51994995406934 1.7628246197751003 0 0 0
1675 1 22.96568399056224 16.51994995406934 1.7628246197750983 0 0 0
1529 4 26.793297988988904 12.102468997619988 -0.07412868931952503 0 0 0
1520 1 24.879490989775444 13.20513899555135 1.7628246197751076 0 0 0
1526 1 28.707104988202442 13.205138995551346 1.7628246197751032 0 0 0
1524 4 24.87949098977547 15.417279956137984 -0.07412868931952402 0 0 0
1530 4 28.70710498820247 15.417279956137985 -0.0741286893195251 0 0 0
1681 1 26.793297988989245 16.51994995406934 1.7628246197750999 0 0 0
1535 4 30.620911987415905 12.102468997619985 -0.07412868931952553 0 0 0
1541 4 34.448525985842906 12.10246899761999 -0.07412868931952399 0 0 0
1532 1 32.53471898662945 13.205138995551346 1.762824619775106 0 0 0
1536 4 32.534718986629464 15.417279956137985 -0.07412868931952668 0 0 0
1687 1 30.620911987416243 16.519949954069343 1.7628246197750976 0 0 0
1693 1 34.44852598584324 16.51994995406934 1.7628246197751012 0 0 0
1547 4 38.27613998426991 12.102468997619985 -0.07412868931952445 0 0 0
1538 1 36.36233298505645 13.205138995551346 1.762824619775107 0 0 0
1544 1 40.189946983483445 13.205138995551346 1.7628246197751072 0 0 0
1542 4 36.36233298505646 15.417279956137984 -0.07412868931952671 0 0 0
1548 4 40.189946983483466 15.417279956137984 -0.07412868931952828 0 0 0
1699 1 38.27613998427024 16.51994995406934 1.7628246197750999 0 0 0
1553 4 42.10375398269691 12.102468997619988 -0.07412868931952282 0 0 0
1559 4 45.93136798112391 12.102468997619988 -0.07412868931952661 0 0 0
1550 1 44.01756098191045 13.205138995551346 1.762824619775105 0 0 0
1554 4 44.01756098191047 15.417279956137987 -0.07412868931952177 0 0 0
1705 1 42.10375398269724 16.519949954069343 1.7628246197751025 0 0 0
1711 1 45.93136798112425 16.519949954069343 1.7628246197751047 0 0 0
1409 4 49.75898197955092 12.102468997619983 -0.07412868931952732 -1 0 0
1556 1 47.845174980337454 13.205138995551344 1.7628246197751005 0 0 0
1406 1 51.672788978764444 13.205138995551348 1.7628246197751087 -1 0 0
1560 4 47.84517498033747 15.417279956137982 -0.07412868931952568 0 0 0
1410 4 51.672788978764466 15.417279956137987 -0.07412868931952249 -1 0 0
1561 1 49.758981979551244 16.519949954069343 1.762824619775102 -1 0 0
1415 4 53.58659597797791 12.10246899761999 -0.07412868931952261 -1 0 0
1421 4 57.41420997640492 12.102468997619987 -0.07412868931952483 -1 0 0
1412 1 55.50040297719145 13.205138995551346 1.7628246197751025 -1 0 0
1416 4 55.50040297719146 15.417279956137987 -0.07412868931952701 -1 0 0
1567 1 53.58659597797824 16.51994995406934 1.7628246197751056 -1 0 0
1573 1 57.414209976405246 16.51994995406934 1.7628246197750963 -1 0 0
1427 4 61.24182397483192 12.102468997619988 -0.07412868931952918 -1 0 0
1418 1 59.32801697561845 13.205138995551348 1.762824619775103 -1 0 0
1424 1 63.15563097404545 13.205138995551346 1.7628246197751063 -1 0 0
1422 4 59.32801697561847 15.417279956137984 -0.07412868931952656 -1 0 0
1428 4 63.15563097404548 15.41727995613799 -0.07412868931951534 -1 0 0
1579 1 61.241823974832236 16.519949954069343 1.7628246197750976 -1 0 0
1433 4 65.0694379732589 12.102468997619983 -0.07412868931952872 -1 0 0
1439 4 68.8970519716859 12.10246899761999 -0.074128689319518 -1 0 0
1430 1 66.98324497247243 13.205138995551348 1.7628246197751105 -1 0 0
1434 4 66.98324497247248 15.417279956137978 -0.07412868931953165 -1 0 0
1585 1 65.06943797325926 16.519949954069343 1.7628246197751072 -1 0 0
1591 1 68.89705197168624 16.519949954069336 1.762824619775098 -1 0 0
1445 4 72.7246659701129 12.10246899761999 -0.07412868931952292 -1 0 0
1436 1 70.81085897089945 13.20513899555135 1.7628246197751043 -1 0 0
1442 1 74.63847296932646 13.20513899555134 1.7628246197750959 -1 0 0
1440 4 70.81085897089949 15.417279956137985 -0.07412868931952697 -1 0 0
1446 4 74.63847296932649 15.417279956137987 -0.07412868931952404 -1 0 0
1597 1 72.72466597011325 16.51994995406934 1.7628246197750996 -1 0 0
1451 4 76.5522799685399 12.102468997619985 -0.07412868931952857 -1 0 0
1457 4 80.37989396696689 12.10246899761999 -0.07412868931952073 -1 0 0
1448 1 78.46608696775344 13.20513899555135 1.7628246197751087 -1 0 0
1452 4 78.46608696775347 15.417279956137989 -0.07412868931952585 -1 0 0
1603 1 76.55227996854026 16.519949954069343 1.7628246197751112 -1 0 0
1609 1 80.37989396696726 16.51994995406934 1.7628246197750925 -1 0 0
1463 4 84.2075079653939 12.102468997619988 -0.07412868931952434 -1 0 0
1454 1 82.29370096618044 13.205138995551346 1.7628246197751052 -1 0 0
1460 1 86.12131496460745 13.205138995551346 1.7628246197751085 -1 0 0
1458 4 82.2937009661805 15.417279956137982 -0.0741286893195229 -1 0 0
1464 4 86.12131496460748 15.417279956137989 -0.07412868931952547 -1 0 0
1615 1 84.20750796539424 16.519949954069347 1.7628246197751087 -1 0 0
1469 4 88.03512196382091 12.102468997619988 -0.07412868931952396 -1 0 0
1475 4 91.8627359622479 12.10246899761999 -0.07412868931952254 -1 0 0
1466 1 89.94892896303445 13.20513899555135 1.7628246197751056 -1 0 0
1470 4 89.94892896303449 15.417279956137984 -0.07412868931952826 -1 0 0
1621 1 88.03512196382125 16.51994995406934 1.7628246197751 -1 0 0
1627 1 91.86273596224825 16.519949954069343 1.7628246197751016 -1 0 0
1487 4 99.5179639591019 12.102468997619994 -0.07412868931951824 -1 0 0
1481 4 95.69034996067491 12.10246899761998 -0.07412868931953055 -1 0 0
1472 1 93.77654296146146 13.20513899555134 1.7628246197750959 -1 0 0
1478 1 97.60415695988844 13.205138995551348 1.7628246197751032 -1 0 0
1476 4 93.77654296146149 15.417279956137987 -0.07412868931952366 -1 0 0
1482 4 97.60415695988846 15.417279956137987 -0.07412868931952767 -1 0 0
1633 1 95.69034996067525 16.519949954069343 1.762824619775107 -1 0 0
1640 1 1.9138069992134472 19.83476091258734 1.762824619775105 0 0 0
1649 4 3.827613998426908 18.73209091465598 -0.07412868931952692 0 0 0
1646 1 5.7414209976404464 19.83476091258734 1.7628246197751054 0 0 0
1644 4 1.9138069992134712 22.046901873173987 -0.07412868931952395 0 0 0
1650 4 5.741420997640467 22.04690187317399 -0.07412868931952032 0 0 0
1795 1 2.5579538487363607e-13 23.14957187110535 1.7628246197750992 0 0 0
1801 1 3.827613998427245 23.14957187110535 1.7628246197751058 0 0 0
1655 4 7.655227996853907 18.73209091465598 -0.07412868931952586 0 0 0
1652 1 9.569034996067446 19.83476091258734 1.7628246197751039 0 0 0
1661 4 11.482841995280905 18.73209091465598 -0.07412868931952646 0 0 0
1656 4 9.569034996067465 22.046901873173987 -0.07412868931952374 0 0 0
1807 1 7.655227996854244 23.149571871105355 1.7628246197751058 0 0 0
1813 1 11.482841995281243 23.14957187110535 1.7628246197751027 0 0 0
1658 1 13.396648994494443 19.834760912587335 1.7628246197751032 0 0 0
1667 4 15.310455993707905 18.732090914655977 -0.07412868931952528 0 0 0
1664 1 17.224262992921446 19.834760912587335 1.7628246197751039 0 0 0
1662 4 13.396648994494473 22.04690187317399 -0.07412868931951833 0 0 0
1668 4 17.22426299292146 22.046901873173987 -0.07412868931952128 0 0 0
1819 1 15.310455993708244 23.14957187110536 1.7628246197751083 0 0 0
1673 4 19.138069992134913 18.73209091465598 -0.07412868931952361 0 0 0
1670 1 21.051876991348454 19.83476091258734 1.7628246197751052 0 0 0
1679 4 22.96568399056191 18.73209091465598 -0.07412868931952661 0 0 0
1674 4 21.05187699134847 22.046901873173987 -0.07412868931952184 0 0 0
1825 1 19.13806999213524 23.14957187110535 1.7628246197751027 0 0 0
1831 1 22.96568399056224 23.14957187110535 1.762824619775103 0 0 0
1685 4 26.793297988988904 18.73209091465598 -0.0741286893195279 0 0 0
1676 1 24.879490989775444 19.83476091258734 1.7628246197751058 0 0 0
1682 1 28.707104988202442 19.83476091258734 1.7628246197751045 0 0 0
1680 4 24.87949098977547 22.04690187317399 -0.0741286893195205 0 0 0
1686 4 28.70710498820247 22.04690187317399 -0.0741286893195212 0 0 0
1837 1 26.79329798898924 23.14957187110535 1.7628246197751043 0 0 0
1691 4 30.620911987415905 18.732090914655977 -0.07412868931952932 0 0 0
1688 1 32.53471898662944 19.83476091258734 1.7628246197751043 0 0 0
1697 4 34.448525985842906 18.73209091465598 -0.07412868931952216 0 0 0
1692 4 32.534718986629464 22.046901873173987 -0.07412868931952049 0 0 0
1843 1 30.620911987416243 23.14957187110536 1.7628246197751034 0 0 0
1849 1 34.44852598584324 23.14957187110535 1.7628246197751027 0 0 0
1694 1 36.36233298505645 19.83476091258734 1.7628246197751056 0 0 0
1703 4 38.2761399842699 18.73209091465598 -0.07412868931952626 0 0 0
1700 1 40.189946983483445 19.83476091258734 1.7628246197751036 0 0 0
1698 4 36.36233298505646 22.046901873173987 -0.07412868931952382 0 0 0
1704 4 40.189946983483466 22.04690187317399 -0.07412868931952378 0 0 0
1855 1 38.27613998427024 23.14957187110535 1.7628246197751045 0 0 0
1709 4 42.10375398269691 18.732090914655984 -0.07412868931952231 0 0 0
1706 1 44.01756098191045 19.83476091258734 1.7628246197751063 0 0 0
1715 4 45.93136798112391 18.73209091465598 -0.07412868931952737 0 0 0
1710 4 44.01756098191047 22.04690187317399 -0.07412868931951812 0 0 0
1861 1 42.103753982697235 23.149571871105355 1.7628246197751047 0 0 0
1867 1 45.93136798112425 23.149571871105355 1.7628246197751096 0 0 0
1712 1 47.845174980337454 19.834760912587335 1.7628246197751012 0 0 0
1565 4 49.75898197955092 18.73209091465598 -0.07412868931952876 -1 0 0
1562 1 51.67278897876445 19.83476091258734 1.7628246197751098 -1 0 0
1716 4 47.84517498033747 22.046901873173987 -0.07412868931952184 0 0 0
1566 4 51.672788978764466 22.04690187317399 -0.07412868931951999 -1 0 0
1717 1 49.758981979551244 23.14957187110535 1.7628246197751092 -1 0 0
1571 4 53.5865959779779 18.732090914655977 -0.07412868931952568 -1 0 0
1568 1 55.50040297719145 19.834760912587335 1.762824619775101 -1 0 0
1577 4 57.41420997640491 18.73209091465598 -0.07412868931952538 -1 0 0
1572 4 55.50040297719146 22.04690187317399 -0.07412868931952292 -1 0 0
1723 1 53.58659597797824 23.149571871105355 1.7628246197751105 -1 0 0
1729 1 57.414209976405246 23.14957187110535 1.7628246197751023 -1 0 0
1574 1 59.32801697561845 19.834760912587342 1.762824619775105 -1 0 0
1583 4 61.24182397483191 18.732090914655984 -0.07412868931952997 -1 0 0
1580 1 63.15563097404545 19.83476091258734 1.7628246197751045 -1 0 0
1578 4 59.32801697561846 22.046901873173987 -0.07412868931952417 -1 0 0
1584 4 63.15563097404548 22.046901873173994 -0.0741286893195082 -1 0 0
1735 1 61.241823974832236 23.14957187110535 1.7628246197751023 -1 0 0
1589 4 65.0694379732589 18.732090914655977 -0.07412868931952883 -1 0 0
1586 1 66.98324497247243 19.83476091258734 1.7628246197751114 -1 0 0
1595 4 68.8970519716859 18.73209091465598 -0.07412868931952307 -1 0 0
1590 4 66.98324497247248 22.046901873173983 -0.07412868931952206 -1 0 0
1741 1 65.06943797325926 23.14957187110536 1.7628246197751076 -1 0 0
1747 1 68.89705197168625 23.149571871105348 1.7628246197751012 -1 0 0
1592 1 70.81085897089945 19.834760912587342 1.7628246197751003 -1 0 0
1601 4 72.7246659701129 18.73209091465598 -0.07412868931952503 -1 0 0
1598 1 74.63847296932646 19.834760912587335 1.7628246197750943 -1 0 0
1596 4 70.81085897089949 22.04690187317399 -0.074128689319522 -1 0 0
1602 4 74.63847296932649 22.04690187317399 -0.07412868931951763 -1 0 0
1753 1 72.72466597011325 23.149571871105355 1.7628246197751045 -1 0 0
1607 4 76.55227996853992 18.732090914655977 -0.07412868931952814 -1 0 0
1604 1 78.46608696775344 19.834760912587345 1.762824619775112 -1 0 0
1613 4 80.3798939669669 18.732090914655984 -0.0741286893195232 -1 0 0
1608 4 78.46608696775347 22.046901873173994 -0.07412868931952511 -1 0 0
1759 1 76.55227996854026 23.149571871105355 1.7628246197751178 -1 0 0
1765 1 80.37989396696726 23.149571871105348 1.7628246197751 -1 0 0
1610 1 82.29370096618044 19.83476091258734 1.7628246197751047 -1 0 0
1619 4 84.2075079653939 18.732090914655984 -0.07412868931952385 -1 0 0
1616 1 86.12131496460745 19.83476091258734 1.7628246197751083 -1 0 0
1614 4 82.2937009661805 22.046901873173983 -0.07412868931951892 -1 0 0
1620 4 86.12131496460748 22.04690187317399 -0.07412868931951891 -1 0 0
1771 1 84.20750796539426 23.14957187110536 1.762824619775109 -1 0 0
1625 4 88.03512196382091 18.73209091465598 -0.07412868931952403 -1 0 0
1622 1 89.94892896303445 19.834760912587345 1.7628246197751019 -1 0 0
1631 4 91.86273596224791 18.732090914655984 -0.0741286893195251 -1 0 0
1626 4 89.94892896303449 22.04690187317399 -0.07412868931952397 -1 0 0
1777 1 88.03512196382125 23.14957187110535 1.762824619775104 -1 0 0
1783 1 91.86273596224825 23.149571871105355 1.7628246197751045 -1 0 0
1643 4 99.5179639591019 18.732090914655984 -0.07412868931952048 -1 0 0
1628 1 93.77654296146146 19.834760912587335 1.7628246197750959 -1 0 0
1637 4 95.69034996067491 18.732090914655974 -0.0741286893195325 -1 0 0
1634 1 97.60415695988844 19.83476091258734 1.7628246197751036 -1 0 0
1632 4 93.77654296146149 22.046901873173994 -0.0741286893195188 -1 0 0
1638 4 97.60415695988847 22.04690187317399 -0.0741286893195222 -1 0 0
1789 1 95.69034996067525 23.149571871105355 1.7628246197751163 -1 0 0
1796 1 1.9138069992134472 26.46438282962334 1.7628246197751007 0 0 0
1805 4 3.8276139984269086 25.36171283169199 -0.07412868931953097 0 0 0
1802 1 5.741420997640446 26.46438282962334 1.7628246197751034 0 0 0
1800 4 1.913806999213469 28.676523790209977 -0.07412868931952832 0 0 0
1806 4 5.741420997640468 28.676523790209977 -0.07412868931952728 0 0 0
1811 4 7.655227996853906 25.361712831691992 -0.07412868931952983 0 0 0
1808 1 9.569034996067444 26.46438282962334 1.7628246197751014 0 0 0
1817 4 11.482841995280904 25.361712831691992 -0.0741286893195309 0 0 0
1812 4 9.569034996067465 28.676523790209977 -0.07412868931952891 0 0 0
1814 1 13.396648994494443 26.46438282962334 1.762824619775101 0 0 0
1823 4 15.310455993707905 25.361712831691992 -0.07412868931952865 0 0 0
1820 1 17.224262992921446 26.464382829623336 1.7628246197751016 0 0 0
1818 4 13.396648994494472 28.676523790209977 -0.07412868931952483 0 0 0
1824 4 17.22426299292146 28.676523790209977 -0.07412868931952797 0 0 0
1829 4 19.138069992134913 25.361712831691996 -0.07412868931952785 0 0 0
1826 1 21.051876991348454 26.464382829623343 1.762824619775103 0 0 0
1835 4 22.96568399056191 25.361712831691992 -0.07412868931953036 0 0 0
1830 4 21.05187699134847 28.676523790209977 -0.07412868931952823 0 0 0
1841 4 26.793297988988904 25.361712831691992 -0.07412868931953152 0 0 0
1832 1 24.879490989775444 26.46438282962334 1.762824619775103 0 0 0
1838 1 28.707104988202445 26.46438282962334 1.7628246197750999 0 0 0
1836 4 24.87949098977547 28.676523790209977 -0.07412868931952606 0 0 0
1842 4 28.70710498820247 28.676523790209977 -0.07412868931952751 0 0 0
1847 4 30.620911987415905 25.361712831691992 -0.07412868931953218 0 0 0
1844 1 32.53471898662945 26.46438282962334 1.7628246197750994 0 0 0
1853 4 34.448525985842906 25.361712831691996 -0.07412868931952626 0 0 0
1848 4 32.534718986629464 28.676523790209977 -0.07412868931952812 0 0 0
1850 1 36.36233298505645 26.464382829623343 1.7628246197751023 0 0 0
1859 4 38.27613998426991 25.361712831691992 -0.07412868931952919 0 0 0
1856 1 40.189946983483445 26.46438282962334 1.7628246197751014 0 0 0
1854 4 36.36233298505646 28.676523790209977 -0.07412868931953043 0 0 0
1860 4 40.189946983483466 28.676523790209977 -0.07412868931953152 0 0 0
1865 4 42.10375398269691 25.361712831691992 -0.07412868931952757 0 0 0
1862 1 44.01756098191045 26.46438282962334 1.7628246197751005 0 0 0
1871 4 45.93136798112391 25.361712831691992 -0.07412868931953286 0 0 0
1866 4 44.01756098191047 28.67652379020998 -0.0741286893195249 0 0 0
1868 1 47.845174980337454 26.464382829623336 1.7628246197750965 0 0 0
1721 4 49.75898197955091 25.361712831691985 -0.07412868931953263 -1 0 0
1718 1 51.672788978764444 26.46438282962334 1.7628246197750992 -1 0 0
1872 4 47.84517498033747 28.676523790209977 -0.07412868931952854 0 0 0
1722 4 51.672788978764466 28.67652379020998 -0.07412868931952488 -1 0 0
1727 4 53.58659597797791 25.361712831691996 -0.07412868931952775 -1 0 0
1724 1 55.50040297719145 26.46438282962334 1.762824619775099 -1 0 0
1733 4 57.41420997640491 25.361712831691996 -0.07412868931953101 -1 0 0
1728 4 55.50040297719146 28.67652379020998 -0.07412868931952693 -1 0 0
1730 1 59.32801697561845 26.464382829623343 1.7628246197751 -1 0 0
1739 4 61.24182397483192 25.361712831691996 -0.07412868931953256 -1 0 0
1736 1 63.15563097404545 26.46438282962334 1.7628246197751047 -1 0 0
1734 4 59.32801697561847 28.676523790209973 -0.07412868931952862 -1 0 0
1740 4 63.15563097404548 28.676523790209984 -0.07412868931951641 -1 0 0
1745 4 65.0694379732589 25.361712831691992 -0.07412868931953344 -1 0 0
1742 1 66.98324497247243 26.46438282962334 1.7628246197751083 -1 0 0
1751 4 68.89705197168591 25.361712831691992 -0.07412868931952704 -1 0 0
1746 4 66.98324497247248 28.676523790209973 -0.07412868931953093 -1 0 0
1748 1 70.81085897089945 26.464382829623343 1.7628246197750985 -1 0 0
1757 4 72.7246659701129 25.361712831691992 -0.07412868931952787 -1 0 0
1754 1 74.63847296932646 26.464382829623336 1.7628246197750916 -1 0 0
1752 4 70.81085897089949 28.676523790209977 -0.07412868931952575 -1 0 0
1758 4 74.63847296932649 28.676523790209984 -0.07412868931952327 -1 0 0
1763 4 76.5522799685399 25.361712831691985 -0.0741286893195334 -1 0 0