LAMMPS data file via write_data, version 29 Aug 2024, timestep = 0, units = metal

2340 atoms
3 atom types

0 99.517963959102 xlo xhi
0 99.44432875554 ylo yhi
0 18.824048281266 zlo zhi

Masses

1 44.955908
2 127.6
3 127.6

Atoms # atomic

1172 1 1.913806999213996 0 1.899273134476 0 0 0
1178 1 5.741420997641001 0 1.899273134476 0 0 0
1184 1 9.569034996067998 0 1.899273134476 0 0 0
1190 1 13.396648994494996 0 1.899273134476 0 0 0
1196 1 17.224262992922 0 1.899273134476 0 0 0
1202 1 21.051876991348998 0 1.899273134476 0 0 0
1208 1 24.879490989775995 0 1.899273134476 0 0 0
1214 1 28.707104988202993 0 1.899273134476 0 0 0
1220 1 32.534718986630004 0 1.899273134476 0 0 0
1226 1 36.362332985057 0 1.899273134476 0 0 0
1232 1 40.189946983484 0 1.899273134476 0 0 0
1238 1 44.017560981911 0 1.899273134476 0 0 0
1244 1 47.845174980337994 0 1.899273134476 0 0 0
1094 1 51.672788978765006 0 1.899273134476 -1 0 0
1100 1 55.500402977192 0 1.899273134476 -1 0 0
1106 1 59.328016975619 0 1.899273134476 -1 0 0
1112 1 63.155630974046005 0 1.899273134476 -1 0 0
1118 1 66.983244972473 0 1.899273134476 -1 0 0
1124 1 70.8108589709 0 1.899273134476 -1 0 0
1130 1 74.638472969327 0 1.899273134476 -1 0 0
1136 1 78.466086967754 0 1.899273134476 -1 0 0
1142 1 82.293700966181 0 1.899273134476 -1 0 0
1148 1 86.121314964608 0 1.899273134476 -1 0 0
1154 1 89.948928963035 0 1.899273134476 -1 0 0
1160 1 93.776542961462 0 1.899273134476 -1 0 0
1166 1 97.604156959889 0 1.899273134476 -1 0 0
1176 3 1.913806999213996 2.209873972346003 0 0 0 0
1327 1 0 3.3148109585180023 1.899273134476 0 0 0
1333 1 3.8276139984269975 3.3148109585180023 1.899273134476 0 0 0
1182 3 5.741420997641001 2.209873972346003 0 0 0 0
1339 1 7.655227996853995 3.3148109585180023 1.899273134476 0 0 0
1188 3 9.569034996067998 2.209873972346003 0 0 0 0
1345 1 11.482841995281 3.3148109585180023 1.899273134476 0 0 0
1194 3 13.396648994494996 2.209873972346003 0 0 0 0
1351 1 15.310455993707997 3.3148109585180023 1.899273134476 0 0 0
1200 3 17.224262992922 2.209873972346003 0 0 0 0
1357 1 19.138069992134994 3.3148109585180023 1.899273134476 0 0 0
1206 3 21.051876991348998 2.209873972346003 0 0 0 0
1363 1 22.965683990561992 3.3148109585180023 1.899273134476 0 0 0
1212 3 24.879490989775995 2.209873972346003 0 0 0 0
1369 1 26.793297988989003 3.3148109585180023 1.899273134476 0 0 0
1218 3 28.707104988202993 2.209873972346003 0 0 0 0
1375 1 30.620911987416 3.3148109585180023 1.899273134476 0 0 0
1224 3 32.534718986630004 2.209873972346003 0 0 0 0
1381 1 34.448525985843 3.3148109585180023 1.899273134476 0 0 0
1230 3 36.362332985057 2.209873972346003 0 0 0 0
1387 1 38.276139984269996 3.3148109585180023 1.899273134476 0 0 0
1236 3 40.189946983484 2.209873972346003 0 0 0 0
1393 1 42.10375398269699 3.3148109585180023 1.899273134476 0 0 0
1242 3 44.017560981911 2.209873972346003 0 0 0 0
1399 1 45.93136798112399 3.3148109585180023 1.899273134476 0 0 0
1248 3 47.845174980337994 2.209873972346003 0 0 0 0
1098 3 51.672788978765006 2.209873972346003 0 -1 0 0
1249 1 49.758981979551 3.3148109585180023 1.899273134476 -1 0 0
1255 1 53.586595977978 3.3148109585180023 1.899273134476 -1 0 0
1104 3 55.500402977192 2.209873972346003 0 -1 0 0
1261 1 57.414209976405004 3.3148109585180023 1.899273134476 -1 0 0
1110 3 59.328016975619 2.209873972346003 0 -1 0 0
1267 1 61.241823974832 3.3148109585180023 1.899273134476 -1 0 0
1116 3 63.155630974046005 2.209873972346003 0 -1 0 0
1273 1 65.069437973259 3.3148109585180023 1.899273134476 -1 0 0
1122 3 66.983244972473 2.209873972346003 0 -1 0 0
1279 1 68.89705197168601 3.3148109585180023 1.899273134476 -1 0 0
1128 3 70.8108589709 2.209873972346003 0 -1 0 0
1285 1 72.724665970113 3.3148109585180023 1.899273134476 -1 0 0
1134 3 74.638472969327 2.209873972346003 0 -1 0 0
1291 1 76.55227996854 3.3148109585180023 1.899273134476 -1 0 0
1140 3 78.466086967754 2.209873972346003 0 -1 0 0
1297 1 80.379893966967 3.3148109585180023 1.899273134476 -1 0 0
1146 3 82.293700966181 2.209873972346003 0 -1 0 0
1303 1 84.207507965394 3.3148109585180023 1.899273134476 -1 0 0
1152 3 86.121314964608 2.209873972346003 0 -1 0 0
1309 1 88.03512196382101 3.3148109585180023 1.899273134476 -1 0 0
1158 3 89.948928963035 2.209873972346003 0 -1 0 0
1315 1 91.862735962248 3.3148109585180023 1.899273134476 -1 0 0
1164 3 93.776542961462 2.209873972346003 0 -1 0 0
1321 1 95.69034996067501 3.3148109585180023 1.899273134476 -1 0 0
1170 3 97.604156959889 2.209873972346003 0 -1 0 0
1331 3 0 5.524684930863998 0 0 0 0
1337 3 3.8276139984269975 5.524684930863998 0 0 0 0
1343 3 7.655227996853995 5.524684930863998 0 0 0 0
1349 3 11.482841995281 5.524684930863998 0 0 0 0
1355 3 15.310455993707997 5.524684930863998 0 0 0 0
1361 3 19.138069992134994 5.524684930863998 0 0 0 0
1367 3 22.965683990561992 5.524684930863998 0 0 0 0
1373 3 26.793297988989003 5.524684930863998 0 0 0 0
1379 3 30.620911987416 5.524684930863998 0 0 0 0
1385 3 34.448525985843 5.524684930863998 0 0 0 0
1391 3 38.276139984269996 5.524684930863998 0 0 0 0
1397 3 42.10375398269699 5.524684930863998 0 0 0 0
1403 3 45.93136798112399 5.524684930863998 0 0 0 0
1253 3 49.758981979551 5.524684930863998 0 -1 0 0
1259 3 53.586595977978 5.524684930863998 0 -1 0 0
1265 3 57.414209976405004 5.524684930863998 0 -1 0 0
1271 3 61.241823974832 5.524684930863998 0 -1 0 0
1277 3 65.069437973259 5.524684930863998 0 -1 0 0
1283 3 68.89705197168601 5.524684930863998 0 -1 0 0
1289 3 72.724665970113 5.524684930863998 0 -1 0 0
1295 3 76.55227996854 5.524684930863998 0 -1 0 0
1301 3 80.379893966967 5.524684930863998 0 -1 0 0
1307 3 84.207507965394 5.524684930863998 0 -1 0 0
1313 3 88.03512196382101 5.524684930863998 0 -1 0 0
1319 3 91.862735962248 5.524684930863998 0 -1 0 0
1325 3 95.69034996067501 5.524684930863998 0 -1 0 0
1328 1 1.913806999213996 6.629621917035998 1.899273134476 0 0 0
1334 1 5.741420997641001 6.629621917035998 1.899273134476 0 0 0
1340 1 9.569034996067998 6.629621917035998 1.899273134476 0 0 0
1346 1 13.396648994494996 6.629621917035998 1.899273134476 0 0 0
1352 1 17.224262992922 6.629621917035998 1.899273134476 0 0 0
1358 1 21.051876991348998 6.629621917035998 1.899273134476 0 0 0
1364 1 24.879490989775995 6.629621917035998 1.899273134476 0 0 0
1370 1 28.707104988202993 6.629621917035998 1.899273134476 0 0 0
1376 1 32.534718986630004 6.629621917035998 1.899273134476 0 0 0
1382 1 36.362332985057 6.629621917035998 1.899273134476 0 0 0
1388 1 40.189946983484 6.629621917035998 1.899273134476 0 0 0
1394 1 44.017560981911 6.629621917035998 1.899273134476 0 0 0
1400 1 47.845174980337994 6.629621917035998 1.899273134476 0 0 0
1250 1 51.672788978765006 6.629621917035998 1.899273134476 -1 0 0
1256 1 55.500402977192 6.629621917035998 1.899273134476 -1 0 0
1262 1 59.328016975619 6.629621917035998 1.899273134476 -1 0 0
1268 1 63.155630974046005 6.629621917035998 1.899273134476 -1 0 0
1274 1 66.983244972473 6.629621917035998 1.899273134476 -1 0 0
1280 1 70.8108589709 6.629621917035998 1.899273134476 -1 0 0
1286 1 74.638472969327 6.629621917035998 1.899273134476 -1 0 0
1292 1 78.466086967754 6.629621917035998 1.899273134476 -1 0 0
1298 1 82.293700966181 6.629621917035998 1.899273134476 -1 0 0
1304 1 86.121314964608 6.629621917035998 1.899273134476 -1 0 0
1310 1 89.948928963035 6.629621917035998 1.899273134476 -1 0 0
1316 1 93.776542961462 6.629621917035998 1.899273134476 -1 0 0
1322 1 97.604156959889 6.629621917035998 1.899273134476 -1 0 0
1332 3 1.913806999213996 8.839495889382 0 0 0 0
1483 1 0 9.944432875554 1.899273134476 0 0 0
1489 1 3.8276139984269975 9.944432875554 1.899273134476 0 0 0
1338 3 5.741420997641001 8.839495889382 0 0 0 0
1495 1 7.655227996853995 9.944432875554 1.899273134476 0 0 0
1344 3 9.569034996067998 8.839495889382 0 0 0 0
1501 1 11.482841995281 9.944432875554 1.899273134476 0 0 0
1350 3 13.396648994494996 8.839495889382 0 0 0 0
1507 1 15.310455993707997 9.944432875554 1.899273134476 0 0 0
1356 3 17.224262992922 8.839495889382 0 0 0 0
1513 1 19.138069992134994 9.944432875554 1.899273134476 0 0 0
1362 3 21.051876991348998 8.839495889382 0 0 0 0
1519 1 22.965683990561992 9.944432875554 1.899273134476 0 0 0
1368 3 24.879490989775995 8.839495889382 0 0 0 0
1525 1 26.793297988989003 9.944432875554 1.899273134476 0 0 0
1374 3 28.707104988202993 8.839495889382 0 0 0 0
1531 1 30.620911987416 9.944432875554 1.899273134476 0 0 0
1380 3 32.534718986630004 8.839495889382 0 0 0 0
1537 1 34.448525985843 9.944432875554 1.899273134476 0 0 0
1386 3 36.362332985057 8.839495889382 0 0 0 0
1543 1 38.276139984269996 9.944432875554 1.899273134476 0 0 0
1392 3 40.189946983484 8.839495889382 0 0 0 0
1549 1 42.10375398269699 9.944432875554 1.899273134476 0 0 0
1398 3 44.017560981911 8.839495889382 0 0 0 0
1555 1 45.93136798112399 9.944432875554 1.899273134476 0 0 0
1404 3 47.845174980337994 8.839495889382 0 0 0 0
1254 3 51.672788978765006 8.839495889382 0 -1 0 0
1405 1 49.758981979551 9.944432875554 1.899273134476 -1 0 0
1411 1 53.586595977978 9.944432875554 1.899273134476 -1 0 0
1260 3 55.500402977192 8.839495889382 0 -1 0 0
1417 1 57.414209976405004 9.944432875554 1.899273134476 -1 0 0
1266 3 59.328016975619 8.839495889382 0 -1 0 0
1423 1 61.241823974832 9.944432875554 1.899273134476 -1 0 0
1272 3 63.155630974046005 8.839495889382 0 -1 0 0
1429 1 65.069437973259 9.944432875554 1.899273134476 -1 0 0
1278 3 66.983244972473 8.839495889382 0 -1 0 0
1435 1 68.89705197168601 9.944432875554 1.899273134476 -1 0 0
1284 3 70.8108589709 8.839495889382 0 -1 0 0
1441 1 72.724665970113 9.944432875554 1.899273134476 -1 0 0
1290 3 74.638472969327 8.839495889382 0 -1 0 0
1447 1 76.55227996854 9.944432875554 1.899273134476 -1 0 0
1296 3 78.466086967754 8.839495889382 0 -1 0 0
1453 1 80.379893966967 9.944432875554 1.899273134476 -1 0 0
1302 3 82.293700966181 8.839495889382 0 -1 0 0
1459 1 84.207507965394 9.944432875554 1.899273134476 -1 0 0
1308 3 86.121314964608 8.839495889382 0 -1 0 0
1465 1 88.03512196382101 9.944432875554 1.899273134476 -1 0 0
1314 3 89.948928963035 8.839495889382 0 -1 0 0
1471 1 91.862735962248 9.944432875554 1.899273134476 -1 0 0
1320 3 93.776542961462 8.839495889382 0 -1 0 0
1477 1 95.69034996067501 9.944432875554 1.899273134476 -1 0 0
1326 3 97.604156959889 8.839495889382 0 -1 0 0
1487 3 0 12.154306847900003 0 0 0 0
1493 3 3.8276139984269975 12.154306847900003 0 0 0 0
1499 3 7.655227996853995 12.154306847900003 0 0 0 0
1505 3 11.482841995281 12.154306847900003 0 0 0 0
1511 3 15.310455993707997 12.154306847900003 0 0 0 0
1517 3 19.138069992134994 12.154306847900003 0 0 0 0
1523 3 22.965683990561992 12.154306847900003 0 0 0 0
1529 3 26.793297988989003 12.154306847900003 0 0 0 0
1535 3 30.620911987416 12.154306847900003 0 0 0 0
1541 3 34.448525985843 12.154306847900003 0 0 0 0
1547 3 38.276139984269996 12.154306847900003 0 0 0 0
1553 3 42.10375398269699 12.154306847900003 0 0 0 0
1559 3 45.93136798112399 12.154306847900003 0 0 0 0
1409 3 49.758981979551 12.154306847900003 0 -1 0 0
1415 3 53.586595977978 12.154306847900003 0 -1 0 0
1421 3 57.414209976405004 12.154306847900003 0 -1 0 0
1427 3 61.241823974832 12.154306847900003 0 -1 0 0
1433 3 65.069437973259 12.154306847900003 0 -1 0 0
1439 3 68.89705197168601 12.154306847900003 0 -1 0 0
1445 3 72.724665970113 12.154306847900003 0 -1 0 0
1451 3 76.55227996854 12.154306847900003 0 -1 0 0
1457 3 80.379893966967 12.154306847900003 0 -1 0 0
1463 3 84.207507965394 12.154306847900003 0 -1 0 0
1469 3 88.03512196382101 12.154306847900003 0 -1 0 0
1475 3 91.862735962248 12.154306847900003 0 -1 0 0
1481 3 95.69034996067501 12.154306847900003 0 -1 0 0
1484 1 1.913806999213996 13.259243834072002 1.899273134476 0 0 0
1490 1 5.741420997641001 13.259243834072002 1.899273134476 0 0 0
1496 1 9.569034996067998 13.259243834072002 1.899273134476 0 0 0
1502 1 13.396648994494996 13.259243834072002 1.899273134476 0 0 0
1508 1 17.224262992922 13.259243834072002 1.899273134476 0 0 0
1514 1 21.051876991348998 13.259243834072002 1.899273134476 0 0 0
1520 1 24.879490989775995 13.259243834072002 1.899273134476 0 0 0
1526 1 28.707104988202993 13.259243834072002 1.899273134476 0 0 0
1532 1 32.534718986630004 13.259243834072002 1.899273134476 0 0 0
1538 1 36.362332985057 13.259243834072002 1.899273134476 0 0 0
1544 1 40.189946983484 13.259243834072002 1.899273134476 0 0 0
1550 1 44.017560981911 13.259243834072002 1.899273134476 0 0 0
1556 1 47.845174980337994 13.259243834072002 1.899273134476 0 0 0
1406 1 51.672788978765006 13.259243834072002 1.899273134476 -1 0 0
1412 1 55.500402977192 13.259243834072002 1.899273134476 -1 0 0
1418 1 59.328016975619 13.259243834072002 1.899273134476 -1 0 0
1424 1 63.155630974046005 13.259243834072002 1.899273134476 -1 0 0
1430 1 66.983244972473 13.259243834072002 1.899273134476 -1 0 0
1436 1 70.8108589709 13.259243834072002 1.899273134476 -1 0 0
1442 1 74.638472969327 13.259243834072002 1.899273134476 -1 0 0
1448 1 78.466086967754 13.259243834072002 1.899273134476 -1 0 0
1454 1 82.293700966181 13.259243834072002 1.899273134476 -1 0 0
1460 1 86.121314964608 13.259243834072002 1.899273134476 -1 0 0
1466 1 89.948928963035 13.259243834072002 1.899273134476 -1 0 0
1472 1 93.776542961462 13.259243834072002 1.899273134476 -1 0 0
1478 1 97.604156959889 13.259243834072002 1.899273134476 -1 0 0
1488 3 1.913806999213996 15.469117806417998 0 0 0 0
1494 3 5.741420997641001 15.469117806417998 0 0 0 0
1500 3 9.569034996067998 15.469117806417998 0 0 0 0
1506 3 13.396648994494996 15.469117806417998 0 0 0 0
1512 3 17.224262992922 15.469117806417998 0 0 0 0
1518 3 21.051876991348998 15.469117806417998 0 0 0 0
1524 3 24.879490989775995 15.469117806417998 0 0 0 0
1530 3 28.707104988202993 15.469117806417998 0 0 0 0
1536 3 32.534718986630004 15.469117806417998 0 0 0 0
1542 3 36.362332985057 15.469117806417998 0 0 0 0
1548 3 40.189946983484 15.469117806417998 0 0 0 0
1554 3 44.017560981911 15.469117806417998 0 0 0 0
1560 3 47.845174980337994 15.469117806417998 0 0 0 0
1410 3 51.672788978765006 15.469117806417998 0 -1 0 0
1416 3 55.500402977192 15.469117806417998 0 -1 0 0
1422 3 59.328016975619 15.469117806417998 0 -1 0 0
1428 3 63.155630974046005 15.469117806417998 0 -1 0 0
1434 3 66.983244972473 15.469117806417998 0 -1 0 0
1440 3 70.8108589709 15.469117806417998 0 -1 0 0
1446 3 74.638472969327 15.469117806417998 0 -1 0 0
1452 3 78.466086967754 15.469117806417998 0 -1 0 0
1458 3 82.293700966181 15.469117806417998 0 -1 0 0
1464 3 86.121314964608 15.469117806417998 0 -1 0 0
1470 3 89.948928963035 15.469117806417998 0 -1 0 0
1476 3 93.776542961462 15.469117806417998 0 -1 0 0
1482 3 97.604156959889 15.469117806417998 0 -1 0 0
1639 1 0 16.574054792590005 1.899273134476 0 0 0
1645 1 3.8276139984269975 16.574054792590005 1.899273134476 0 0 0
1651 1 7.655227996853995 16.574054792590005 1.899273134476 0 0 0
1657 1 11.482841995281 16.574054792590005 1.899273134476 0 0 0
1663 1 15.310455993707997 16.574054792590005 1.899273134476 0 0 0
1669 1 19.138069992134994 16.574054792590005 1.899273134476 0 0 0
1675 1 22.965683990561992 16.574054792590005 1.899273134476 0 0 0
1681 1 26.793297988989003 16.574054792590005 1.899273134476 0 0 0
1687 1 30.620911987416 16.574054792590005 1.899273134476 0 0 0
1693 1 34.448525985843 16.574054792590005 1.899273134476 0 0 0
1699 1 38.276139984269996 16.574054792590005 1.899273134476 0 0 0
1705 1 42.10375398269699 16.574054792590005 1.899273134476 0 0 0
1711 1 45.93136798112399 16.574054792590005 1.899273134476 0 0 0
1561 1 49.758981979551 16.574054792590005 1.899273134476 -1 0 0
1567 1 53.586595977978 16.574054792590005 1.899273134476 -1 0 0
1573 1 57.414209976405004 16.574054792590005 1.899273134476 -1 0 0
1579 1 61.241823974832 16.574054792590005 1.899273134476 -1 0 0
1585 1 65.069437973259 16.574054792590005 1.899273134476 -1 0 0
1591 1 68.89705197168601 16.574054792590005 1.899273134476 -1 0 0
1597 1 72.724665970113 16.574054792590005 1.899273134476 -1 0 0
1603 1 76.55227996854 16.574054792590005 1.899273134476 -1 0 0
1609 1 80.379893966967 16.574054792590005 1.899273134476 -1 0 0
1615 1 84.207507965394 16.574054792590005 1.899273134476 -1 0 0
1621 1 88.03512196382101 16.574054792590005 1.899273134476 -1 0 0
1627 1 91.862735962248 16.574054792590005 1.899273134476 -1 0 0
1633 1 95.69034996067501 16.574054792590005 1.899273134476 -1 0 0
1643 3 0 18.783928764936007 0 0 0 0
1640 1 1.913806999213996 19.888865751108 1.899273134476 0 0 0
1649 3 3.8276139984269975 18.783928764936007 0 0 0 0
1646 1 5.741420997641001 19.888865751108 1.899273134476 0 0 0
1655 3 7.655227996853995 18.783928764936007 0 0 0 0
1652 1 9.569034996067998 19.888865751108 1.899273134476 0 0 0
1661 3 11.482841995281 18.783928764936007 0 0 0 0
1658 1 13.396648994494996 19.888865751108 1.899273134476 0 0 0
1667 3 15.310455993707997 18.783928764936007 0 0 0 0
1664 1 17.224262992922 19.888865751108 1.899273134476 0 0 0
1673 3 19.138069992134994 18.783928764936007 0 0 0 0
1670 1 21.051876991348998 19.888865751108 1.899273134476 0 0 0
1679 3 22.965683990561992 18.783928764936007 0 0 0 0
1685 3 26.793297988989003 18.783928764936007 0 0 0 0
1676 1 24.879490989775995 19.888865751108 1.899273134476 0 0 0
1682 1 28.707104988202993 19.888865751108 1.899273134476 0 0 0
1691 3 30.620911987416 18.783928764936007 0 0 0 0
1688 1 32.534718986630004 19.888865751108 1.899273134476 0 0 0
1697 3 34.448525985843 18.783928764936007 0 0 0 0
1694 1 36.362332985057 19.888865751108 1.899273134476 0 0 0
1703 3 38.276139984269996 18.783928764936007 0 0 0 0
1700 1 40.189946983484 19.888865751108 1.899273134476 0 0 0
1709 3 42.10375398269699 18.783928764936007 0 0 0 0
1706 1 44.017560981911 19.888865751108 1.899273134476 0 0 0
1715 3 45.93136798112399 18.783928764936007 0 0 0 0
1712 1 47.845174980337994 19.888865751108 1.899273134476 0 0 0
1565 3 49.758981979551 18.783928764936007 0 -1 0 0
1562 1 51.672788978765006 19.888865751108 1.899273134476 -1 0 0
1571 3 53.586595977978 18.783928764936007 0 -1 0 0
1568 1 55.500402977192 19.888865751108 1.899273134476 -1 0 0
1577 3 57.414209976405004 18.783928764936007 0 -1 0 0
1574 1 59.328016975619 19.888865751108 1.899273134476 -1 0 0
1583 3 61.241823974832 18.783928764936007 0 -1 0 0
1580 1 63.155630974046005 19.888865751108 1.899273134476 -1 0 0
1589 3 65.069437973259 18.783928764936007 0 -1 0 0
1586 1 66.983244972473 19.888865751108 1.899273134476 -1 0 0
1595 3 68.89705197168601 18.783928764936007 0 -1 0 0
1592 1 70.8108589709 19.888865751108 1.899273134476 -1 0 0
1601 3 72.724665970113 18.783928764936007 0 -1 0 0
1607 3 76.55227996854 18.783928764936007 0 -1 0 0
1598 1 74.638472969327 19.888865751108 1.899273134476 -1 0 0
1604 1 78.466086967754 19.888865751108 1.899273134476 -1 0 0
1613 3 80.379893966967 18.783928764936007 0 -1 0 0
1610 1 82.293700966181 19.888865751108 1.899273134476 -1 0 0
1619 3 84.207507965394 18.783928764936007 0 -1 0 0
1616 1 86.121314964608 19.888865751108 1.899273134476 -1 0 0
1625 3 88.03512196382101 18.783928764936007 0 -1 0 0
1622 1 89.948928963035 19.888865751108 1.899273134476 -1 0 0
1631 3 91.862735962248 18.783928764936007 0 -1 0 0
1628 1 93.776542961462 19.888865751108 1.899273134476 -1 0 0
1637 3 95.69034996067501 18.783928764936007 0 -1 0 0
1634 1 97.604156959889 19.888865751108 1.899273134476 -1 0 0
1644 3 1.913806999213996 22.098739723454003 0 0 0 0
1650 3 5.741420997641001 22.098739723454003 0 0 0 0
1656 3 9.569034996067998 22.098739723454003 0 0 0 0
1662 3 13.396648994494996 22.098739723454003 0 0 0 0
1668 3 17.224262992922 22.098739723454003 0 0 0 0
1674 3 21.051876991348998 22.098739723454003 0 0 0 0
1680 3 24.879490989775995 22.098739723454003 0 0 0 0
1686 3 28.707104988202993 22.098739723454003 0 0 0 0
1692 3 32.534718986630004 22.098739723454003 0 0 0 0
1698 3 36.362332985057 22.098739723454003 0 0 0 0
1704 3 40.189946983484 22.098739723454003 0 0 0 0
1710 3 44.017560981911 22.098739723454003 0 0 0 0
1716 3 47.845174980337994 22.098739723454003 0 0 0 0
1566 3 51.672788978765006 22.098739723454003 0 -1 0 0
1572 3 55.500402977192 22.098739723454003 0 -1 0 0
1578 3 59.328016975619 22.098739723454003 0 -1 0 0
1584 3 63.155630974046005 22.098739723454003 0 -1 0 0
1590 3 66.983244972473 22.098739723454003 0 -1 0 0
1596 3 70.8108589709 22.098739723454003 0 -1 0 0
1602 3 74.638472969327 22.098739723454003 0 -1 0 0
1608 3 78.466086967754 22.098739723454003 0 -1 0 0
1614 3 82.293700966181 22.098739723454003 0 -1 0 0
1620 3 86.121314964608 22.098739723454003 0 -1 0 0
1626 3 89.948928963035 22.098739723454003 0 -1 0 0
1632 3 93.776542961462 22.098739723454003 0 -1 0 0
1638 3 97.604156959889 22.098739723454003 0 -1 0 0
1795 1 0 23.203676709625995 1.899273134476 0 0 0
1801 1 3.8276139984269975 23.203676709625995 1.899273134476 0 0 0
1807 1 7.655227996853995 23.203676709625995 1.899273134476 0 0 0
1813 1 11.482841995281 23.203676709625995 1.899273134476 0 0 0
1819 1 15.310455993707997 23.203676709625995 1.899273134476 0 0 0
1825 1 19.138069992134994 23.203676709625995 1.899273134476 0 0 0
1831 1 22.965683990561992 23.203676709625995 1.899273134476 0 0 0
1837 1 26.793297988989003 23.203676709625995 1.899273134476 0 0 0
1843 1 30.620911987416 23.203676709625995 1.899273134476 0 0 0
1849 1 34.448525985843 23.203676709625995 1.899273134476 0 0 0
1855 1 38.276139984269996 23.203676709625995 1.899273134476 0 0 0
1861 1 42.10375398269699 23.203676709625995 1.899273134476 0 0 0
1867 1 45.93136798112399 23.203676709625995 1.899273134476 0 0 0
1717 1 49.758981979551 23.203676709625995 1.899273134476 -1 0 0
1723 1 53.586595977978 23.203676709625995 1.899273134476 -1 0 0
1729 1 57.414209976405004 23.203676709625995 1.899273134476 -1 0 0
1735 1 61.241823974832 23.203676709625995 1.899273134476 -1 0 0
1741 1 65.069437973259 23.203676709625995 1.899273134476 -1 0 0
1747 1 68.89705197168601 23.203676709625995 1.899273134476 -1 0 0
1753 1 72.724665970113 23.203676709625995 1.899273134476 -1 0 0
1759 1 76.55227996854 23.203676709625995 1.899273134476 -1 0 0
1765 1 80.379893966967 23.203676709625995 1.899273134476 -1 0 0
1771 1 84.207507965394 23.203676709625995 1.899273134476 -1 0 0
1777 1 88.03512196382101 23.203676709625995 1.899273134476 -1 0 0
1783 1 91.862735962248 23.203676709625995 1.899273134476 -1 0 0
1789 1 95.69034996067501 23.203676709625995 1.899273134476 -1 0 0
1799 3 0 25.413550681971998 0 0 0 0
1796 1 1.913806999213996 26.518487668144004 1.899273134476 0 0 0
1805 3 3.8276139984269975 25.413550681971998 0 0 0 0
1802 1 5.741420997641001 26.518487668144004 1.899273134476 0 0 0
1811 3 7.655227996853995 25.413550681971998 0 0 0 0
1808 1 9.569034996067998 26.518487668144004 1.899273134476 0 0 0
1817 3 11.482841995281 25.413550681971998 0 0 0 0
1814 1 13.396648994494996 26.518487668144004 1.899273134476 0 0 0
1823 3 15.310455993707997 25.413550681971998 0 0 0 0
1820 1 17.224262992922 26.518487668144004 1.899273134476 0 0 0
1829 3 19.138069992134994 25.413550681971998 0 0 0 0
1826 1 21.051876991348998 26.518487668144004 1.899273134476 0 0 0
1835 3 22.965683990561992 25.413550681971998 0 0 0 0
1841 3 26.793297988989003 25.413550681971998 0 0 0 0
1832 1 24.879490989775995 26.518487668144004 1.899273134476 0 0 0
1838 1 28.707104988202993 26.518487668144004 1.899273134476 0 0 0
1847 3 30.620911987416 25.413550681971998 0 0 0 0
1844 1 32.534718986630004 26.518487668144004 1.899273134476 0 0 0
1853 3 34.448525985843 25.413550681971998 0 0 0 0
1850 1 36.362332985057 26.518487668144004 1.899273134476 0 0 0
1859 3 38.276139984269996 25.413550681971998 0 0 0 0
1856 1 40.189946983484 26.518487668144004 1.899273134476 0 0 0
1865 3 42.10375398269699 25.413550681971998 0 0 0 0
1862 1 44.017560981911 26.518487668144004 1.899273134476 0 0 0
1871 3 45.93136798112399 25.413550681971998 0 0 0 0
1868 1 47.845174980337994 26.518487668144004 1.899273134476 0 0 0
1721 3 49.758981979551 25.413550681971998 0 -1 0 0
1718 1 51.672788978765006 26.518487668144004 1.899273134476 -1 0 0
1727 3 53.586595977978 25.413550681971998 0 -1 0 0
1724 1 55.500402977192 26.518487668144004 1.899273134476 -1 0 0
1733 3 57.414209976405004 25.413550681971998 0 -1 0 0
1730 1 59.328016975619 26.518487668144004 1.899273134476 -1 0 0
1739 3 61.241823974832 25.413550681971998 0 -1 0 0
1736 1 63.155630974046005 26.518487668144004 1.899273134476 -1 0 0
1745 3 65.069437973259 25.413550681971998 0 -1 0 0
1742 1 66.983244972473 26.518487668144004 1.899273134476 -1 0 0
1751 3 68.89705197168601 25.413550681971998 0 -1 0 0
1748 1 70.8108589709 26.518487668144004 1.899273134476 -1 0 0
1757 3 72.724665970113 25.413550681971998 0 -1 0 0
1763 3 76.55227996854 25.413550681971998 0 -1 0 0
1754 1 74.638472969327 26.518487668144004 1.899273134476 -1 0 0
1760 1 78.466086967754 26.518487668144004 1.899273134476 -1 0 0
1769 3 80.379893966967 25.413550681971998 0 -1 0 0
1766 1 82.293700966181 26.518487668144004 1.899273134476 -1 0 0
1775 3 84.207507965394 25.413550681971998 0 -1 0 0
1772 1 86.121314964608 26.518487668144004 1.899273134476 -1 0 0
1781 3 88.03512196382101 25.413550681971998 0 -1 0 0
1778 1 89.948928963035 26.518487668144004 1.899273134476 -1 0 0
1787 3 91.862735962248 25.413550681971998 0 -1 0 0
1784 1 93.776542961462 26.518487668144004 1.899273134476 -1 0 0
1793 3 95.69034996067501 25.413550681971998 0 -1 0 0
1790 1 97.604156959889 26.518487668144004 1.899273134476 -1 0 0
1800 3 1.913806999213996 28.728361640490007 0 0 0 0
1806 3 5.741420997641001 28.728361640490007 0 0 0 0
1812 3 9.569034996067998 28.728361640490007 0 0 0 0
1818 3 13.396648994494996 28.728361640490007 0 0 0 0
1824 3 17.224262992922 28.728361640490007 0 0 0 0
1830 3 21.051876991348998 28.728361640490007 0 0 0 0
1836 3 24.879490989775995 28.728361640490007 0 0 0 0
1842 3 28.707104988202993 28.728361640490007 0 0 0 0
1848 3 32.534718986630004 28.728361640490007 0 0 0 0
1854 3 36.362332985057 28.728361640490007 0 0 0 0
1860 3 40.189946983484 28.728361640490007 0 0 0 0
1866 3 44.017560981911 28.728361640490007 0 0 0 0
1872 3 47.845174980337994 28.728361640490007 0 0 0 0
1722 3 51.672788978765006 28.728361640490007 0 -1 0 0
1728 3 55.500402977192 28.728361640490007 0 -1 0 0
1734 3 59.328016975619 28.728361640490007 0 -1 0 0
1740 3 63.155630974046005 28.728361640490007 0 -1 0 0
1746 3 66.983244972473 28.728361640490007 0 -1 0 0
1752 3 70.8108589709 28.728361640490007 0 -1 0 0
1758 3 74.638472969327 28.728361640490007 0 -1 0 0
1764 3 78.466086967754 28.728361640490007 0 -1 0 0
1770 3 82.293700966181 28.728361640490007 0 -1 0 0
1776 3 86.121314964608 28.728361640490007 0 -1 0 0
1782 3 89.948928963035 28.728361640490007 0 -1 0 0
1788 3 93.776542961462 28.728361640490007 0 -1 0 0
1794 3 97.604156959889 28.728361640490007 0 -1 0 0
1951 1 0 29.833298626662 1.899273134476 0 0 0
1957 1 3.8276139984269975 29.833298626662 1.899273134476 0 0 0
1963 1 7.655227996853995 29.833298626662 1.899273134476 0 0 0
1969 1 11.482841995281 29.833298626662 1.899273134476 0 0 0
1975 1 15.310455993707997 29.833298626662 1.899273134476 0 0 0
1981 1 19.138069992134994 29.833298626662 1.899273134476 0 0 0
1987 1 22.965683990561992 29.833298626662 1.899273134476 0 0 0
1993 1 26.793297988989003 29.833298626662 1.899273134476 0 0 0
1999 1 30.620911987416 29.833298626662 1.899273134476 0 0 0
2005 1 34.448525985843 29.833298626662 1.899273134476 0 0 0
2011 1 38.276139984269996 29.833298626662 1.899273134476 0 0 0
2017 1 42.10375398269699 29.833298626662 1.899273134476 0 0 0
2023 1 45.93136798112399 29.833298626662 1.899273134476 0 0 0
1873 1 49.758981979551 29.833298626662 1.899273134476 -1 0 0
1879 1 53.586595977978 29.833298626662 1.899273134476 -1 0 0
1885 1 57.414209976405004 29.833298626662 1.899273134476 -1 0 0
1891 1 61.241823974832 29.833298626662 1.899273134476 -1 0 0
1897 1 65.069437973259 29.833298626662 1.899273134476 -1 0 0
1903 1 68.89705197168601 29.833298626662 1.899273134476 -1 0 0
1909 1 72.724665970113 29.833298626662 1.899273134476 -1 0 0
1915 1 76.55227996854 29.833298626662 1.899273134476 -1 0 0
1921 1 80.379893966967 29.833298626662 1.899273134476 -1 0 0
1927 1 84.207507965394 29.833298626662 1.899273134476 -1 0 0
1933 1 88.03512196382101 29.833298626662 1.899273134476 -1 0 0
1939 1 91.862735962248 29.833298626662 1.899273134476 -1 0 0
1945 1 95.69034996067501 29.833298626662 1.899273134476 -1 0 0
1955 3 0 32.043172599008 0 0 0 0
1952 1 1.913806999213996 33.148109585179995 1.899273134476 0 0 0
1961 3 3.8276139984269975 32.043172599008 0 0 0 0
1958 1 5.741420997641001 33.148109585179995 1.899273134476 0 0 0
1967 3 7.655227996853995 32.043172599008 0 0 0 0
1964 1 9.569034996067998 33.148109585179995 1.899273134476 0 0 0
1973 3 11.482841995281 32.043172599008 0 0 0 0
1970 1 13.396648994494996 33.148109585179995 1.899273134476 0 0 0
1979 3 15.310455993707997 32.043172599008 0 0 0 0
1976 1 17.224262992922 33.148109585179995 1.899273134476 0 0 0
1985 3 19.138069992134994 32.043172599008 0 0 0 0
1982 1 21.051876991348998 33.148109585179995 1.899273134476 0 0 0
1991 3 22.965683990561992 32.043172599008 0 0 0 0
1997 3 26.793297988989003 32.043172599008 0 0 0 0
1988 1 24.879490989775995 33.148109585179995 1.899273134476 0 0 0
1994 1 28.707104988202993 33.148109585179995 1.899273134476 0 0 0
2003 3 30.620911987416 32.043172599008 0 0 0 0
2000 1 32.534718986630004 33.148109585179995 1.899273134476 0 0 0
2009 3 34.448525985843 32.043172599008 0 0 0 0
2006 1 36.362332985057 33.148109585179995 1.899273134476 0 0 0
2015 3 38.276139984269996 32.043172599008 0 0 0 0
2012 1 40.189946983484 33.148109585179995 1.899273134476 0 0 0
2021 3 42.10375398269699 32.043172599008 0 0 0 0
2018 1 44.017560981911 33.148109585179995 1.899273134476 0 0 0
2027 3 45.93136798112399 32.043172599008 0 0 0 0
2024 1 47.845174980337994 33.148109585179995 1.899273134476 0 0 0
1877 3 49.758981979551 32.043172599008 0 -1 0 0
1874 1 51.672788978765006 33.148109585179995 1.899273134476 -1 0 0
1883 3 53.586595977978 32.043172599008 0 -1 0 0
1880 1 55.500402977192 33.148109585179995 1.899273134476 -1 0 0
1889 3 57.414209976405004 32.043172599008 0 -1 0 0
1886 1 59.328016975619 33.148109585179995 1.899273134476 -1 0 0
1895 3 61.241823974832 32.043172599008 0 -1 0 0