LAMMPS data file via write_data, version 29 Aug 2024, timestep = 7, units = metal

7020 atoms
9 atom types

0 99.517963959102 xlo xhi
0 99.44432875554 ylo yhi
-50 50 zlo zhi

Masses

1 44.955908
2 44.955908
3 44.955908
4 127.6
5 127.6
6 127.6
7 127.6
8 127.6
9 127.6

Atoms # atomic

1176 5 1.9138069992140403 2.1104979729873627 -0.19703805650441197 0 0 0
1327 1 2.6416948289924534e-13 3.212873159913165 1.6412847663013517 0 0 0
1333 1 3.827613998427263 3.2128731599131584 1.6412847663013352 0 0 0
1182 5 5.741420997641044 2.110497972987361 -0.19703805650440676 0 0 0
1337 5 3.8276139984267576 5.4253089315053495 -0.1970380565043921 0 0 0
1339 1 7.6552279968542605 3.2128731599131575 1.6412847663013381 0 0 0
1188 5 9.569034996068035 2.110497972987362 -0.19703805650442108 0 0 0
1345 1 11.482841995281255 3.2128731599131526 1.6412847663013586 0 0 0
1343 5 7.655227996853753 5.425308931505349 -0.19703805650439318 0 0 0
1349 5 11.482841995280756 5.425308931505354 -0.19703805650440132 0 0 0
1194 5 13.39664899449505 2.1104979729873725 -0.19703805650441028 0 0 0
1351 1 15.310455993708258 3.212873159913167 1.641284766301315 0 0 0
1200 5 17.224262992922025 2.1104979729873614 -0.19703805650440848 0 0 0
1355 5 15.310455993707755 5.425308931505346 -0.19703805650437942 0 0 0
1357 1 19.138069992135254 3.2128731599131504 1.6412847663013714 0 0 0
1206 5 21.051876991349054 2.1104979729873663 -0.19703805650443082 0 0 0
1363 1 22.96568399056226 3.2128731599131624 1.64128476630133 0 0 0
1361 5 19.138069992134763 5.425308931505359 -0.19703805650440243 0 0 0
1367 5 22.965683990561764 5.425308931505345 -0.19703805650439696 0 0 0
1212 5 24.879490989776034 2.110497972987365 -0.19703805650441072 0 0 0
1369 1 26.79329798898926 3.2128731599131553 1.6412847663013423 0 0 0
1218 5 28.707104988203042 2.110497972987366 -0.19703805650440648 0 0 0
1373 5 26.793297988988762 5.42530893150535 -0.1970380565043989 0 0 0
1375 1 30.620911987416257 3.2128731599131592 1.6412847663013292 0 0 0
1224 5 32.53471898663003 2.110497972987359 -0.19703805650440856 0 0 0
1381 1 34.448525985843254 3.2128731599131566 1.6412847663013532 0 0 0
1379 5 30.62091198741576 5.425308931505343 -0.1970380565043976 0 0 0
1385 5 34.44852598584276 5.425308931505352 -0.19703805650439926 0 0 0
1230 5 36.36233298505703 2.1104979729873667 -0.19703805650442707 0 0 0
1387 1 38.27613998427025 3.2128731599131557 1.641284766301344 0 0 0
1236 5 40.18994698348404 2.110497972987359 -0.19703805650442163 0 0 0
1391 5 38.27613998426976 5.425308931505351 -0.1970380565043996 0 0 0
1393 1 42.103753982697256 3.212873159913157 1.6412847663013352 0 0 0
1242 5 44.017560981911046 2.1104979729873725 -0.1970380565044057 0 0 0
1399 1 45.93136798112428 3.212873159913157 1.6412847663013364 0 0 0
1397 5 42.103753982696766 5.4253089315053495 -0.19703805650439152 0 0 0
1403 5 45.93136798112377 5.425308931505349 -0.19703805650439885 0 0 0
1248 5 47.845174980338044 2.110497972987358 -0.19703805650440642 0 0 0
1098 5 51.67278897876504 2.110497972987365 -0.19703805650440892 -1 0 0
1249 1 49.75898197955125 3.2128731599131637 1.6412847663013554 -1 0 0
1253 5 49.75898197955076 5.425308931505343 -0.1970380565044037 -1 0 0
1255 1 53.58659597797825 3.2128731599131557 1.641284766301347 -1 0 0
1104 5 55.500402977192046 2.1104979729873743 -0.19703805650441666 -1 0 0
1261 1 57.41420997640527 3.212873159913158 1.641284766301327 -1 0 0
1259 5 53.58659597797776 5.425308931505356 -0.1970380565043961 -1 0 0
1265 5 57.41420997640476 5.425308931505343 -0.19703805650439488 -1 0 0
1110 5 59.32801697561904 2.110497972987351 -0.19703805650441095 -1 0 0
1267 1 61.241823974832265 3.2128731599131637 1.6412847663013523 -1 0 0
1116 5 63.15563097404606 2.1104979729873774 -0.19703805650439307 -1 0 0
1271 5 61.24182397483176 5.42530893150535 -0.19703805650439338 -1 0 0
1273 1 65.06943797325928 3.2128731599131575 1.641284766301337 -1 0 0
1122 5 66.98324497247305 2.1104979729873654 -0.1970380565044342 -1 0 0
1279 1 68.89705197168625 3.212873159913153 1.6412847663013101 -1 0 0
1277 5 65.06943797325876 5.4253089315053415 -0.19703805650440473 -1 0 0
1283 5 68.89705197168577 5.425308931505352 -0.19703805650439749 -1 0 0
1128 5 70.81085897090004 2.1104979729873454 -0.19703805650438322 -1 0 0
1285 1 72.72466597011326 3.212873159913148 1.6412847663013348 -1 0 0
1134 5 74.63847296932705 2.1104979729873805 -0.1970380565044319 -1 0 0
1289 5 72.72466597011277 5.425308931505357 -0.19703805650440231 -1 0 0
1291 1 76.55227996854026 3.2128731599131615 1.6412847663013417 -1 0 0
1140 5 78.46608696775407 2.1104979729873685 -0.19703805650438516 -1 0 0
1297 1 80.37989396696729 3.212873159913163 1.6412847663013093 -1 0 0
1295 5 76.55227996853978 5.425308931505347 -0.19703805650439923 -1 0 0
1301 5 80.37989396696675 5.425308931505335 -0.19703805650439363 -1 0 0
1146 5 82.29370096618106 2.1104979729873765 -0.19703805650440914 -1 0 0
1303 1 84.20750796539427 3.21287315991315 1.6412847663013428 -1 0 0
1152 5 86.12131496460805 2.110497972987371 -0.1970380565044146 -1 0 0
1307 5 84.20750796539373 5.42530893150535 -0.19703805650440184 -1 0 0
1309 1 88.03512196382124 3.212873159913161 1.6412847663013141 -1 0 0
1158 5 89.94892896303506 2.110497972987339 -0.19703805650440237 -1 0 0
1315 1 91.86273596224825 3.2128731599131517 1.641284766301348 -1 0 0
1313 5 88.03512196382077 5.425308931505355 -0.19703805650438877 -1 0 0
1319 5 91.86273596224775 5.4253089315053575 -0.1970380565044001 -1 0 0
1331 5 99.51796395910176 5.425308931505344 -0.19703805650440054 -1 0 0
1164 5 93.77654296146204 2.110497972987376 -0.19703805650443607 -1 0 0
1321 1 95.69034996067526 3.212873159913162 1.6412847663013435 -1 0 0
1170 5 97.60415695988905 2.1104979729873734 -0.19703805650441134 -1 0 0
1325 5 95.69034996067478 5.4253089315053495 -0.1970380565043946 -1 0 0
1328 1 1.9138069992134372 6.527684118431173 1.6412847663013508 0 0 0
1334 1 5.741420997640432 6.527684118431177 1.6412847663013355 0 0 0
1332 5 1.913806999214041 8.740119890023365 -0.19703805650440953 0 0 0
1483 1 2.639143065363816e-13 9.84249507694919 1.6412847663013588 0 0 0
1489 1 3.827613998427263 9.842495076949186 1.6412847663013466 0 0 0
1338 5 5.741420997641044 8.740119890023362 -0.19703805650440684 0 0 0
1340 1 9.569034996067428 6.527684118431177 1.6412847663013574 0 0 0
1495 1 7.6552279968542605 9.842495076949186 1.6412847663013586 0 0 0
1344 5 9.569034996068035 8.740119890023358 -0.19703805650441858 0 0 0
1501 1 11.482841995281257 9.842495076949175 1.641284766301369 0 0 0
1346 1 13.396648994494427 6.5276841184311785 1.6412847663013466 0 0 0
1352 1 17.22426299292143 6.5276841184311785 1.6412847663013377 0 0 0
1350 5 13.396648994495049 8.740119890023363 -0.1970380565044033 0 0 0
1507 1 15.310455993708256 9.842495076949191 1.6412847663013417 0 0 0
1356 5 17.224262992922032 8.740119890023358 -0.19703805650440936 0 0 0
1358 1 21.051876991348443 6.527684118431174 1.641284766301373 0 0 0
1513 1 19.138069992135254 9.842495076949177 1.6412847663013772 0 0 0
1362 5 21.051876991349054 8.74011989002336 -0.19703805650442244 0 0 0
1519 1 22.96568399056226 9.842495076949184 1.641284766301331 0 0 0
1364 1 24.879490989775437 6.527684118431181 1.641284766301351 0 0 0
1370 1 28.707104988202428 6.52768411843118 1.6412847663013679 0 0 0
1368 5 24.87949098977603 8.740119890023362 -0.19703805650440476 0 0 0
1525 1 26.79329798898926 9.842495076949179 1.641284766301356 0 0 0
1374 5 28.707104988203042 8.740119890023369 -0.1970380565044046 0 0 0
1376 1 32.53471898662942 6.527684118431179 1.6412847663013557 0 0 0
1531 1 30.62091198741626 9.842495076949186 1.641284766301349 0 0 0
1380 5 32.53471898663003 8.74011989002336 -0.19703805650440842 0 0 0
1537 1 34.44852598584326 9.842495076949186 1.6412847663013526 0 0 0
1382 1 36.36233298505643 6.527684118431177 1.6412847663013597 0 0 0
1388 1 40.18994698348344 6.527684118431178 1.6412847663013592 0 0 0
1386 5 36.36233298505702 8.74011989002336 -0.1970380565044178 0 0 0
1543 1 38.27613998427026 9.842495076949184 1.6412847663013574 0 0 0
1392 5 40.189946983484035 8.740119890023358 -0.1970380565044203 0 0 0
1394 1 44.01756098191045 6.527684118431183 1.6412847663013546 0 0 0
1549 1 42.103753982697256 9.842495076949184 1.6412847663013534 0 0 0
1398 5 44.017560981911046 8.740119890023367 -0.19703805650439996 0 0 0
1555 1 45.93136798112428 9.842495076949188 1.6412847663013383 0 0 0
1400 1 47.84517498033744 6.527684118431176 1.6412847663013872 0 0 0
1250 1 51.67278897876441 6.527684118431179 1.6412847663013326 -1 0 0
1404 5 47.84517498033804 8.740119890023362 -0.19703805650441272 0 0 0
1254 5 51.672788978765034 8.74011989002336 -0.19703805650440923 -1 0 0
1405 1 49.758981979551244 9.842495076949183 1.641284766301382 -1 0 0
1256 1 55.500402977191435 6.527684118431179 1.6412847663013785 -1 0 0
1411 1 53.58659597797825 9.842495076949184 1.6412847663013568 -1 0 0
1260 5 55.500402977192046 8.74011989002337 -0.19703805650440875 -1 0 0
1417 1 57.41420997640526 9.842495076949186 1.6412847663013437 -1 0 0
1262 1 59.328016975618425 6.527684118431172 1.6412847663013388 -1 0 0
1268 1 63.15563097404544 6.527684118431179 1.6412847663013053 -1 0 0
1266 5 59.32801697561905 8.740119890023356 -0.1970380565044168 -1 0 0
1423 1 61.241823974832265 9.842495076949193 1.641284766301356 -1 0 0
1272 5 63.15563097404606 8.740119890023369 -0.1970380565043892 -1 0 0
1274 1 66.98324497247243 6.52768411843118 1.6412847663014718 -1 0 0
1429 1 65.06943797325928 9.842495076949184 1.6412847663013588 -1 0 0
1278 5 66.98324497247305 8.740119890023365 -0.197038056504432 -1 0 0
1435 1 68.89705197168625 9.842495076949167 1.6412847663013383 -1 0 0
1280 1 70.8108589708994 6.527684118431199 1.6412847663013146 -1 0 0
1286 1 74.63847296932646 6.527684118431169 1.6412847663013894 -1 0 0
1284 5 70.81085897090004 8.740119890023355 -0.19703805650439019 -1 0 0
1441 1 72.72466597011326 9.842495076949193 1.6412847663013355 -1 0 0
1290 5 74.63847296932704 8.740119890023372 -0.19703805650442077 -1 0 0
1292 1 78.46608696775345 6.527684118431184 1.6412847663012924 -1 0 0
1447 1 76.55227996854026 9.842495076949184 1.641284766301377 -1 0 0
1296 5 78.46608696775407 8.74011989002336 -0.19703805650438336 -1 0 0
1453 1 80.37989396696729 9.842495076949186 1.6412847663013233 -1 0 0
1298 1 82.29370096618042 6.5276841184311785 1.6412847663013932 -1 0 0
1304 1 86.12131496460744 6.527684118431183 1.6412847663014016 -1 0 0
1302 5 82.29370096618106 8.740119890023369 -0.19703805650441072 -1 0 0
1459 1 84.20750796539429 9.842495076949177 1.6412847663013745 -1 0 0
1308 5 86.12131496460803 8.740119890023365 -0.1970380565044203 -1 0 0
1310 1 89.94892896303443 6.527684118431188 1.6412847663013213 -1 0 0
1465 1 88.03512196382124 9.842495076949177 1.6412847663013423 -1 0 0
1314 5 89.94892896303506 8.74011989002335 -0.19703805650440598 -1 0 0
1471 1 91.86273596224827 9.842495076949188 1.6412847663013481 -1 0 0
1316 1 93.77654296146146 6.527684118431175 1.6412847663013868 -1 0 0
1322 1 97.60415695988844 6.527684118431178 1.6412847663013321 -1 0 0
1320 5 93.77654296146204 8.740119890023365 -0.19703805650442482 -1 0 0
1477 1 95.69034996067526 9.842495076949183 1.6412847663013728 -1 0 0
1326 5 97.60415695988905 8.740119890023363 -0.19703805650439973 -1 0 0
1493 5 3.8276139984267576 12.054930848541371 -0.19703805650440406 0 0 0
1484 1 1.913806999213439 13.157306035467178 1.641284766301353 0 0 0
1490 1 5.741420997640431 13.157306035467183 1.641284766301346 0 0 0
1488 5 1.913806999214038 15.369741807059366 -0.1970380565044097 0 0 0
1494 5 5.741420997641049 15.369741807059363 -0.1970380565044074 0 0 0
1639 1 2.6389514391466815e-13 16.47211699398518 1.6412847663013423 0 0 0
1645 1 3.8276139984272617 16.472116993985175 1.6412847663013546 0 0 0
1499 5 7.655227996853753 12.054930848541368 -0.1970380565044081 0 0 0
1505 5 11.48284199528075 12.05493084854137 -0.1970380565044162 0 0 0
1496 1 9.569034996067428 13.157306035467183 1.6412847663013597 0 0 0
1500 5 9.569034996068037 15.369741807059363 -0.19703805650441 0 0 0
1651 1 7.65522799685426 16.472116993985175 1.6412847663013428 0 0 0
1657 1 11.482841995281253 16.472116993985168 1.6412847663013381 0 0 0
1511 5 15.310455993707755 12.054930848541364 -0.197038056504402 0 0 0
1502 1 13.396648994494425 13.157306035467185 1.6412847663013699 0 0 0
1508 1 17.22426299292143 13.157306035467185 1.6412847663013528 0 0 0
1506 5 13.396648994495049 15.369741807059373 -0.19703805650439848 0 0 0
1512 5 17.22426299292203 15.36974180705937 -0.19703805650439962 0 0 0
1663 1 15.31045599370826 16.47211699398518 1.6412847663013124 0 0 0
1517 5 19.138069992134767 12.054930848541376 -0.1970380565044112 0 0 0
1523 5 22.965683990561764 12.054930848541366 -0.1970380565044041 0 0 0
1514 1 21.05187699134844 13.157306035467187 1.6412847663013488 0 0 0
1518 5 21.051876991349047 15.369741807059363 -0.19703805650440856 0 0 0
1669 1 19.138069992135257 16.472116993985164 1.641284766301349 0 0 0
1675 1 22.965683990562255 16.472116993985175 1.6412847663013288 0 0 0
1529 5 26.79329798898876 12.05493084854137 -0.19703805650441458 0 0 0
1520 1 24.879490989775437 13.157306035467183 1.641284766301355 0 0 0
1526 1 28.70710498820243 13.157306035467183 1.6412847663013566 0 0 0
1524 5 24.879490989776034 15.369741807059366 -0.1970380565044087 0 0 0
1530 5 28.70710498820304 15.36974180705937 -0.1970380565044041 0 0 0
1681 1 26.79329798898926 16.472116993985168 1.6412847663013388 0 0 0
1535 5 30.620911987415756 12.05493084854136 -0.19703805650440737 0 0 0
1541 5 34.44852598584276 12.054930848541376 -0.19703805650440256 0 0 0
1532 1 32.53471898662942 13.157306035467183 1.6412847663013492 0 0 0
1536 5 32.53471898663003 15.369741807059363 -0.1970380565044043 0 0 0
1687 1 30.620911987416257 16.472116993985175 1.6412847663013377 0 0 0
1693 1 34.44852598584326 16.472116993985168 1.6412847663013457 0 0 0
1547 5 38.27613998426976 12.054930848541373 -0.19703805650440306 0 0 0
1538 1 36.362332985056426 13.157306035467181 1.64128476630133 0 0 0
1544 1 40.18994698348344 13.15730603546718 1.6412847663013337 0 0 0
1542 5 36.36233298505702 15.369741807059363 -0.19703805650441011 0 0 0
1548 5 40.189946983484035 15.369741807059357 -0.19703805650442038 0 0 0
1699 1 38.27613998427025 16.472116993985175 1.6412847663013495 0 0 0
1553 5 42.10375398269677 12.054930848541376 -0.1970380565043972 0 0 0
1559 5 45.93136798112377 12.054930848541371 -0.19703805650439976 0 0 0
1550 1 44.01756098191046 13.157306035467185 1.6412847663013321 0 0 0
1554 5 44.017560981911046 15.369741807059368 -0.19703805650439749 0 0 0
1705 1 42.103753982697256 16.472116993985175 1.6412847663013599 0 0 0
1711 1 45.93136798112428 16.472116993985175 1.6412847663013306 0 0 0
1409 5 49.758981979550754 12.054930848541364 -0.19703805650441686 -1 0 0
1556 1 47.84517498033744 13.157306035467178 1.6412847663013668 0 0 0
1406 1 51.67278897876442 13.157306035467183 1.6412847663013197 -1 0 0
1560 5 47.845174980338044 15.369741807059366 -0.19703805650440154 0 0 0
1410 5 51.672788978765034 15.369741807059361 -0.19703805650440082 -1 0 0
1561 1 49.75898197955125 16.472116993985175 1.6412847663013452 -1 0 0
1415 5 53.58659597797775 12.05493084854138 -0.1970380565044005 -1 0 0
1421 5 57.414209976404756 12.054930848541368 -0.19703805650440748 -1 0 0
1412 1 55.500402977191435 13.157306035467178 1.641284766301362 -1 0 0
1416 5 55.50040297719204 15.369741807059365 -0.1970380565044145 -1 0 0
1567 1 53.58659597797825 16.472116993985175 1.6412847663013492 -1 0 0
1573 1 57.414209976405274 16.472116993985175 1.641284766301351 -1 0 0
1427 5 61.24182397483176 12.054930848541373 -0.1970380565044014 -1 0 0
1418 1 59.32801697561844 13.157306035467176 1.641284766301333 -1 0 0
1424 1 63.155630974045444 13.157306035467188 1.641284766301306 -1 0 0
1422 5 59.32801697561905 15.369741807059356 -0.19703805650441286 -1 0 0
1428 5 63.15563097404606 15.369741807059373 -0.19703805650438683 -1 0 0
1579 1 61.24182397483226 16.472116993985182 1.641284766301347 -1 0 0
1433 5 65.06943797325874 12.054930848541366 -0.19703805650441544 -1 0 0
1439 5 68.89705197168577 12.054930848541373 -0.19703805650440268 -1 0 0
1430 1 66.98324497247245 13.15730603546718 1.6412847663014447 -1 0 0
1434 5 66.98324497247305 15.369741807059366 -0.1970380565044225 -1 0 0
1585 1 65.0694379732593 16.47211699398517 1.641284766301337 -1 0 0
1591 1 68.89705197168624 16.472116993985157 1.64128476630133 -1 0 0
1445 5 72.72466597011275 12.054930848541375 -0.19703805650439607 -1 0 0
1436 1 70.81085897089943 13.157306035467204 1.6412847663012966 -1 0 0
1442 1 74.63847296932643 13.157306035467169 1.6412847663013947 -1 0 0
1440 5 70.81085897090004 15.369741807059357 -0.19703805650438394 -1 0 0
1446 5 74.63847296932704 15.369741807059375 -0.19703805650442086 -1 0 0
1597 1 72.72466597011325 16.472116993985175 1.6412847663013255 -1 0 0
1451 5 76.55227996853978 12.054930848541373 -0.197038056504417 -1 0 0
1457 5 80.37989396696675 12.054930848541352 -0.19703805650441952 -1 0 0
1448 1 78.46608696775345 13.15730603546718 1.641284766301283 -1 0 0
1452 5 78.46608696775407 15.36974180705936 -0.1970380565043811 -1 0 0
1603 1 76.55227996854026 16.47211699398517 1.6412847663013548 -1 0 0
1609 1 80.37989396696729 16.472116993985182 1.641284766301307 -1 0 0
1463 5 84.20750796539373 12.054930848541373 -0.19703805650441092 -1 0 0
1454 1 82.29370096618045 13.157306035467185 1.6412847663013874 -1 0 0
1460 1 86.12131496460744 13.157306035467185 1.6412847663013854 -1 0 0
1458 5 82.29370096618106 15.369741807059377 -0.19703805650439182 -1 0 0
1464 5 86.12131496460803 15.36974180705937 -0.19703805650441336 -1 0 0
1615 1 84.20750796539427 16.472116993985168 1.641284766301338 -1 0 0
1469 5 88.03512196382077 12.054930848541376 -0.19703805650439282 -1 0 0
1475 5 91.86273596224777 12.054930848541371 -0.1970380565044057 -1 0 0
1466 1 89.94892896303442 13.157306035467196 1.6412847663013066 -1 0 0
1470 5 89.94892896303506 15.36974180705935 -0.19703805650439948 -1 0 0
1621 1 88.03512196382124 16.47211699398516 1.6412847663013188 -1 0 0
1627 1 91.86273596224825 16.47211699398518 1.641284766301338 -1 0 0
1487 5 99.51796395910176 12.054930848541368 -0.1970380565044058 -1 0 0
1481 5 95.69034996067478 12.054930848541373 -0.19703805650441225 -1 0 0
1472 1 93.77654296146143 13.15730603546717 1.6412847663013845 -1 0 0
1478 1 97.60415695988844 13.15730603546718 1.6412847663013137 -1 0 0
1476 5 93.77654296146204 15.36974180705937 -0.19703805650442255 -1 0 0
1482 5 97.60415695988905 15.369741807059365 -0.1970380565043947 -1 0 0
1633 1 95.69034996067526 16.47211699398518 1.6412847663013457 -1 0 0
1640 1 1.913806999213432 19.78692795250317 1.6412847663013794 0 0 0
1649 5 3.8276139984267585 18.684552765577358 -0.19703805650441805 0 0 0
1646 1 5.741420997640436 19.786927952503174 1.6412847663013517 0 0 0
1644 5 1.913806999214041 21.999363724095367 -0.19703805650440823 0 0 0
1650 5 5.741420997641042 21.999363724095364 -0.19703805650440653 0 0 0
1795 1 2.586117689999141e-13 23.1017389110212 1.6412847663013779 0 0 0
1801 1 3.827613998427261 23.101738911021197 1.641284766301353 0 0 0
1655 5 7.6552279968537515 18.68455276557735 -0.19703805650441547 0 0 0
1652 1 9.569034996067428 19.786927952503166 1.6412847663013805 0 0 0
1661 5 11.482841995280754 18.684552765577358 -0.1970380565044209 0 0 0
1656 5 9.569034996068037 21.99936372409536 -0.1970380565044176 0 0 0
1807 1 7.655227996854259 23.101738911021197 1.6412847663013688 0 0 0
1813 1 11.482841995281257 23.101738911021194 1.6412847663013659 0 0 0
1658 1 13.396648994494427 19.786927952503177 1.641284766301369 0 0 0
1667 5 15.310455993707755 18.68455276557735 -0.19703805650440606 0 0 0
1664 1 17.22426299292143 19.786927952503177 1.6412847663013541 0 0 0
1662 5 13.39664899449505 21.999363724095367 -0.19703805650439787 0 0 0
1668 5 17.22426299292203 21.999363724095367 -0.19703805650439746 0 0 0
1819 1 15.31045599370826 23.101738911021204 1.6412847663013388 0 0 0
1673 5 19.138069992134763 18.68455276557736 -0.19703805650442005 0 0 0
1670 1 21.051876991348443 19.786927952503177 1.6412847663013803 0 0 0
1679 5 22.965683990561764 18.684552765577347 -0.19703805650441691 0 0 0
1674 5 21.051876991349054 21.999363724095364 -0.19703805650441264 0 0 0
1825 1 19.13806999213525 23.101738911021194 1.6412847663013719 0 0 0
1831 1 22.96568399056226 23.101738911021197 1.6412847663013281 0 0 0
1685 5 26.79329798898876 18.684552765577354 -0.19703805650442488 0 0 0
1676 1 24.879490989775434 19.786927952503177 1.6412847663013779 0 0 0
1682 1 28.707104988202428 19.78692795250318 1.641284766301385 0 0 0
1680 5 24.879490989776034 21.999363724095367 -0.19703805650439937 0 0 0
1686 5 28.707104988203042 21.999363724095375 -0.19703805650439668 0 0 0
1837 1 26.793297988989256 23.101738911021183 1.6412847663013554 0 0 0
1691 5 30.62091198741576 18.684552765577347 -0.19703805650442038 0 0 0
1688 1 32.53471898662942 19.786927952503184 1.6412847663013679 0 0 0
1697 5 34.44852598584276 18.684552765577358 -0.19703805650442077 0 0 0
1692 5 32.53471898663003 21.999363724095367 -0.19703805650439501 0 0 0
1843 1 30.620911987416253 23.1017389110212 1.641284766301334 0 0 0
1849 1 34.44852598584325 23.101738911021194 1.6412847663013546 0 0 0
1694 1 36.36233298505643 19.786927952503174 1.6412847663013734 0 0 0
1703 5 38.27613998426976 18.684552765577358 -0.19703805650441908 0 0 0
1700 1 40.18994698348343 19.78692795250317 1.6412847663013737 0 0 0
1698 5 36.36233298505703 21.99936372409536 -0.19703805650441153 0 0 0
1704 5 40.189946983484035 21.99936372409536 -0.1970380565044172 0 0 0
1855 1 38.27613998427025 23.101738911021194 1.6412847663013534 0 0 0
1709 5 42.10375398269677 18.68455276557736 -0.19703805650441308 0 0 0
1706 1 44.01756098191045 19.78692795250318 1.6412847663013546 0 0 0
1715 5 45.93136798112377 18.684552765577354 -0.1970380565044087 0 0 0
1710 5 44.01756098191104 21.99936372409537 -0.19703805650439635 0 0 0
1861 1 42.10375398269725 23.101738911021194 1.6412847663013523 0 0 0
1867 1 45.93136798112428 23.101738911021194 1.6412847663013606 0 0 0
1712 1 47.84517498033743 19.78692795250317 1.6412847663013885 0 0 0
1565 5 49.75898197955076 18.684552765577347 -0.19703805650442377 -1 0 0
1562 1 51.672788978764416 19.786927952503177 1.6412847663013501 -1 0 0
1716 5 47.845174980338044 21.99936372409536 -0.19703805650440484 0 0 0
1566 5 51.672788978765034 21.999363724095364 -0.19703805650440165 -1 0 0
1717 1 49.75898197955126 23.101738911021204 1.6412847663013657 -1 0 0
1571 5 53.586595977977765 18.684552765577358 -0.19703805650441575 -1 0 0
1568 1 55.500402977191435 19.78692795250318 1.6412847663013765 -1 0 0
1577 5 57.414209976404756 18.68455276557735 -0.19703805650442174 -1 0 0
1572 5 55.50040297719204 21.99936372409537 -0.19703805650440182 -1 0 0
1723 1 53.586595977978256 23.101738911021194 1.6412847663013577 -1 0 0
1729 1 57.41420997640527 23.101738911021194 1.6412847663013574 -1 0 0
1574 1 59.32801697561843 19.786927952503166 1.641284766301369 -1 0 0
1583 5 61.24182397483177 18.684552765577358 -0.1970380565044033 -1 0 0
1580 1 63.15563097404544 19.786927952503177 1.641284766301282 -1 0 0
1578 5 59.32801697561905 21.999363724095364 -0.1970380565044136 -1 0 0
1584 5 63.155630974046055 21.99936372409537 -0.1970380565043711 -1 0 0
1735 1 61.241823974832265 23.101738911021204 1.6412847663013523 -1 0 0
1589 5 65.06943797325874 18.68455276557735 -0.19703805650441988 -1 0 0
1586 1 66.98324497247243 19.786927952503174 1.6412847663014956 -1 0 0
1595 5 68.89705197168577 18.684552765577354 -0.19703805650443115 -1 0 0
1590 5 66.98324497247305 21.999363724095367 -0.19703805650442546 -1 0 0
1741 1 65.06943797325928 23.101738911021197 1.6412847663013537 -1 0 0
1747 1 68.89705197168625 23.10173891102119 1.6412847663013381 -1 0 0
1592 1 70.81085897089945 19.786927952503202 1.641284766301338 -1 0 0
1601 5 72.72466597011275 18.684552765577354 -0.19703805650439932 -1 0 0
1598 1 74.63847296932643 19.786927952503166 1.6412847663014045 -1 0 0
1596 5 70.81085897090004 21.999363724095357 -0.1970380565043907 -1 0 0
1602 5 74.63847296932704 21.999363724095375 -0.1970380565044164 -1 0 0
1753 1 72.72466597011325 23.101738911021183 1.6412847663013663 -1 0 0
1607 5 76.55227996853978 18.684552765577354 -0.19703805650442044 -1 0 0
1604 1 78.46608696775344 19.786927952503184 1.64128476630131 -1 0 0
1613 5 80.37989396696675 18.684552765577337 -0.19703805650442802 -1 0 0
1608 5 78.46608696775407 21.99936372409536 -0.19703805650438413 -1 0 0
1759 1 76.55227996854026 23.101738911021204 1.6412847663013572 -1 0 0
1765 1 80.37989396696727 23.101738911021194 1.6412847663013403 -1 0 0
1610 1 82.29370096618042 19.786927952503174 1.64128476630142 -1 0 0
1619 5 84.20750796539373 18.684552765577354 -0.19703805650442846 -1 0 0
1616 1 86.12131496460744 19.78692795250318 1.641284766301418 -1 0 0
1614 5 82.29370096618106 21.99936372409537 -0.19703805650440726 -1 0 0
1620 5 86.12131496460803 21.999363724095375 -0.19703805650441483 -1 0 0
1771 1 84.20750796539427 23.101738911021197 1.6412847663013599 -1 0 0
1625 5 88.03512196382077 18.68455276557736 -0.1970380565044118 -1 0 0
1622 1 89.94892896303443 19.786927952503184 1.641284766301327 -1 0 0
1631 5 91.86273596224775 18.684552765577354 -0.19703805650440598 -1 0 0
1626 5 89.94892896303506 21.999363724095353 -0.19703805650439996 -1 0 0
1777 1 88.03512196382125 23.101738911021194 1.641284766301337 -1 0 0
1783 1 91.86273596224825 23.101738911021187 1.6412847663013783 -1 0 0
1643 5 99.51796395910176 18.68455276557735 -0.19703805650441644 -1 0 0
1628 1 93.77654296146143 19.786927952503177 1.6412847663014116 -1 0 0
1637 5 95.69034996067478 18.684552765577358 -0.19703805650441703 -1 0 0
1634 1 97.60415695988844 19.786927952503177 1.6412847663013415 -1 0 0
1632 5 93.77654296146204 21.99936372409537 -0.1970380565044183 -1 0 0
1638 5 97.60415695988905 21.999363724095367 -0.19703805650439504 -1 0 0
1789 1 95.69034996067526 23.101738911021204 1.6412847663013526 -1 0 0
1796 1 1.9138069992134283 26.416549869539164 1.641284766301321 0 0 0
1805 5 3.8276139984267594 25.314174682613377 -0.19703805650440243 0 0 0
1802 1 5.741420997640434 26.416549869539168 1.6412847663013153 0 0 0
1800 5 1.9138069992140438 28.62898564113136 -0.1970380565044217 0 0 0
1806 5 5.741420997641043 28.628985641131354 -0.19703805650441525 0 0 0
1811 5 7.655227996853754 25.314174682613377 -0.1970380565044046 0 0 0
1808 1 9.569034996067431 26.41654986953917 1.6412847663013201 0 0 0
1817 5 11.48284199528075 25.31417468261338 -0.19703805650440875 0 0 0
1812 5 9.569034996068035 28.628985641131347 -0.19703805650442446 0 0 0
1814 1 13.396648994494425 26.416549869539175 1.6412847663013383 0 0 0
1823 5 15.310455993707757 25.314174682613373 -0.19703805650439696 0 0 0
1820 1 17.224262992921428 26.41654986953917 1.64128476630133 0 0 0
1818 5 13.396648994495052 28.628985641131365 -0.19703805650441425 0 0 0
1824 5 17.22426299292203 28.628985641131354 -0.19703805650441816 0 0 0
1829 5 19.138069992134763 25.314174682613384 -0.19703805650440614 0 0 0
1826 1 21.051876991348443 26.41654986953917 1.6412847663013048 0 0 0
1835 5 22.965683990561757 25.31417468261337 -0.1970380565043987 0 0 0
1830 5 21.05187699134905 28.628985641131347 -0.1970380565044214 0 0 0
1841 5 26.793297988988755 25.314174682613377 -0.1970380565044172 0 0 0
1832 1 24.879490989775434 26.416549869539175 1.6412847663013486 0 0 0
1838 1 28.707104988202435 26.416549869539182 1.6412847663013475 0 0 0
1836 5 24.879490989776038 28.628985641131358 -0.197038056504421 0 0 0
1842 5 28.707104988203042 28.628985641131365 -0.19703805650441034 0 0 0
1847 5 30.62091198741576 25.31417468261337 -0.19703805650440764 0 0 0
1844 1 32.53471898662942 26.416549869539175 1.6412847663013463 0 0 0
1853 5 34.44852598584276 25.314174682613377 -0.19703805650441095 0 0 0
1848 5 32.53471898663003 28.62898564113136 -0.197038056504413 0 0 0
1850 1 36.36233298505643 26.416549869539175 1.6412847663013197 0 0 0
1859 5 38.27613998426976 25.314174682613384 -0.19703805650439893 0 0 0
1856 1 40.18994698348344 26.41654986953917 1.6412847663013197 0 0 0
1854 5 36.36233298505703 28.62898564113135 -0.19703805650442419 0 0 0
1860 5 40.18994698348404 28.62898564113135 -0.1970380565044277 0 0 0
1865 5 42.103753982696766 25.314174682613384 -0.19703805650439904 0 0 0
1862 1 44.01756098191044 26.41654986953917 1.6412847663013197 0 0 0
1871 5 45.93136798112377 25.31417468261338 -0.19703805650440495 0 0 0
1866 5 44.017560981911046 28.628985641131354 -0.1970380565044188 0 0 0
1868 1 47.84517498033745 26.416549869539164 1.641284766301351 0 0 0
1721 5 49.75898197955076 25.314174682613366 -0.19703805650440295 -1 0 0
1718 1 51.67278897876441 26.41654986953917 1.641284766301306 -1 0 0
1872 5 47.845174980338044 28.628985641131358 -0.19703805650441814 0 0 0
1722 5 51.672788978765034 28.628985641131358 -0.19703805650441203 -1 0 0
1727 5 53.586595977977765 25.314174682613388 -0.1970380565044025 -1 0 0
1724 1 55.500402977191435 26.416549869539175 1.6412847663013344 -1 0 0
1733 5 57.414209976404756 25.314174682613373 -0.19703805650441364 -1 0 0
1728 5 55.50040297719204 28.628985641131354 -0.19703805650441766 -1 0 0
1730 1 59.32801697561844 26.41654986953916 1.6412847663013275 -1 0 0
1739 5 61.24182397483176 25.31417468261338 -0.1970380565043905 -1 0 0
1736 1 63.15563097404544 26.416549869539182 1.6412847663012489 -1 0 0
1734 5 59.32801697561904 28.628985641131358 -0.1970380565044311 -1 0 0
1740 5 63.15563097404606 28.62898564113136 -0.19703805650437753 -1 0 0
1745 5 65.06943797325874 25.314174682613373 -0.1970380565044081 -1 0 0
1742 1 66.98324497247243 26.416549869539164 1.6412847663014498 -1 0 0
1751 5 68.89705197168577 25.31417468261338 -0.19703805650440478 -1 0 0
1746 5 66.98324497247305 28.62898564113136 -0.19703805650444006 -1 0 0
1748 1 70.81085897089942 26.416549869539185 1.6412847663012706 -1 0 0
1757 5 72.72466597011275 25.314174682613384 -0.19703805650440862 -1 0 0
1754 1 74.63847296932646 26.416549869539157 1.641284766301363 -1 0 0
1752 5 70.81085897090004 28.628985641131347 -0.19703805650440712 -1 0 0
1758 5 74.63847296932704 28.628985641131358 -0.1970380565044445 -1 0 0
1763 5 76.55227996853978 25.314174682613377 -0.1970380565043981 -1 0 0