LAMMPS data file via write_data, version 29 Aug 2024, timestep = 234, units = metal

7020 atoms
36 atom types

0 98.483099806832 xlo xhi
0 98.41023031863 ylo yhi
-50 50 zlo zhi

Masses

1 44.955908
2 44.955908
3 44.955908
4 44.955908
5 44.955908
6 44.955908
7 44.955908
8 44.955908
9 44.955908
10 44.955908
11 44.955908
12 44.955908
13 32.06
14 32.06
15 32.06
16 32.06
17 32.06
18 32.06
19 32.06
20 32.06
21 32.06
22 32.06
23 32.06
24 32.06
25 32.06
26 32.06
27 32.06
28 32.06
29 32.06
30 32.06
31 32.06
32 32.06
33 32.06
34 32.06
35 32.06
36 32.06

Atoms # atomic

1174 20 1.9953011922471169 0.25344990156970076 2.0576734564804777 0 0 0
1182 4 3.1803131403745586 1.1100655945245588 -0.04829033168129782 0 0 0
1180 18 5.287943955691198 0.6833457659619738 1.2977892503917896 0 0 0
1333 17 2.7756709787580784 1.3929507002024224 2.3730120822115612 0 0 0
1334 1 5.739309958404436 5.234589390750755 -0.1590613243395463 0 0 0
1340 13 4.613501474620508 3.8286597643616407 1.5404907916540926 0 0 0
1323 2 1.4948059272480494 4.6644783165710875 0.8796221215452261 0 0 0
1335 2 9.070428989311566 4.664478316570596 0.879622121545589 0 0 0
1186 20 9.570924254311862 0.2534499015697939 2.057673456483109 0 0 0
1194 4 10.755936202437551 1.1100655945243465 -0.04829033167917802 0 0 0
1345 17 10.351294040821774 1.3929507002008537 2.373012082213899 0 0 0
1341 14 6.830207302375837 4.160123891823686 1.8749188714510197 0 0 0
1192 18 12.863567017754583 0.6833457659614244 1.2977892503926691 0 0 0
1198 20 17.146547316375653 0.2534499015695914 2.0576734564821213 0 0 0
1347 2 16.64605205137542 4.664478316570641 0.8796221215457497 0 0 0
1353 14 14.40583036443975 4.160123891823657 1.87491887145128 0 0 0
1346 1 13.314933020468331 5.234589390750628 -0.15906132433976602 0 0 0
1352 13 12.189124536684703 3.8286597643615847 1.5404907916545787 0 0 0
1206 4 18.331559264502353 1.1100655945247904 -0.04829033167987385 0 0 0
1204 18 20.43919007981924 0.6833457659618745 1.2977892503927027 0 0 0
1357 17 17.926917102886108 1.3929507002011028 2.37301208221298 0 0 0
1358 1 20.89055608253296 5.234589390750945 -0.15906132433941553 0 0 0
1365 14 21.981453426504324 4.160123891823635 1.874918871451316 0 0 0
1364 13 19.76474759874879 3.8286597643616354 1.5404907916542756 0 0 0
1359 2 24.221675113440508 4.664478316570467 0.8796221215466508 0 0 0
1210 20 24.722170378440097 0.2534499015688619 2.0576734564841903 0 0 0
1218 4 25.907182326565643 1.1100655945236628 -0.048290331678741326 0 0 0
1216 18 28.01481314188338 0.6833457659609654 1.2977892503918376 0 0 0
1369 17 25.502540164952663 1.3929507002005654 2.3730120822147334 0 0 0
1370 1 28.46617914459686 5.234589390750362 -0.15906132433978343 0 0 0
1376 13 27.340370660812894 3.828659764360828 1.5404907916539974 0 0 0
1371 2 31.797298175504878 4.664478316570797 0.8796221215462 0 0 0
1222 20 32.29779344050399 0.25344990156987024 2.0576734564828976 0 0 0
1230 4 33.4828053886301 1.1100655945244533 -0.04829033167947387 0 0 0
1381 17 33.07816322701561 1.392950700201916 2.37301208221385 0 0 0
1377 14 29.55707648856841 4.16012389182363 1.874918871450826 0 0 0
1228 18 35.590436203947306 0.683345765961644 1.2977892503920518 0 0 0
1234 20 39.87341650256721 0.2534499015697624 2.0576734564819823 0 0 0
1383 2 39.37292123756788 4.664478316570984 0.8796221215453498 0 0 0
1389 14 37.132699550632246 4.160123891823882 1.8749188714505982 0 0 0
1382 1 36.041802206660215 5.234589390750259 -0.1590613243399015 0 0 0
1388 13 34.91599372287659 3.8286597643611433 1.5404907916545547 0 0 0
1242 4 41.05842845069376 1.1100655945254019 -0.04829033168007673 0 0 0
1240 18 43.16605926601088 0.6833457659621559 1.2977892503920005 0 0 0
1393 17 40.65378628907839 1.392950700202074 2.373012082212983 0 0 0
1394 1 43.61742526872358 5.234589390750537 -0.15906132433888728 0 0 0
1401 14 44.70832261269628 4.160123891823842 1.8749188714512524 0 0 0
1400 13 42.49161678493995 3.8286597643620266 1.5404907916561605 0 0 0
1395 2 46.948544299631195 4.66447831657143 0.8796221215453343 0 0 0
1246 20 47.449039564631164 0.2534499015692956 2.057673456482112 0 0 0
1098 4 48.634051512757644 1.1100655945246376 -0.048290331679882864 -1 0 0
1096 18 50.74168232807471 0.6833457659623549 1.297789250392367 -1 0 0
1249 17 48.22940935114239 1.392950700200865 2.3730120822130476 -1 0 0
1250 1 51.19304833078896 5.234589390751583 -0.15906132433816894 -1 0 0
1256 13 50.06723984700394 3.8286597643621763 1.5404907916549597 -1 0 0
1251 2 54.52416736169685 4.664478316571074 0.8796221215470708 -1 0 0
1102 20 55.02466262669556 0.2534499015681223 2.057673456484791 -1 0 0
1110 4 56.209674574821534 1.1100655945226623 -0.048290331678285225 -1 0 0
1261 17 55.80503241320981 1.3929507001995938 2.3730120822153364 -1 0 0
1257 14 52.28394567476086 4.1601238918237184 1.8749188714516858 -1 0 0
1268 13 57.64286290906923 3.8286597643604448 1.5404907916521289 -1 0 0
1108 18 58.31730539013939 0.6833457659615626 1.2977892503920976 -1 0 0
1114 20 62.600285688760685 0.25344990156933017 2.05767345648551 -1 0 0
1263 2 62.09979042376301 4.664478316570584 0.8796221215482241 -1 0 0
1269 14 59.85956873682476 4.1601238918245045 1.8749188714513292 -1 0 0
1262 1 58.768671392854706 5.2345893907516245 -0.1590613243392019 -1 0 0
1273 17 63.380655475276406 1.3929507002013541 2.373012082216395 -1 0 0
1122 4 63.78529763688687 1.1100655945229132 -0.04829033167785629 -1 0 0
1120 18 65.89292845220483 0.6833457659612583 1.2977892503917243 -1 0 0
1274 1 66.34429445491924 5.234589390750776 -0.15906132433957815 -1 0 0
1281 14 67.43519179888865 4.160123891824717 1.8749188714512481 -1 0 0
1280 13 65.21848597113394 3.8286597643597076 1.5404907916521013 -1 0 0
1275 2 69.67541348582785 4.664478316570295 0.879622121548318 -1 0 0
1126 20 70.17590875082526 0.25344990157060704 2.0576734564836707 -1 0 0
1134 4 71.36092069895258 1.1100655945240168 -0.048290331679004345 -1 0 0
1132 18 73.46855151427006 0.6833457659616459 1.2977892503916086 -1 0 0
1285 17 70.95627853734089 1.3929507002036006 2.373012082215179 -1 0 0
1286 1 73.91991751698326 5.234589390750125 -0.1590613243401984 -1 0 0
1293 14 75.01081486095272 4.160123891824922 1.8749188714507792 -1 0 0
1292 13 72.79410903319807 3.8286597643596343 1.5404907916519845 -1 0 0
1287 2 77.25103654789184 4.664478316570007 0.8796221215477378 -1 0 0
1138 20 77.75153181288927 0.2534499015699401 2.057673456483937 -1 0 0
1146 4 78.93654376101675 1.1100655945233597 -0.04829033167890177 -1 0 0
1297 17 78.53190159940604 1.3929507002035728 2.3730120822154266 -1 0 0
1144 18 81.04417457633448 0.6833457659610602 1.2977892503912316 -1 0 0
1304 13 80.3697320952614 3.828659764360483 1.5404907916548556 -1 0 0
1150 20 85.32715487495351 0.2534499015704126 2.0576734564838426 -1 0 0
1299 2 84.82665960995647 4.66447831657038 0.8796221215478968 -1 0 0
1305 14 82.58643792301757 4.160123891824564 1.8749188714508982 -1 0 0
1298 1 81.49554057904636 5.234589390749576 -0.1590613243389309 -1 0 0
1158 4 86.51216682308029 1.1100655945241398 -0.048290331679168116 -1 0 0
1309 17 86.10752466147028 1.392950700204701 2.3730120822153697 -1 0 0
1156 18 88.6197976383983 0.6833457659607748 1.2977892503902615 -1 0 0
1311 2 92.4022826720181 4.664478316571097 0.8796221215457821 -1 0 0
1310 1 89.07116364110863 5.234589390748896 -0.15906132433866418 -1 0 0
1317 14 90.16206098508104 4.160123891824036 1.8749188714507272 -1 0 0
1316 13 87.94535515732399 3.8286597643604634 1.5404907916559383 -1 0 0
1329 14 97.73768404714491 4.1601238918229875 1.8749188714516796 -1 0 0
1328 13 95.52097821938746 3.828659764362013 1.5404907916574155 -1 0 0
1162 20 92.90277793701661 0.2534499015712119 2.057673456480629 -1 0 0
1170 4 94.08778988514413 1.1100655945253708 -0.04829033168125786 -1 0 0
1168 18 96.19542070046106 0.6833457659616747 1.2977892503908532 -1 0 0
1321 17 93.6831477235298 1.3929507002054422 2.373012082212291 -1 0 0
1322 1 96.64678670317183 5.234589390749407 -0.15906132433764264 -1 0 0
1332 16 0.42440960607054307 5.869970707773714 -1.0594572316361943 0 0 0
1330 20 1.995301192247225 6.8141319228106 2.0576734564822052 0 0 0
1338 4 3.1803131403730247 7.670747615766792 -0.048290331679985476 0 0 0
1336 18 5.287943955690738 7.244027787203769 1.297789250391202 0 0 0
1489 17 2.775670978759409 7.95363272144338 2.3730120822132346 0 0 0
1496 13 4.61350147462047 10.389341785603413 1.540490791654414 0 0 0
1479 2 1.494805927248418 11.22516033781318 0.8796221215458296 0 0 0
1491 2 9.070428989311955 11.2251603378133 0.8796221215456361 0 0 0
1344 16 8.000032668135946 5.869970707774667 -1.0594572316352058 0 0 0
1342 20 9.570924254311741 6.814131922810872 2.057673456483216 0 0 0
1350 4 10.75593620243641 7.670747615766186 -0.04829033167919444 0 0 0
1497 14 6.830207302376176 10.720805913066044 1.874918871450884 0 0 0
1501 17 10.351294040822832 7.953632721442312 2.3730120822141054 0 0 0
1343 15 7.311553761785926 6.369749782351833 1.4231252054216528 0 0 0
1348 18 12.863567017754189 7.244027787203702 1.297789250391531 0 0 0
1356 16 15.575655730200008 5.86997070777499 -1.0594572316354014 0 0 0
1354 20 17.146547316375703 6.814131922810634 2.0576734564832204 0 0 0
1503 2 16.646052051375946 11.225160337813264 0.8796221215459274 0 0 0
1509 14 14.405830364440352 10.72080591306585 1.8749188714513056 0 0 0
1355 15 14.887176823849705 6.369749782352012 1.4231252054218377 0 0 0
1508 13 12.189124536684355 10.389341785603937 1.5404907916547477 0 0 0
1362 4 18.331559264500736 7.6707476157660155 -0.0482903316791419 0 0 0
1360 18 20.43919007981837 7.2440277872037875 1.2977892503919832 0 0 0
1368 16 23.151278792265 5.869970707775521 -1.0594572316337225 0 0 0
1513 17 17.926917102886737 7.953632721441895 2.373012082214006 0 0 0
1367 15 22.462799885914368 6.369749782351493 1.4231252054226098 0 0 0
1521 14 21.9814534265043 10.720805913066018 1.8749188714509675 0 0 0
1520 13 19.764747598748936 10.389341785603435 1.5404907916535056 0 0 0
1515 2 24.221675113440465 11.22516033781279 0.8796221215463719 0 0 0
1366 20 24.722170378440048 6.814131922810468 2.0576734564845265 0 0 0
1374 4 25.907182326564698 7.670747615765753 -0.048290331678376534 0 0 0
1372 18 28.01481314188276 7.244027787203186 1.2977892503917654 0 0 0
1525 17 25.502540164952475 7.95363272144214 2.3730120822151286 0 0 0
1532 13 27.34037066081285 10.389341785603095 1.5404907916545008 0 0 0
1527 2 31.797298175505055 11.22516033781297 0.8796221215463949 0 0 0
1380 16 30.726901854328784 5.8699707077750665 -1.0594572316346926 0 0 0
1378 20 32.29779344050392 6.814131922811126 2.057673456483479 0 0 0
1386 4 33.48280538862901 7.670747615766355 -0.04829033167918533 0 0 0
1533 14 29.557076488568683 10.72080591306574 1.8749188714509237 0 0 0
1537 17 33.078163227016596 7.953632721443438 2.3730120822143808 0 0 0
1379 15 30.038422947977992 6.369749782351886 1.423125205421704 0 0 0
1384 18 35.590436203946965 7.244027787203529 1.2977892503911577 0 0 0
1392 16 38.30252491639185 5.869970707774118 -1.0594572316360522 0 0 0
1390 20 39.87341650256714 6.814131922811364 2.0576734564820196 0 0 0
1539 2 39.372921237567546 11.225160337813392 0.8796221215449757 0 0 0
1545 14 37.13269955063186 10.720805913066124 1.8749188714505065 0 0 0
1391 15 37.614046010041704 6.369749782352281 1.4231252054206966 0 0 0
1544 13 34.91599372287647 10.389341785603076 1.5404907916545023 0 0 0
1398 4 41.058428450692716 7.670747615766502 -0.04829033168011222 0 0 0
1396 18 43.166059266009995 7.244027787204297 1.2977892503916268 0 0 0
1404 16 45.87814797845478 5.8699707077750665 -1.0594572316359487 0 0 0
1549 17 40.65378628907762 7.953632721442948 2.373012082212932 0 0 0
1403 15 45.18966907210516 6.369749782352632 1.4231252054216226 0 0 0
1557 14 44.708322612696 10.720805913066012 1.8749188714512883 0 0 0
1556 13 42.491616784939765 10.389341785604646 1.540490791655785 0 0 0
1551 2 46.94854429963076 11.22516033781369 0.879622121545169 0 0 0
1402 20 47.449039564630844 6.814131922810849 2.0576734564824686 0 0 0
1254 4 48.63405151275697 7.6707476157664365 -0.048290331679517774 -1 0 0
1252 18 50.741682328074 7.24402778720457 1.2977892503928798 -1 0 0
1405 17 48.229409351141165 7.953632721441715 2.3730120822132283 -1 0 0
1412 13 50.06723984700422 10.389341785604161 1.5404907916540722 -1 0 0
1407 2 54.524167361697046 11.22516033781276 0.8796221215474525 -1 0 0
1260 16 53.45377104052069 5.869970707777589 -1.0594572316325592 -1 0 0
1258 20 55.024662626695495 6.814131922809897 2.0576734564854187 -1 0 0
1266 4 56.209674574821165 7.670747615765548 -0.048290331677627855 -1 0 0
1413 14 52.28394567476095 10.720805913065584 1.8749188714517233 -1 0 0
1417 17 55.80503241320986 7.9536327214414975 2.3730120822160075 -1 0 0
1259 15 52.76529213416998 6.369749782351673 1.4231252054242736 -1 0 0
1424 13 57.64286290906993 10.389341785601678 1.5404907916513326 -1 0 0
1264 18 58.317305390139275 7.244027787203689 1.2977892503924635 -1 0 0
1272 16 61.02939410258717 5.869970707777976 -1.0594572316312958 -1 0 0
1270 20 62.60028568876068 6.814131922810633 2.0576734564858135 -1 0 0
1419 2 62.09979042376331 11.225160337812392 0.8796221215484311 -1 0 0
1425 14 59.85956873682486 10.720805913066698 1.8749188714511082 -1 0 0
1271 15 60.34091519623463 6.369749782351462 1.423125205424287 -1 0 0
1429 17 63.38065547527767 7.953632721443336 2.3730120822168868 -1 0 0
1278 4 63.78529763688652 7.670747615765222 -0.04829033167750071 -1 0 0
1276 18 65.89292845220501 7.244027787203298 1.2977892503913864 -1 0 0
1284 16 68.60501716465183 5.869970707776837 -1.059457231631831 -1 0 0
1283 15 67.9165382582987 6.36974978235168 1.4231252054233714 -1 0 0
1437 14 67.4351917988894 10.72080591306718 1.8749188714509029 -1 0 0
1436 13 65.21848597113409 10.389341785601575 1.5404907916524386 -1 0 0
1431 2 69.67541348582868 11.225160337812724 0.8796221215486748 -1 0 0
1282 20 70.17590875082513 6.8141319228111215 2.0576734564849226 -1 0 0
1290 4 71.36092069895122 7.670747615765147 -0.048290331678443016 -1 0 0
1288 18 73.46855151426989 7.244027787203104 1.297789250390063 -1 0 0
1441 17 70.95627853734355 7.953632721445071 2.373012082216311 -1 0 0
1449 14 75.01081486095327 10.720805913067181 1.8749188714510068 -1 0 0
1448 13 72.79410903319733 10.389341785601841 1.5404907916534634 -1 0 0
1443 2 77.251036547892 11.225160337813216 0.8796221215475124 -1 0 0
1296 16 76.18064022671592 5.869970707774872 -1.05945723163301 -1 0 0
1294 20 77.75153181288914 6.814131922811815 2.057673456483256 -1 0 0
1302 4 78.93654376101574 7.670747615765069 -0.04829033167951949 -1 0 0
1453 17 78.53190159940526 7.953632721445352 2.3730120822147702 -1 0 0
1295 15 75.49216132036298 6.369749782351656 1.4231252054217145 -1 0 0
1300 18 81.04417457633357 7.244027787203431 1.2977892503904715 -1 0 0
1460 13 80.36973209526103 10.389341785602793 1.5404907916542758 -1 0 0
1308 16 83.75626328877881 5.869970707773787 -1.0594572316327553 -1 0 0
1306 20 85.327154874953 6.814131922812136 2.057673456483545 -1 0 0
1455 2 84.82665960995563 11.22516033781257 0.8796221215474322 -1 0 0
1461 14 82.58643792301726 10.720805913066556 1.8749188714509932 -1 0 0
1307 15 83.06778438242709 6.369749782351759 1.4231252054213186 -1 0 0
1314 4 86.51216682307921 7.670747615766343 -0.048290331679189356 -1 0 0
1465 17 86.10752466146798 7.953632721445797 2.3730120822150087 -1 0 0
1312 18 88.61979763839713 7.244027787203009 1.2977892503907646 -1 0 0
1320 16 91.33188635084008 5.86997070777228 -1.0594572316363524 -1 0 0
1467 2 92.40228267201712 11.225160337813083 0.8796221215455455 -1 0 0
1319 15 90.64340744448957 6.369749782352475 1.4231252054202412 -1 0 0
1473 14 90.1620609850803 10.720805913066421 1.8749188714506133 -1 0 0
1472 13 87.94535515732473 10.38934178560236 1.5404907916543313 -1 0 0
1485 14 97.73768404714495 10.720805913065679 1.8749188714513216 -1 0 0
1331 15 98.21903050655318 6.369749782352107 1.423125205421929 -1 0 0
1484 13 95.52097821938825 10.389341785604223 1.540490791656204 -1 0 0
1318 20 92.90277793701614 6.814131922812342 2.057673456480968 -1 0 0
1326 4 94.08778988514295 7.6707476157673415 -0.04829033168070034 -1 0 0
1324 18 96.19542070045998 7.244027787203855 1.2977892503915145 -1 0 0
1477 17 93.68314772352777 7.953632721445631 2.373012082212553 -1 0 0
1490 1 5.739309958404347 11.795271411992784 -0.15906132433942 0 0 0
1486 20 1.9953011922471637 13.374813944052606 2.0576734564829184 0 0 0
1492 18 5.287943955690688 13.804709808445903 1.297789250391544 0 0 0
1488 16 0.4244096060718065 12.430652729016613 -1.0594572316354167 0 0 0
1494 4 3.18031314037295 14.231429637008647 -0.04829033167948232 0 0 0
1645 17 2.775670978759644 14.514314742685144 2.373012082213813 0 0 0
1652 13 4.613501474620471 16.950023806845394 1.5404907916547115 0 0 0
1498 20 9.570924254311631 13.374813944053244 2.0576734564828865 0 0 0
1500 16 8.000032668135837 12.430652729016963 -1.0594572316355844 0 0 0
1506 4 10.755936202437047 14.231429637008846 -0.04829033167935598 0 0 0
1657 17 10.351294040822877 14.514314742684979 2.373012082213814 0 0 0
1499 15 7.3115537617856585 12.930431803594473 1.423125205421481 0 0 0
1653 14 6.8302073023763805 17.281487934308068 1.8749188714512297 0 0 0
1502 1 13.314933020468512 11.795271411993037 -0.15906132433915923 0 0 0
1504 18 12.863567017754564 13.804709808446203 1.2977892503919986 0 0 0
1510 20 17.14654731637554 13.374813944052562 2.0576734564835157 0 0 0
1512 16 15.575655730200042 12.430652729017883 -1.0594572316351225 0 0 0
1511 15 14.887176823849625 12.930431803594331 1.4231252054224963 0 0 0
1665 14 14.405830364440847 17.28148793430798 1.874918871451135 0 0 0
1664 13 12.18912453668469 16.950023806845458 1.5404907916539088 0 0 0
1514 1 20.89055608253313 11.795271411993161 -0.15906132433975456 0 0 0
1516 18 20.439190079818815 13.804709808445917 1.2977892503916697 0 0 0
1518 4 18.33155926450091 14.23142963700842 -0.04829033167905447 0 0 0
1524 16 23.15127879226515 12.430652729017524 -1.0594572316342514 0 0 0
1669 17 17.92691710288803 14.514314742684592 2.3730120822142706 0 0 0
1523 15 22.462799885914386 12.930431803593912 1.4231252054221013 0 0 0
1677 14 21.981453426504356 17.281487934308405 1.8749188714505771 0 0 0
1676 13 19.76474759874926 16.950023806844737 1.5404907916532071 0 0 0
1526 1 28.466179144596843 11.795271411992426 -0.1590613243395263 0 0 0
1522 20 24.722170378439998 13.37481394405288 2.057673456483957 0 0 0
1528 18 28.014813141882897 13.804709808445532 1.2977892503918158 0 0 0
1530 4 25.907182326565106 14.231429637007922 -0.04829033167878657 0 0 0
1681 17 25.50254016495247 14.514314742684709 2.373012082214648 0 0 0
1688 13 27.340370660812447 16.95002380684548 1.540490791655339 0 0 0
1534 20 32.29779344050368 13.374813944053084 2.057673456483654 0 0 0
1536 16 30.726901854328794 12.430652729017144 -1.0594572316344626 0 0 0
1542 4 33.48280538862887 14.23142963700862 -0.048290331679082546 0 0 0
1693 17 33.078163227016674 14.51431474268561 2.3730120822145175 0 0 0
1535 15 30.038422947978095 12.93043180359401 1.4231252054217771 0 0 0
1689 14 29.557076488569095 17.281487934307787 1.8749188714510716 0 0 0
1538 1 36.04180220665983 11.795271411992333 -0.15906132433998096 0 0 0
1540 18 35.590436203946865 13.804709808445581 1.297789250391138 0 0 0
1546 20 39.87341650256723 13.374813944053864 2.0576734564816337 0 0 0
1548 16 38.30252491639126 12.430652729016098 -1.0594572316367372 0 0 0
1547 15 37.61404601004128 12.930431803594763 1.4231252054203403 0 0 0
1701 14 37.13269955063227 17.281487934308046 1.8749188714506106 0 0 0
1700 13 34.91599372287611 16.950023806845024 1.5404907916548563 0 0 0
1550 1 43.617425268723544 11.795271411993111 -0.15906132433897724 0 0 0
1552 18 43.16605926601 13.80470980844673 1.2977892503916706 0 0 0
1554 4 41.05842845069276 14.231429637009292 -0.048290331680239613 0 0 0
1560 16 45.878147978454656 12.430652729017805 -1.059457231636294 0 0 0
1705 17 40.653786289077324 14.514314742685505 2.373012082212792 0 0 0
1559 15 45.18966907210484 12.930431803594924 1.423125205422031 0 0 0
1713 14 44.708322612695966 17.281487934308107 1.87491887145098 0 0 0
1712 13 42.49161678493981 16.95002380684638 1.5404907916553967 0 0 0
1406 1 51.19304833078957 11.795271411993921 -0.1590613243383052 -1 0 0
1558 20 47.44903956463075 13.37481394405252 2.057673456482607 0 0 0
1408 18 50.74168232807407 13.804709808446603 1.297789250392913 -1 0 0
1410 4 48.63405151275688 14.231429637008413 -0.04829033167938177 -1 0 0
1561 17 48.229409351141626 14.514314742683652 2.3730120822134038 -1 0 0
1568 13 50.06723984700385 16.950023806846563 1.540490791655677 -1 0 0
1414 20 55.02466262669535 13.374813944051223 2.057673456486073 -1 0 0
1416 16 53.45377104052149 12.430652729020524 -1.059457231631843 -1 0 0
1422 4 56.20967457482097 14.231429637006665 -0.04829033167737372 -1 0 0
1573 17 55.805032413211244 14.514314742683082 2.373012082216479 -1 0 0
1415 15 52.7652921341702 12.930431803593331 1.4231252054250103 -1 0 0
1569 14 52.28394567476148 17.28148793430757 1.874918871452124 -1 0 0
1580 13 57.642862909069464 16.9500238068437 1.5404907916513129 -1 0 0
1418 1 58.76867139285523 11.795271411993394 -0.15906132433985845 -1 0 0
1420 18 58.31730539013943 13.804709808445415 1.2977892503919901 -1 0 0
1426 20 62.600285688760685 13.374813944052772 2.057673456485627 -1 0 0
1428 16 61.02939410258799 12.430652729019899 -1.0594572316310678 -1 0 0
1427 15 60.34091519623499 12.9304318035934 1.4231252054238144 -1 0 0
1585 17 63.38065547527807 14.514314742685373 2.373012082216588 -1 0 0
1581 14 59.85956873682494 17.28148793430888 1.874918871451016 -1 0 0
1430 1 66.3442944549194 11.795271411992644 -0.15906132433961565 -1 0 0
1432 18 65.89292845220518 13.80470980844551 1.2977892503912074 -1 0 0
1434 4 63.78529763688686 14.231429637006693 -0.04829033167783336 -1 0 0
1440 16 68.60501716465227 12.430652729018535 -1.0594572316316406 -1 0 0
1439 15 67.91653825829896 12.930431803593946 1.4231252054227956 -1 0 0
1593 14 67.4351917988896 17.281487934308995 1.8749188714510896 -1 0 0
1592 13 65.21848597113393 16.950023806843618 1.5404907916519235 -1 0 0
1442 1 73.91991751698266 11.79527141199206 -0.159061324339069 -1 0 0
1438 20 70.1759087508249 13.374813944053608 2.0576734564847605 -1 0 0
1444 18 73.46855151426996 13.804709808445546 1.297789250390781 -1 0 0
1446 4 71.36092069895167 14.23142963700778 -0.04829033167842914 -1 0 0
1597 17 70.9562785373429 14.514314742687658 2.3730120822162086 -1 0 0
1605 14 75.0108148609532 17.281487934309354 1.874918871450838 -1 0 0
1604 13 72.79410903319804 16.950023806843085 1.5404907916521087 -1 0 0
1450 20 77.75153181288874 13.374813944054027 2.057673456482769 -1 0 0
1452 16 76.18064022671473 12.430652729017412 -1.059457231633931 -1 0 0
1458 4 78.93654376101627 14.231429637008382 -0.048290331679767005 -1 0 0
1609 17 78.53190159940554 14.514314742688386 2.373012082214473 -1 0 0
1451 15 75.49216132036207 12.930431803594663 1.423125205422094 -1 0 0
1456 18 81.04417457633406 13.804709808445871 1.2977892503906905 -1 0 0
1616 13 80.3697320952617 16.95002380684432 1.5404907916537454 -1 0 0
1454 1 81.49554057904633 11.795271411992235 -0.15906132433859757 -1 0 0
1462 20 85.32715487495265 13.374813944053672 2.057673456483566 -1 0 0
1464 16 83.75626328877837 12.43065272901666 -1.0594572316331288 -1 0 0
1463 15 83.06778438242674 12.93043180359394 1.4231252054220418 -1 0 0
1470 4 86.51216682307872 14.231429637008324 -0.04829033167927063 -1 0 0
1621 17 86.10752466146863 14.514314742687645 2.3730120822150536 -1 0 0
1617 14 82.58643792301713 17.281487934309013 1.8749188714509517 -1 0 0
1466 1 89.071163641109 11.795271411991509 -0.1590613243397873 -1 0 0
1468 18 88.61979763839693 13.804709808445242 1.2977892503901614 -1 0 0
1476 16 91.33188635084049 12.430652729015204 -1.0594572316368092 -1 0 0
1475 15 90.64340744448945 12.930431803594777 1.4231252054202022 -1 0 0
1629 14 90.16206098508044 17.281487934308686 1.8749188714504605 -1 0 0
1628 13 87.94535515732487 16.95002380684421 1.5404907916536132 -1 0 0
1478 1 96.64678670317247 11.795271411992292 -0.1590613243384678 -1 0 0
1487 15 98.21903050655376 12.930431803594317 1.4231252054218815 -1 0 0
1474 20 92.90277793701598 13.374813944054077 2.057673456480964 -1 0 0
1480 18 96.19542070045978 13.804709808446395 1.29778925039123 -1 0 0
1482 4 94.08778988514263 14.231429637008944 -0.0482903316807875 -1 0 0
1633 17 93.68314772352801 14.514314742687079 2.373012082212501 -1 0 0
1641 14 97.73768404714481 17.281487934308064 1.8749188714510827 -1 0 0
1640 13 95.52097821938858 16.95002380684606 1.5404907916554016 -1 0 0
1644 16 0.4244096060721331 18.99133475025862 -1.0594572316355584 0 0 0
1642 20 1.995301192247101 19.935495965294766 2.057673456482624 0 0 0
1650 4 3.180313140373218 20.792111658250413 -0.04829033167968622 0 0 0
1648 18 5.287943955690766 20.365391829688082 1.2977892503915982 0 0 0
1801 17 2.7756709787597966 21.074996763927285 2.373012082213597 0 0 0
1646 1 5.739309958404574 18.35595343323468 -0.1590613243391847 0 0 0
1635 2 1.4948059272483785 17.785842359055174 0.8796221215457548 0 0 0
1647 2 9.070428989312052 17.7858423590554 0.8796221215460162 0 0 0
1656 16 8.000032668136079 18.991334750259558 -1.0594572316353577 0 0 0
1654 20 9.570924254311448 19.935495965294777 2.0576734564831933 0 0 0
1662 4 10.755936202437345 20.792111658250516 -0.048290331679235 0 0 0
1813 17 10.351294040824126 21.07499676392696 2.3730120822140153 0 0 0
1655 15 7.311553761785467 19.49111382483655 1.4231252054220793 0 0 0
1659 2 16.646052051376518 17.78584235905532 0.8796221215464107 0 0 0
1660 18 12.863567017754987 20.365391829688207 1.2977892503919959 0 0 0
1668 16 15.575655730200992 18.991334750260485 -1.0594572316345527 0 0 0
1666 20 17.146547316375297 19.935495965294255 2.057673456483877 0 0 0
1658 1 13.314933020469189 18.35595343323512 -0.1590613243393451 0 0 0
1667 15 14.887176823849881 19.491113824836223 1.4231252054227916 0 0 0
1674 4 18.331559264500992 20.79211165825008 -0.04829033167907048 0 0 0
1672 18 20.439190079819134 20.36539182968783 1.2977892503911574 0 0 0
1680 16 23.151278792265032 18.991334750259057 -1.0594572316353312 0 0 0
1825 17 17.92691710288946 21.07499676392691 2.373012082214471 0 0 0
1670 1 20.890556082533067 18.355953433234827 -0.15906132434024708 0 0 0
1679 15 22.462799885914155 19.49111382483653 1.4231252054210812 0 0 0
1671 2 24.221675113440327 17.785842359055195 0.8796221215459892 0 0 0
1678 20 24.72217037843972 19.935495965295313 2.0576734564828274 0 0 0
1686 4 25.907182326565703 20.79211165825015 -0.04829033167962739 0 0 0
1684 18 28.01481314188298 20.36539182968801 1.2977892503920099 0 0 0
1837 17 25.50254016495177 21.074996763927192 2.3730120822135636 0 0 0
1682 1 28.466179144596616 18.355953433234465 -0.15906132433895828 0 0 0
1683 2 31.797298175504967 17.78584235905519 0.8796221215464631 0 0 0
1692 16 30.726901854328446 18.99133475025917 -1.0594572316344233 0 0 0
1690 20 32.29779344050326 19.935495965294916 2.0576734564836308 0 0 0
1698 4 33.4828053886289 20.792111658250665 -0.04829033167906735 0 0 0
1849 17 33.078163227016084 21.074996763927327 2.373012082214349 0 0 0
1691 15 30.038422947978045 19.49111382483614 1.4231252054219876 0 0 0
1695 2 39.37292123756754 17.785842359055838 0.8796221215450565 0 0 0
1696 18 35.59043620394669 20.365391829687727 1.29778925039164 0 0 0
1704 16 38.30252491639099 18.991334750258712 -1.0594572316367565 0 0 0
1702 20 39.87341650256685 19.935495965295598 2.0576734564817096 0 0 0
1694 1 36.041802206659746 18.35595343323437 -0.15906132433949802 0 0 0
1703 15 37.61404601004098 19.491113824837 1.4231252054208383 0 0 0
1710 4 41.05842845069275 20.79211165825135 -0.048290331680351205 0 0 0
1708 18 43.1660592660101 20.365391829688736 1.297789250391463 0 0 0
1716 16 45.87814797845453 18.991334750259224 -1.0594572316367172 0 0 0
1861 17 40.65378628907777 21.074996763927608 2.3730120822126692 0 0 0
1706 1 43.617425268723444 18.35595343323514 -0.15906132433926506 0 0 0
1715 15 45.189669072105076 19.49111382483698 1.4231252054213586 0 0 0
1707 2 46.9485442996303 17.785842359055625 0.8796221215447478 0 0 0
1714 20 47.449039564630446 19.935495965294812 2.057673456481846 0 0 0
1566 4 48.634051512756976 20.792111658250082 -0.048290331679888575 -1 0 0
1564 18 50.74168232807355 20.365391829688974 1.297789250393465 -1 0 0
1717 17 48.22940935113981 21.074996763925135 2.373012082212529 -1 0 0
1562 1 51.19304833078921 18.35595343323585 -0.1590613243374079 -1 0 0
1563 2 54.52416736169734 17.78584235905493 0.8796221215478252 -1 0 0
1572 16 53.45377104052103 18.991334750262656 -1.0594572316309712 -1 0 0
1570 20 55.02466262669529 19.93549596529325 2.057673456486578 -1 0 0
1578 4 56.209674574820966 20.792111658248977 -0.048290331676906294 -1 0 0
1729 17 55.80503241321071 21.074996763924545 2.373012082216873 -1 0 0
1571 15 52.76529213417032 19.49111382483524 1.423125205425464 -1 0 0
1575 2 62.09979042376372 17.785842359054914 0.8796221215485893 -1 0 0
1576 18 58.31730539013934 20.365391829687525 1.2977892503925423 -1 0 0
1584 16 61.02939410258788 18.99133475026245 -1.059457231630934 -1 0 0
1582 20 62.60028568876101 19.93549596529502 2.0576734564859227 -1 0 0
1574 1 58.768671392855154 18.355953433235687 -0.15906132433949563 -1 0 0
1583 15 60.34091519623472 19.49111382483569 1.4231252054241836 -1 0 0
1741 17 63.38065547527882 21.07499676392792 2.3730120822170044 -1 0 0
1590 4 63.785297636887385 20.792111658249308 -0.0482903316774745 -1 0 0
1588 18 65.89292845220572 20.36539182968754 1.2977892503916175 -1 0 0
1596 16 68.60501716465271 18.991334750261515 -1.0594572316312603 -1 0 0
1586 1 66.34429445491986 18.355953433234852 -0.15906132433933107 -1 0 0
1595 15 67.91653825829884 19.491113824835825 1.4231252054237893 -1 0 0
1587 2 69.67541348582911 17.785842359054715 0.8796221215489476 -1 0 0
1594 20 70.17590875082483 19.935495965295072 2.057673456485283 -1 0 0
1602 4 71.36092069895176 20.792111658249414 -0.048290331678256755 -1 0 0
1600 18 73.46855151427053 20.365391829687287 1.2977892503901154 -1 0 0
1753 17 70.95627853734513 21.07499676393005 2.3730120822167295 -1 0 0
1598 1 73.91991751698343 18.35595343323399 -0.15906132433977355 -1 0 0
1599 2 77.25103654789218 17.785842359054904 0.8796221215477039 -1 0 0
1608 16 76.18064022671572 18.991334750259607 -1.0594572316337634 -1 0 0