LAMMPS data file via write_data, version 29 Aug 2024, timestep = 0, units = metal

2340 atoms
12 atom types

0 98.483099806832 xlo xhi
0 98.41023031863 ylo yhi
0 17.717628397281 zlo zhi

Masses

1 32.06
2 32.06
3 32.06
4 44.955908
5 32.06
6 32.06
7 32.06
8 32.06
9 44.955912
10 44.955912
11 44.955912
12 32.06

Atoms # atomic

1176 8 0 1.0934470035399997 0 0 0 0
1174 12 1.8939057655160028 0 1.3599858781539993 0 0 0
1182 4 3.7878115310319984 1.0934470035399997 0 0 0 0
1180 10 5.681717296548001 0 1.3599858781539993 0 0 0
1188 8 7.575623062063997 1.0934470035399997 0 0 0 0
1186 12 9.46952882758 0 1.3599858781539993 0 0 0
1194 4 11.363434593096002 1.0934470035399997 0 0 0 0
1192 10 13.257340358611998 0 1.3599858781539993 0 0 0
1200 8 15.151246124127994 1.0934470035399997 0 0 0 0
1198 12 17.045151889644004 0 1.3599858781539993 0 0 0
1206 4 18.93905765516 1.0934470035399997 0 0 0 0
1204 10 20.832963420675995 0 1.3599858781539993 0 0 0
1212 8 22.726869186192005 1.0934470035399997 0 0 0 0
1210 12 24.620774951708 0 1.3599858781539993 0 0 0
1218 4 26.514680717223996 1.0934470035399997 0 0 0 0
1216 10 28.408586482740006 0 1.3599858781539993 0 0 0
1224 8 30.302492248256 1.0934470035399997 0 0 0 0
1222 12 32.196398013772 0 1.3599858781539993 0 0 0
1230 4 34.09030377928799 1.0934470035399997 0 0 0 0
1228 10 35.984209544804 0 1.3599858781539993 0 0 0
1236 8 37.87811531032 1.0934470035399997 0 0 0 0
1234 12 39.772021075835994 0 1.3599858781539993 0 0 0
1242 4 41.665926841352004 1.0934470035399997 0 0 0 0
1240 10 43.559832606868 0 1.3599858781539993 0 0 0
1248 8 45.453738372383995 1.0934470035399997 0 0 0 0
1246 12 47.347644137900005 0 1.3599858781539993 0 0 0
1098 4 49.241549903416 1.0934470035399997 0 -1 0 0
1096 10 51.135455668932 0 1.3599858781539993 -1 0 0
1104 8 53.029361434448 1.0934470035399997 0 -1 0 0
1102 12 54.923267199964 0 1.3599858781539993 -1 0 0
1110 4 56.81717296548 1.0934470035399997 0 -1 0 0
1108 10 58.711078730996 0 1.3599858781539993 -1 0 0
1116 8 60.604984496512 1.0934470035399997 0 -1 0 0
1114 12 62.498890262028 0 1.3599858781539993 -1 0 0
1122 4 64.392796027544 1.0934470035399997 0 -1 0 0
1120 10 66.28670179306 0 1.3599858781539993 -1 0 0
1128 8 68.180607558576 1.0934470035399997 0 -1 0 0
1126 12 70.074513324092 0 1.3599858781539993 -1 0 0
1134 4 71.968419089608 1.0934470035399997 0 -1 0 0
1132 10 73.862324855124 0 1.3599858781539993 -1 0 0
1140 8 75.75623062064 1.0934470035399997 0 -1 0 0
1138 12 77.65013638615599 0 1.3599858781539993 -1 0 0
1146 4 79.544042151672 1.0934470035399997 0 -1 0 0
1144 10 81.437947917188 0 1.3599858781539993 -1 0 0
1152 8 83.33185368270401 1.0934470035399997 0 -1 0 0
1150 12 85.22575944822 0 1.3599858781539993 -1 0 0
1158 4 87.119665213736 1.0934470035399997 0 -1 0 0
1156 10 89.013570979252 0 1.3599858781539993 -1 0 0
1164 8 90.90747674476799 1.0934470035399997 0 -1 0 0
1162 12 92.801382510284 0 1.3599858781539993 -1 0 0
1170 4 94.69528827580001 1.0934470035399997 0 -1 0 0
1168 10 96.589194041316 0 1.3599858781539993 -1 0 0
1327 11 0 3.280341010621001 1.3599858781539993 0 0 0
1333 9 3.7878115310319984 3.280341010621001 1.3599858781539993 0 0 0
1339 11 7.575623062063997 3.280341010621001 1.3599858781539993 0 0 0
1345 9 11.363434593096002 3.280341010621001 1.3599858781539993 0 0 0
1351 11 15.151246124127994 3.280341010621001 1.3599858781539993 0 0 0
1357 9 18.93905765516 3.280341010621001 1.3599858781539993 0 0 0
1363 11 22.726869186192005 3.280341010621001 1.3599858781539993 0 0 0
1369 9 26.514680717223996 3.280341010621001 1.3599858781539993 0 0 0
1375 11 30.302492248256 3.280341010621001 1.3599858781539993 0 0 0
1381 9 34.09030377928799 3.280341010621001 1.3599858781539993 0 0 0
1387 11 37.87811531032 3.280341010621001 1.3599858781539993 0 0 0
1393 9 41.665926841352004 3.280341010621001 1.3599858781539993 0 0 0
1399 11 45.453738372383995 3.280341010621001 1.3599858781539993 0 0 0
1249 9 49.241549903416 3.280341010621001 1.3599858781539993 -1 0 0
1255 11 53.029361434448 3.280341010621001 1.3599858781539993 -1 0 0
1261 9 56.81717296548 3.280341010621001 1.3599858781539993 -1 0 0
1267 11 60.604984496512 3.280341010621001 1.3599858781539993 -1 0 0
1273 9 64.392796027544 3.280341010621001 1.3599858781539993 -1 0 0
1279 11 68.180607558576 3.280341010621001 1.3599858781539993 -1 0 0
1285 9 71.968419089608 3.280341010621001 1.3599858781539993 -1 0 0
1291 11 75.75623062064 3.280341010621001 1.3599858781539993 -1 0 0
1297 9 79.544042151672 3.280341010621001 1.3599858781539993 -1 0 0
1303 11 83.33185368270401 3.280341010621001 1.3599858781539993 -1 0 0
1309 9 87.119665213736 3.280341010621001 1.3599858781539993 -1 0 0
1315 11 90.90747674476799 3.280341010621001 1.3599858781539993 -1 0 0
1321 9 94.69528827580001 3.280341010621001 1.3599858781539993 -1 0 0
1329 6 1.8939057655160028 4.373788014161001 0 0 0 0
1335 2 5.681717296548001 4.373788014161001 0 0 0 0
1341 6 9.46952882758 4.373788014161001 0 0 0 0
1347 2 13.257340358611998 4.373788014161001 0 0 0 0
1353 6 17.045151889644004 4.373788014161001 0 0 0 0
1359 2 20.832963420675995 4.373788014161001 0 0 0 0
1365 6 24.620774951708 4.373788014161001 0 0 0 0
1371 2 28.408586482740006 4.373788014161001 0 0 0 0
1377 6 32.196398013772 4.373788014161001 0 0 0 0
1383 2 35.984209544804 4.373788014161001 0 0 0 0
1389 6 39.772021075835994 4.373788014161001 0 0 0 0
1395 2 43.559832606868 4.373788014161001 0 0 0 0
1401 6 47.347644137900005 4.373788014161001 0 0 0 0
1251 2 51.135455668932 4.373788014161001 0 -1 0 0
1257 6 54.923267199964 4.373788014161001 0 -1 0 0
1263 2 58.711078730996 4.373788014161001 0 -1 0 0
1269 6 62.498890262028 4.373788014161001 0 -1 0 0
1275 2 66.28670179306 4.373788014161001 0 -1 0 0
1281 6 70.074513324092 4.373788014161001 0 -1 0 0
1287 2 73.862324855124 4.373788014161001 0 -1 0 0
1293 6 77.65013638615599 4.373788014161001 0 -1 0 0
1299 2 81.437947917188 4.373788014161001 0 -1 0 0
1305 6 85.22575944822 4.373788014161001 0 -1 0 0
1311 2 89.013570979252 4.373788014161001 0 -1 0 0
1317 6 92.801382510284 4.373788014161001 0 -1 0 0
1323 2 96.589194041316 4.373788014161001 0 -1 0 0
1332 8 0 7.6541290247820015 0 0 0 0
1330 12 1.8939057655160028 6.560682021242002 1.3599858781539993 0 0 0
1338 4 3.7878115310319984 7.6541290247820015 0 0 0 0
1336 10 5.681717296548001 6.560682021242002 1.3599858781539993 0 0 0
1344 8 7.575623062063997 7.6541290247820015 0 0 0 0
1342 12 9.46952882758 6.560682021242002 1.3599858781539993 0 0 0
1350 4 11.363434593096002 7.6541290247820015 0 0 0 0
1348 10 13.257340358611998 6.560682021242002 1.3599858781539993 0 0 0
1356 8 15.151246124127994 7.6541290247820015 0 0 0 0
1354 12 17.045151889644004 6.560682021242002 1.3599858781539993 0 0 0
1362 4 18.93905765516 7.6541290247820015 0 0 0 0
1360 10 20.832963420675995 6.560682021242002 1.3599858781539993 0 0 0
1368 8 22.726869186192005 7.6541290247820015 0 0 0 0
1366 12 24.620774951708 6.560682021242002 1.3599858781539993 0 0 0
1374 4 26.514680717223996 7.6541290247820015 0 0 0 0
1372 10 28.408586482740006 6.560682021242002 1.3599858781539993 0 0 0
1380 8 30.302492248256 7.6541290247820015 0 0 0 0
1378 12 32.196398013772 6.560682021242002 1.3599858781539993 0 0 0
1386 4 34.09030377928799 7.6541290247820015 0 0 0 0
1384 10 35.984209544804 6.560682021242002 1.3599858781539993 0 0 0
1392 8 37.87811531032 7.6541290247820015 0 0 0 0
1390 12 39.772021075835994 6.560682021242002 1.3599858781539993 0 0 0
1398 4 41.665926841352004 7.6541290247820015 0 0 0 0
1396 10 43.559832606868 6.560682021242002 1.3599858781539993 0 0 0
1404 8 45.453738372383995 7.6541290247820015 0 0 0 0
1402 12 47.347644137900005 6.560682021242002 1.3599858781539993 0 0 0
1254 4 49.241549903416 7.6541290247820015 0 -1 0 0
1252 10 51.135455668932 6.560682021242002 1.3599858781539993 -1 0 0
1260 8 53.029361434448 7.6541290247820015 0 -1 0 0
1258 12 54.923267199964 6.560682021242002 1.3599858781539993 -1 0 0
1266 4 56.81717296548 7.6541290247820015 0 -1 0 0
1264 10 58.711078730996 6.560682021242002 1.3599858781539993 -1 0 0
1272 8 60.604984496512 7.6541290247820015 0 -1 0 0
1270 12 62.498890262028 6.560682021242002 1.3599858781539993 -1 0 0
1278 4 64.392796027544 7.6541290247820015 0 -1 0 0
1276 10 66.28670179306 6.560682021242002 1.3599858781539993 -1 0 0
1284 8 68.180607558576 7.6541290247820015 0 -1 0 0
1282 12 70.074513324092 6.560682021242002 1.3599858781539993 -1 0 0
1290 4 71.968419089608 7.6541290247820015 0 -1 0 0
1288 10 73.862324855124 6.560682021242002 1.3599858781539993 -1 0 0
1296 8 75.75623062064 7.6541290247820015 0 -1 0 0
1294 12 77.65013638615599 6.560682021242002 1.3599858781539993 -1 0 0
1302 4 79.544042151672 7.6541290247820015 0 -1 0 0
1300 10 81.437947917188 6.560682021242002 1.3599858781539993 -1 0 0
1308 8 83.33185368270401 7.6541290247820015 0 -1 0 0
1306 12 85.22575944822 6.560682021242002 1.3599858781539993 -1 0 0
1314 4 87.119665213736 7.6541290247820015 0 -1 0 0
1312 10 89.013570979252 6.560682021242002 1.3599858781539993 -1 0 0
1320 8 90.90747674476799 7.6541290247820015 0 -1 0 0
1318 12 92.801382510284 6.560682021242002 1.3599858781539993 -1 0 0
1326 4 94.69528827580001 7.6541290247820015 0 -1 0 0
1324 10 96.589194041316 6.560682021242002 1.3599858781539993 -1 0 0
1485 6 1.8939057655160028 10.934470035403002 0 0 0 0
1483 11 0 9.841023031863003 1.3599858781539993 0 0 0
1489 9 3.7878115310319984 9.841023031863003 1.3599858781539993 0 0 0
1491 2 5.681717296548001 10.934470035403002 0 0 0 0
1495 11 7.575623062063997 9.841023031863003 1.3599858781539993 0 0 0
1497 6 9.46952882758 10.934470035403002 0 0 0 0
1501 9 11.363434593096002 9.841023031863003 1.3599858781539993 0 0 0
1503 2 13.257340358611998 10.934470035403002 0 0 0 0
1507 11 15.151246124127994 9.841023031863003 1.3599858781539993 0 0 0
1509 6 17.045151889644004 10.934470035403002 0 0 0 0
1513 9 18.93905765516 9.841023031863003 1.3599858781539993 0 0 0
1515 2 20.832963420675995 10.934470035403002 0 0 0 0
1519 11 22.726869186192005 9.841023031863003 1.3599858781539993 0 0 0
1521 6 24.620774951708 10.934470035403002 0 0 0 0
1525 9 26.514680717223996 9.841023031863003 1.3599858781539993 0 0 0
1527 2 28.408586482740006 10.934470035403002 0 0 0 0
1531 11 30.302492248256 9.841023031863003 1.3599858781539993 0 0 0
1533 6 32.196398013772 10.934470035403002 0 0 0 0
1537 9 34.09030377928799 9.841023031863003 1.3599858781539993 0 0 0
1539 2 35.984209544804 10.934470035403002 0 0 0 0
1543 11 37.87811531032 9.841023031863003 1.3599858781539993 0 0 0
1545 6 39.772021075835994 10.934470035403002 0 0 0 0
1549 9 41.665926841352004 9.841023031863003 1.3599858781539993 0 0 0
1551 2 43.559832606868 10.934470035403002 0 0 0 0
1555 11 45.453738372383995 9.841023031863003 1.3599858781539993 0 0 0
1557 6 47.347644137900005 10.934470035403002 0 0 0 0
1405 9 49.241549903416 9.841023031863003 1.3599858781539993 -1 0 0
1407 2 51.135455668932 10.934470035403002 0 -1 0 0
1411 11 53.029361434448 9.841023031863003 1.3599858781539993 -1 0 0
1413 6 54.923267199964 10.934470035403002 0 -1 0 0
1417 9 56.81717296548 9.841023031863003 1.3599858781539993 -1 0 0
1419 2 58.711078730996 10.934470035403002 0 -1 0 0
1423 11 60.604984496512 9.841023031863003 1.3599858781539993 -1 0 0
1425 6 62.498890262028 10.934470035403002 0 -1 0 0
1429 9 64.392796027544 9.841023031863003 1.3599858781539993 -1 0 0
1431 2 66.28670179306 10.934470035403002 0 -1 0 0
1435 11 68.180607558576 9.841023031863003 1.3599858781539993 -1 0 0
1437 6 70.074513324092 10.934470035403002 0 -1 0 0
1441 9 71.968419089608 9.841023031863003 1.3599858781539993 -1 0 0
1443 2 73.862324855124 10.934470035403002 0 -1 0 0
1447 11 75.75623062064 9.841023031863003 1.3599858781539993 -1 0 0
1449 6 77.65013638615599 10.934470035403002 0 -1 0 0
1453 9 79.544042151672 9.841023031863003 1.3599858781539993 -1 0 0
1455 2 81.437947917188 10.934470035403002 0 -1 0 0
1459 11 83.33185368270401 9.841023031863003 1.3599858781539993 -1 0 0
1461 6 85.22575944822 10.934470035403002 0 -1 0 0
1465 9 87.119665213736 9.841023031863003 1.3599858781539993 -1 0 0
1467 2 89.013570979252 10.934470035403002 0 -1 0 0
1471 11 90.90747674476799 9.841023031863003 1.3599858781539993 -1 0 0
1473 6 92.801382510284 10.934470035403002 0 -1 0 0
1477 9 94.69528827580001 9.841023031863003 1.3599858781539993 -1 0 0
1479 2 96.589194041316 10.934470035403002 0 -1 0 0
1486 12 1.8939057655160028 13.121364042484004 1.3599858781539993 0 0 0
1492 10 5.681717296548001 13.121364042484004 1.3599858781539993 0 0 0
1498 12 9.46952882758 13.121364042484004 1.3599858781539993 0 0 0
1504 10 13.257340358611998 13.121364042484004 1.3599858781539993 0 0 0
1510 12 17.045151889644004 13.121364042484004 1.3599858781539993 0 0 0
1516 10 20.832963420675995 13.121364042484004 1.3599858781539993 0 0 0
1522 12 24.620774951708 13.121364042484004 1.3599858781539993 0 0 0
1528 10 28.408586482740006 13.121364042484004 1.3599858781539993 0 0 0
1534 12 32.196398013772 13.121364042484004 1.3599858781539993 0 0 0
1540 10 35.984209544804 13.121364042484004 1.3599858781539993 0 0 0
1546 12 39.772021075835994 13.121364042484004 1.3599858781539993 0 0 0
1552 10 43.559832606868 13.121364042484004 1.3599858781539993 0 0 0
1558 12 47.347644137900005 13.121364042484004 1.3599858781539993 0 0 0
1408 10 51.135455668932 13.121364042484004 1.3599858781539993 -1 0 0
1414 12 54.923267199964 13.121364042484004 1.3599858781539993 -1 0 0
1420 10 58.711078730996 13.121364042484004 1.3599858781539993 -1 0 0
1426 12 62.498890262028 13.121364042484004 1.3599858781539993 -1 0 0
1432 10 66.28670179306 13.121364042484004 1.3599858781539993 -1 0 0
1438 12 70.074513324092 13.121364042484004 1.3599858781539993 -1 0 0
1444 10 73.862324855124 13.121364042484004 1.3599858781539993 -1 0 0
1450 12 77.65013638615599 13.121364042484004 1.3599858781539993 -1 0 0
1456 10 81.437947917188 13.121364042484004 1.3599858781539993 -1 0 0
1462 12 85.22575944822 13.121364042484004 1.3599858781539993 -1 0 0
1468 10 89.013570979252 13.121364042484004 1.3599858781539993 -1 0 0
1474 12 92.801382510284 13.121364042484004 1.3599858781539993 -1 0 0
1480 10 96.589194041316 13.121364042484004 1.3599858781539993 -1 0 0
1488 8 0 14.214811046024003 0 0 0 0
1494 4 3.7878115310319984 14.214811046024003 0 0 0 0
1500 8 7.575623062063997 14.214811046024003 0 0 0 0
1506 4 11.363434593096002 14.214811046024003 0 0 0 0
1512 8 15.151246124127994 14.214811046024003 0 0 0 0
1518 4 18.93905765516 14.214811046024003 0 0 0 0
1524 8 22.726869186192005 14.214811046024003 0 0 0 0
1530 4 26.514680717223996 14.214811046024003 0 0 0 0
1536 8 30.302492248256 14.214811046024003 0 0 0 0
1542 4 34.09030377928799 14.214811046024003 0 0 0 0
1548 8 37.87811531032 14.214811046024003 0 0 0 0
1554 4 41.665926841352004 14.214811046024003 0 0 0 0
1560 8 45.453738372383995 14.214811046024003 0 0 0 0
1410 4 49.241549903416 14.214811046024003 0 -1 0 0
1416 8 53.029361434448 14.214811046024003 0 -1 0 0
1422 4 56.81717296548 14.214811046024003 0 -1 0 0
1428 8 60.604984496512 14.214811046024003 0 -1 0 0
1434 4 64.392796027544 14.214811046024003 0 -1 0 0
1440 8 68.180607558576 14.214811046024003 0 -1 0 0
1446 4 71.968419089608 14.214811046024003 0 -1 0 0
1452 8 75.75623062064 14.214811046024003 0 -1 0 0
1458 4 79.544042151672 14.214811046024003 0 -1 0 0
1464 8 83.33185368270401 14.214811046024003 0 -1 0 0
1470 4 87.119665213736 14.214811046024003 0 -1 0 0
1476 8 90.90747674476799 14.214811046024003 0 -1 0 0
1482 4 94.69528827580001 14.214811046024003 0 -1 0 0
1639 11 0 16.401705053105005 1.3599858781539993 0 0 0
1645 9 3.7878115310319984 16.401705053105005 1.3599858781539993 0 0 0
1651 11 7.575623062063997 16.401705053105005 1.3599858781539993 0 0 0
1657 9 11.363434593096002 16.401705053105005 1.3599858781539993 0 0 0
1663 11 15.151246124127994 16.401705053105005 1.3599858781539993 0 0 0
1669 9 18.93905765516 16.401705053105005 1.3599858781539993 0 0 0
1675 11 22.726869186192005 16.401705053105005 1.3599858781539993 0 0 0
1681 9 26.514680717223996 16.401705053105005 1.3599858781539993 0 0 0
1687 11 30.302492248256 16.401705053105005 1.3599858781539993 0 0 0
1693 9 34.09030377928799 16.401705053105005 1.3599858781539993 0 0 0
1699 11 37.87811531032 16.401705053105005 1.3599858781539993 0 0 0
1705 9 41.665926841352004 16.401705053105005 1.3599858781539993 0 0 0
1711 11 45.453738372383995 16.401705053105005 1.3599858781539993 0 0 0
1561 9 49.241549903416 16.401705053105005 1.3599858781539993 -1 0 0
1567 11 53.029361434448 16.401705053105005 1.3599858781539993 -1 0 0
1573 9 56.81717296548 16.401705053105005 1.3599858781539993 -1 0 0
1579 11 60.604984496512 16.401705053105005 1.3599858781539993 -1 0 0
1585 9 64.392796027544 16.401705053105005 1.3599858781539993 -1 0 0
1591 11 68.180607558576 16.401705053105005 1.3599858781539993 -1 0 0
1597 9 71.968419089608 16.401705053105005 1.3599858781539993 -1 0 0
1603 11 75.75623062064 16.401705053105005 1.3599858781539993 -1 0 0
1609 9 79.544042151672 16.401705053105005 1.3599858781539993 -1 0 0
1615 11 83.33185368270401 16.401705053105005 1.3599858781539993 -1 0 0
1621 9 87.119665213736 16.401705053105005 1.3599858781539993 -1 0 0
1627 11 90.90747674476799 16.401705053105005 1.3599858781539993 -1 0 0
1633 9 94.69528827580001 16.401705053105005 1.3599858781539993 -1 0 0
1641 6 1.8939057655160028 17.495152056644997 0 0 0 0
1647 2 5.681717296548001 17.495152056644997 0 0 0 0
1653 6 9.46952882758 17.495152056644997 0 0 0 0
1659 2 13.257340358611998 17.495152056644997 0 0 0 0
1665 6 17.045151889644004 17.495152056644997 0 0 0 0
1671 2 20.832963420675995 17.495152056644997 0 0 0 0
1677 6 24.620774951708 17.495152056644997 0 0 0 0
1683 2 28.408586482740006 17.495152056644997 0 0 0 0
1689 6 32.196398013772 17.495152056644997 0 0 0 0
1695 2 35.984209544804 17.495152056644997 0 0 0 0
1701 6 39.772021075835994 17.495152056644997 0 0 0 0
1707 2 43.559832606868 17.495152056644997 0 0 0 0
1713 6 47.347644137900005 17.495152056644997 0 0 0 0
1563 2 51.135455668932 17.495152056644997 0 -1 0 0
1569 6 54.923267199964 17.495152056644997 0 -1 0 0
1575 2 58.711078730996 17.495152056644997 0 -1 0 0
1581 6 62.498890262028 17.495152056644997 0 -1 0 0
1587 2 66.28670179306 17.495152056644997 0 -1 0 0
1593 6 70.074513324092 17.495152056644997 0 -1 0 0
1599 2 73.862324855124 17.495152056644997 0 -1 0 0
1605 6 77.65013638615599 17.495152056644997 0 -1 0 0
1611 2 81.437947917188 17.495152056644997 0 -1 0 0
1617 6 85.22575944822 17.495152056644997 0 -1 0 0
1623 2 89.013570979252 17.495152056644997 0 -1 0 0
1629 6 92.801382510284 17.495152056644997 0 -1 0 0
1635 2 96.589194041316 17.495152056644997 0 -1 0 0
1644 8 0 20.775493067265998 0 0 0 0
1642 12 1.8939057655160028 19.682046063726006 1.3599858781539993 0 0 0
1650 4 3.7878115310319984 20.775493067265998 0 0 0 0
1648 10 5.681717296548001 19.682046063726006 1.3599858781539993 0 0 0
1656 8 7.575623062063997 20.775493067265998 0 0 0 0
1654 12 9.46952882758 19.682046063726006 1.3599858781539993 0 0 0
1662 4 11.363434593096002 20.775493067265998 0 0 0 0
1660 10 13.257340358611998 19.682046063726006 1.3599858781539993 0 0 0
1668 8 15.151246124127994 20.775493067265998 0 0 0 0
1666 12 17.045151889644004 19.682046063726006 1.3599858781539993 0 0 0
1674 4 18.93905765516 20.775493067265998 0 0 0 0
1672 10 20.832963420675995 19.682046063726006 1.3599858781539993 0 0 0
1680 8 22.726869186192005 20.775493067265998 0 0 0 0
1678 12 24.620774951708 19.682046063726006 1.3599858781539993 0 0 0
1686 4 26.514680717223996 20.775493067265998 0 0 0 0
1684 10 28.408586482740006 19.682046063726006 1.3599858781539993 0 0 0
1692 8 30.302492248256 20.775493067265998 0 0 0 0
1690 12 32.196398013772 19.682046063726006 1.3599858781539993 0 0 0
1698 4 34.09030377928799 20.775493067265998 0 0 0 0
1696 10 35.984209544804 19.682046063726006 1.3599858781539993 0 0 0
1704 8 37.87811531032 20.775493067265998 0 0 0 0
1702 12 39.772021075835994 19.682046063726006 1.3599858781539993 0 0 0
1710 4 41.665926841352004 20.775493067265998 0 0 0 0
1708 10 43.559832606868 19.682046063726006 1.3599858781539993 0 0 0
1716 8 45.453738372383995 20.775493067265998 0 0 0 0
1714 12 47.347644137900005 19.682046063726006 1.3599858781539993 0 0 0
1566 4 49.241549903416 20.775493067265998 0 -1 0 0
1564 10 51.135455668932 19.682046063726006 1.3599858781539993 -1 0 0
1572 8 53.029361434448 20.775493067265998 0 -1 0 0
1570 12 54.923267199964 19.682046063726006 1.3599858781539993 -1 0 0
1578 4 56.81717296548 20.775493067265998 0 -1 0 0
1576 10 58.711078730996 19.682046063726006 1.3599858781539993 -1 0 0
1584 8 60.604984496512 20.775493067265998 0 -1 0 0
1582 12 62.498890262028 19.682046063726006 1.3599858781539993 -1 0 0
1590 4 64.392796027544 20.775493067265998 0 -1 0 0
1588 10 66.28670179306 19.682046063726006 1.3599858781539993 -1 0 0
1596 8 68.180607558576 20.775493067265998 0 -1 0 0
1594 12 70.074513324092 19.682046063726006 1.3599858781539993 -1 0 0
1602 4 71.968419089608 20.775493067265998 0 -1 0 0
1600 10 73.862324855124 19.682046063726006 1.3599858781539993 -1 0 0
1608 8 75.75623062064 20.775493067265998 0 -1 0 0
1606 12 77.65013638615599 19.682046063726006 1.3599858781539993 -1 0 0
1614 4 79.544042151672 20.775493067265998 0 -1 0 0
1612 10 81.437947917188 19.682046063726006 1.3599858781539993 -1 0 0
1620 8 83.33185368270401 20.775493067265998 0 -1 0 0
1618 12 85.22575944822 19.682046063726006 1.3599858781539993 -1 0 0
1626 4 87.119665213736 20.775493067265998 0 -1 0 0
1624 10 89.013570979252 19.682046063726006 1.3599858781539993 -1 0 0
1632 8 90.90747674476799 20.775493067265998 0 -1 0 0
1630 12 92.801382510284 19.682046063726006 1.3599858781539993 -1 0 0
1638 4 94.69528827580001 20.775493067265998 0 -1 0 0
1636 10 96.589194041316 19.682046063726006 1.3599858781539993 -1 0 0
1795 11 0 22.962387074347006 1.3599858781539993 0 0 0
1801 9 3.7878115310319984 22.962387074347006 1.3599858781539993 0 0 0
1807 11 7.575623062063997 22.962387074347006 1.3599858781539993 0 0 0
1813 9 11.363434593096002 22.962387074347006 1.3599858781539993 0 0 0
1819 11 15.151246124127994 22.962387074347006 1.3599858781539993 0 0 0
1825 9 18.93905765516 22.962387074347006 1.3599858781539993 0 0 0
1831 11 22.726869186192005 22.962387074347006 1.3599858781539993 0 0 0
1837 9 26.514680717223996 22.962387074347006 1.3599858781539993 0 0 0
1843 11 30.302492248256 22.962387074347006 1.3599858781539993 0 0 0
1849 9 34.09030377928799 22.962387074347006 1.3599858781539993 0 0 0
1855 11 37.87811531032 22.962387074347006 1.3599858781539993 0 0 0
1861 9 41.665926841352004 22.962387074347006 1.3599858781539993 0 0 0
1867 11 45.453738372383995 22.962387074347006 1.3599858781539993 0 0 0
1717 9 49.241549903416 22.962387074347006 1.3599858781539993 -1 0 0
1723 11 53.029361434448 22.962387074347006 1.3599858781539993 -1 0 0
1729 9 56.81717296548 22.962387074347006 1.3599858781539993 -1 0 0
1735 11 60.604984496512 22.962387074347006 1.3599858781539993 -1 0 0
1741 9 64.392796027544 22.962387074347006 1.3599858781539993 -1 0 0
1747 11 68.180607558576 22.962387074347006 1.3599858781539993 -1 0 0
1753 9 71.968419089608 22.962387074347006 1.3599858781539993 -1 0 0
1759 11 75.75623062064 22.962387074347006 1.3599858781539993 -1 0 0
1765 9 79.544042151672 22.962387074347006 1.3599858781539993 -1 0 0
1771 11 83.33185368270401 22.962387074347006 1.3599858781539993 -1 0 0
1777 9 87.119665213736 22.962387074347006 1.3599858781539993 -1 0 0
1783 11 90.90747674476799 22.962387074347006 1.3599858781539993 -1 0 0
1789 9 94.69528827580001 22.962387074347006 1.3599858781539993 -1 0 0
1797 6 1.8939057655160028 24.055834077887 0 0 0 0
1803 2 5.681717296548001 24.055834077887 0 0 0 0
1809 6 9.46952882758 24.055834077887 0 0 0 0
1815 2 13.257340358611998 24.055834077887 0 0 0 0
1821 6 17.045151889644004 24.055834077887 0 0 0 0
1827 2 20.832963420675995 24.055834077887 0 0 0 0
1833 6 24.620774951708 24.055834077887 0 0 0 0
1839 2 28.408586482740006 24.055834077887 0 0 0 0
1845 6 32.196398013772 24.055834077887 0 0 0 0
1851 2 35.984209544804 24.055834077887 0 0 0 0
1857 6 39.772021075835994 24.055834077887 0 0 0 0
1863 2 43.559832606868 24.055834077887 0 0 0 0
1869 6 47.347644137900005 24.055834077887 0 0 0 0
1719 2 51.135455668932 24.055834077887 0 -1 0 0
1725 6 54.923267199964 24.055834077887 0 -1 0 0
1731 2 58.711078730996 24.055834077887 0 -1 0 0
1737 6 62.498890262028 24.055834077887 0 -1 0 0
1743 2 66.28670179306 24.055834077887 0 -1 0 0
1749 6 70.074513324092 24.055834077887 0 -1 0 0
1755 2 73.862324855124 24.055834077887 0 -1 0 0
1761 6 77.65013638615599 24.055834077887 0 -1 0 0
1767 2 81.437947917188 24.055834077887 0 -1 0 0
1773 6 85.22575944822 24.055834077887 0 -1 0 0
1779 2 89.013570979252 24.055834077887 0 -1 0 0
1785 6 92.801382510284 24.055834077887 0 -1 0 0
1791 2 96.589194041316 24.055834077887 0 -1 0 0
1798 12 1.8939057655160028 26.242728084968007 1.3599858781539993 0 0 0
1804 10 5.681717296548001 26.242728084968007 1.3599858781539993 0 0 0
1810 12 9.46952882758 26.242728084968007 1.3599858781539993 0 0 0
1816 10 13.257340358611998 26.242728084968007 1.3599858781539993 0 0 0
1822 12 17.045151889644004 26.242728084968007 1.3599858781539993 0 0 0
1828 10 20.832963420675995 26.242728084968007 1.3599858781539993 0 0 0
1834 12 24.620774951708 26.242728084968007 1.3599858781539993 0 0 0
1840 10 28.408586482740006 26.242728084968007 1.3599858781539993 0 0 0
1846 12 32.196398013772 26.242728084968007 1.3599858781539993 0 0 0
1852 10 35.984209544804 26.242728084968007 1.3599858781539993 0 0 0
1858 12 39.772021075835994 26.242728084968007 1.3599858781539993 0 0 0
1864 10 43.559832606868 26.242728084968007 1.3599858781539993 0 0 0
1870 12 47.347644137900005 26.242728084968007 1.3599858781539993 0 0 0
1720 10 51.135455668932 26.242728084968007 1.3599858781539993 -1 0 0
1726 12 54.923267199964 26.242728084968007 1.3599858781539993 -1 0 0
1732 10 58.711078730996 26.242728084968007 1.3599858781539993 -1 0 0
1738 12 62.498890262028 26.242728084968007 1.3599858781539993 -1 0 0
1744 10 66.28670179306 26.242728084968007 1.3599858781539993 -1 0 0
1750 12 70.074513324092 26.242728084968007 1.3599858781539993 -1 0 0
1756 10 73.862324855124 26.242728084968007 1.3599858781539993 -1 0 0
1762 12 77.65013638615599 26.242728084968007 1.3599858781539993 -1 0 0
1768 10 81.437947917188 26.242728084968007 1.3599858781539993 -1 0 0
1774 12 85.22575944822 26.242728084968007 1.3599858781539993 -1 0 0
1780 10 89.013570979252 26.242728084968007 1.3599858781539993 -1 0 0
1786 12 92.801382510284 26.242728084968007 1.3599858781539993 -1 0 0
1792 10 96.589194041316 26.242728084968007 1.3599858781539993 -1 0 0
1800 8 0 27.336175088508 0 0 0 0
1806 4 3.7878115310319984 27.336175088508 0 0 0 0
1812 8 7.575623062063997 27.336175088508 0 0 0 0
1818 4 11.363434593096002 27.336175088508 0 0 0 0
1824 8 15.151246124127994 27.336175088508 0 0 0 0
1830 4 18.93905765516 27.336175088508 0 0 0 0
1836 8 22.726869186192005 27.336175088508 0 0 0 0
1842 4 26.514680717223996 27.336175088508 0 0 0 0
1848 8 30.302492248256 27.336175088508 0 0 0 0
1854 4 34.09030377928799 27.336175088508 0 0 0 0
1860 8 37.87811531032 27.336175088508 0 0 0 0
1866 4 41.665926841352004 27.336175088508 0 0 0 0
1872 8 45.453738372383995 27.336175088508 0 0 0 0
1722 4 49.241549903416 27.336175088508 0 -1 0 0
1728 8 53.029361434448 27.336175088508 0 -1 0 0
1734 4 56.81717296548 27.336175088508 0 -1 0 0
1740 8 60.604984496512 27.336175088508 0 -1 0 0
1746 4 64.392796027544 27.336175088508 0 -1 0 0
1752 8 68.180607558576 27.336175088508 0 -1 0 0
1758 4 71.968419089608 27.336175088508 0 -1 0 0
1764 8 75.75623062064 27.336175088508 0 -1 0 0
1770 4 79.544042151672 27.336175088508 0 -1 0 0
1776 8 83.33185368270401 27.336175088508 0 -1 0 0
1782 4 87.119665213736 27.336175088508 0 -1 0 0
1788 8 90.90747674476799 27.336175088508 0 -1 0 0
1794 4 94.69528827580001 27.336175088508 0 -1 0 0
1953 6 1.8939057655160028 30.616516099129 0 0 0 0
1951 11 0 29.523069095588994 1.3599858781539993 0 0 0
1957 9 3.7878115310319984 29.523069095588994 1.3599858781539993 0 0 0
1959 2 5.681717296548001 30.616516099129 0 0 0 0
1963 11 7.575623062063997 29.523069095588994 1.3599858781539993 0 0 0
1965 6 9.46952882758 30.616516099129 0 0 0 0
1969 9 11.363434593096002 29.523069095588994 1.3599858781539993 0 0 0
1971 2 13.257340358611998 30.616516099129 0 0 0 0
1975 11 15.151246124127994 29.523069095588994 1.3599858781539993 0 0 0
1977 6 17.045151889644004 30.616516099129 0 0 0 0
1981 9 18.93905765516 29.523069095588994 1.3599858781539993 0 0 0
1983 2 20.832963420675995 30.616516099129 0 0 0 0
1987 11 22.726869186192005 29.523069095588994 1.3599858781539993 0 0 0
1989 6 24.620774951708 30.616516099129 0 0 0 0
1993 9 26.514680717223996 29.523069095588994 1.3599858781539993 0 0 0
1995 2 28.408586482740006 30.616516099129 0 0 0 0
1999 11 30.302492248256 29.523069095588994 1.3599858781539993 0 0 0
2001 6 32.196398013772 30.616516099129 0 0 0 0
2005 9 34.09030377928799 29.523069095588994 1.3599858781539993 0 0 0
2007 2 35.984209544804 30.616516099129 0 0 0 0
2011 11 37.87811531032 29.523069095588994 1.3599858781539993 0 0 0
2013 6 39.772021075835994 30.616516099129 0 0 0 0
2017 9 41.665926841352004 29.523069095588994 1.3599858781539993 0 0 0
2019 2 43.559832606868 30.616516099129 0 0 0 0
2023 11 45.453738372383995 29.523069095588994 1.3599858781539993 0 0 0
2025 6 47.347644137900005 30.616516099129 0 0 0 0
1873 9 49.241549903416 29.523069095588994 1.3599858781539993 -1 0 0
1875 2 51.135455668932 30.616516099129 0 -1 0 0
1879 11 53.029361434448 29.523069095588994 1.3599858781539993 -1 0 0
1881 6 54.923267199964 30.616516099129 0 -1 0 0
1885 9 56.81717296548 29.523069095588994 1.3599858781539993 -1 0 0
1887 2 58.711078730996 30.616516099129 0 -1 0 0
1891 11 60.604984496512 29.523069095588994 1.3599858781539993 -1 0 0
1893 6 62.498890262028 30.616516099129 0 -1 0 0
1897 9 64.392796027544 29.523069095588994 1.3599858781539993 -1 0 0
1899 2 66.28670179306 30.616516099129 0 -1 0 0
1903 11 68.180607558576 29.523069095588994 1.3599858781539993 -1 0 0
1905 6 70.074513324092 30.616516099129 0 -1 0 0