LAMMPS data file via write_data, version 29 Aug 2024, timestep = 159, units = metal

4680 atoms
24 atom types

0 98.483099806832 xlo xhi
0 98.41023031863 ylo yhi
-50 50 zlo zhi

Masses

1 44.955908
2 44.955908
3 44.955908
4 44.955908
5 44.955908
6 44.955908
7 44.955908
8 44.955908
9 32.06
10 32.06
11 32.06
12 32.06
13 32.06
14 32.06
15 32.06
16 32.06
17 32.06
18 32.06
19 32.06
20 32.06
21 32.06
22 32.06
23 32.06
24 32.06

Atoms # atomic

1182 4 4.517291428219952 0.6355167235880997 -0.0968120110236386 0 0 0
1180 14 5.366169800445925 1.1575775621715627 2.202798238599748 0 0 0
1327 15 0.5395649182710504 4.487314822926146 1.7977262020738136 0 0 0
1333 13 2.973558486233967 1.997399607136772 1.362460955458247 0 0 0
1329 10 1.9907905579062624 3.0066493254584215 1.3137203367165302 0 0 0
1328 9 1.7671342325354729 5.154410983913006 2.00783080583475 0 0 0
1323 2 0.43127522630021936 3.6278248540395626 -0.5750362553131926 0 0 0
1335 2 8.00689828836399 3.6278248540397424 -0.575036255313393 0 0 0
1334 1 6.834704188840503 5.644335550338463 2.41780081673665 0 0 0
1339 15 8.115187980335156 4.487314822926151 1.7977262020738876 0 0 0
1345 13 10.549181548298044 1.997399607136486 1.362460955458499 0 0 0
1341 10 9.566413619970215 3.006649325458329 1.3137203367166226 0 0 0
1187 11 6.547420252701741 1.3063089810857385 1.2628549601872334 0 0 0
1340 9 9.342757294599421 5.154410983912937 2.007830805834733 0 0 0
1194 4 12.092914490283633 0.6355167235881168 -0.09681201102344113 0 0 0
1192 14 12.941792862509454 1.1575775621713145 2.2027982385998723 0 0 0
1351 15 15.69081104239926 4.48731482292606 1.797726202073907 0 0 0
1347 2 15.582521350427992 3.627824854039737 -0.5750362553134213 0 0 0
1353 10 17.14203668203419 3.0066493254582873 1.3137203367165478 0 0 0
1199 11 14.123043314765816 1.3063089810858217 1.2628549601871146 0 0 0
1346 1 14.410327250904405 5.644335550338439 2.4178008167366976 0 0 0
1352 9 16.918380356663477 5.154410983912904 2.007830805834762 0 0 0
1206 4 19.668537552347495 0.6355167235881326 -0.09681201102339018 0 0 0
1204 14 20.517415924573317 1.1575775621712523 2.202798238600003 0 0 0
1357 13 18.12480461036213 1.9973996071362443 1.3624609554585096 0 0 0
1359 2 23.158144412492085 3.627824854039703 -0.5750362553132932 0 0 0
1211 11 21.69866637682979 1.3063089810856099 1.2628549601872214 0 0 0
1358 1 21.98595031296843 5.644335550338441 2.417800816736616 0 0 0
1363 15 23.26643410446331 4.487314822926103 1.797726202073828 0 0 0
1218 4 27.244160614412014 0.635516723588271 -0.09681201102353604 0 0 0
1216 14 28.093038986637794 1.1575775621714548 2.202798238599877 0 0 0
1369 13 25.70042767242612 1.9973996071366271 1.3624609554582066 0 0 0
1365 10 24.717659744098235 3.006649325458396 1.3137203367164847 0 0 0
1364 9 24.494003418727562 5.154410983913002 2.007830805834809 0 0 0
1371 2 30.733767474556043 3.6278248540397757 -0.5750362553133702 0 0 0
1370 1 29.561573375032697 5.644335550338462 2.417800816736566 0 0 0
1375 15 30.842057166526914 4.487314822926359 1.7977262020738047 0 0 0
1381 13 33.27605073449025 1.9973996071365916 1.3624609554585654 0 0 0
1377 10 32.29328280616231 3.006649325458432 1.3137203367167265 0 0 0
1223 11 29.274289438893756 1.3063089810857258 1.262854960187298 0 0 0
1376 9 32.069626480791456 5.154410983913084 2.007830805834686 0 0 0
1230 4 34.81978367647587 0.6355167235884384 -0.09681201102337281 0 0 0
1228 14 35.66866204870169 1.1575775621713666 2.2027982385999962 0 0 0
1387 15 38.417680228590854 4.4873148229263276 1.7977262020738376 0 0 0
1383 2 38.309390536619965 3.627824854039862 -0.5750362553134183 0 0 0
1389 10 39.86890586822624 3.0066493254584055 1.3137203367167942 0 0 0
1235 11 36.84991250095788 1.3063089810858348 1.2628549601873358 0 0 0
1382 1 37.137196437096485 5.644335550338503 2.4178008167367384 0 0 0
1388 9 39.64524954285545 5.154410983912976 2.007830805834644 0 0 0
1242 4 42.395406738539904 0.6355167235884113 -0.09681201102339598 0 0 0
1240 14 43.2442851107658 1.157577562171427 2.2027982385999216 0 0 0
1393 13 40.851673796554195 1.9973996071367324 1.3624609554585319 0 0 0
1399 15 45.993303290654836 4.487314822926337 1.7977262020738158 0 0 0
1395 2 45.885013598684004 3.6278248540398725 -0.5750362553134156 0 0 0
1247 11 44.42553556302186 1.3063089810858592 1.2628549601873094 0 0 0
1394 1 44.71281949916057 5.644335550338493 2.4178008167366603 0 0 0
1098 4 49.97102980060388 0.6355167235883686 -0.09681201102339403 -1 0 0
1096 14 50.81990817282966 1.157577562171335 2.202798238599971 -1 0 0
1249 13 48.42729685861813 1.9973996071366806 1.3624609554585476 -1 0 0
1401 10 47.44452893029027 3.0066493254584543 1.3137203367167984 0 0 0
1400 9 47.22087260491946 5.15441098391303 2.0078308058346614 0 0 0
1103 11 52.00115862508582 1.306308981085972 1.2628549601872983 -1 0 0
1251 2 53.46063666074793 3.627824854039801 -0.5750362553135026 -1 0 0
1250 1 52.28844256122459 5.644335550338493 2.4178008167366984 -1 0 0
1110 4 57.546652862667415 0.6355167235881869 -0.09681201102337855 -1 0 0
1255 15 53.56892635271869 4.4873148229263835 1.797726202073869 -1 0 0
1261 13 56.00291992068202 1.9973996071366327 1.3624609554588247 -1 0 0
1257 10 55.02015199235432 3.00664932545841 1.3137203367169032 -1 0 0
1256 9 54.79649566698332 5.15441098391289 2.0078308058345153 -1 0 0
1108 14 58.395531234893404 1.1575775621712552 2.2027982385998675 -1 0 0
1267 15 61.1445494147834 4.487314822925931 1.7977262020739275 -1 0 0
1263 2 61.036259722812 3.627824854039751 -0.5750362553134364 -1 0 0
1269 10 62.59577505441822 3.006649325458252 1.3137203367164938 -1 0 0
1115 11 59.57678168714987 1.3063089810859225 1.2628549601870533 -1 0 0
1262 1 59.86406562328831 5.644335550338432 2.417800816736714 -1 0 0
1268 9 62.37211872904745 5.154410983912812 2.007830805834823 -1 0 0
1273 13 63.5785429827461 1.997399607136138 1.362460955458515 -1 0 0
1122 4 65.1222759247312 0.6355167235879314 -0.09681201102343362 -1 0 0
1120 14 65.97115429695708 1.1575775621711615 2.202798238599948 -1 0 0
1279 15 68.7201724768478 4.487314822925745 1.7977262020739524 -1 0 0
1275 2 68.61188278487619 3.6278248540395053 -0.5750362553133022 -1 0 0
1127 11 67.1524047492138 1.3063089810854245 1.2628549601871222 -1 0 0
1274 1 67.4396886853523 5.644335550338342 2.417800816736652 -1 0 0
1134 4 72.69789898679599 0.6355167235878536 -0.09681201102368812 -1 0 0
1132 14 73.54677735902183 1.1575775621714153 2.202798238599596 -1 0 0
1285 13 71.1541660448098 1.9973996071366265 1.3624609554579798 -1 0 0
1281 10 70.17139811648228 3.006649325458299 1.3137203367163655 -1 0 0
1280 9 69.94774179111155 5.154410983912745 2.0078308058349355 -1 0 0
1286 1 75.01531174741648 5.64433555033834 2.417800816736564 -1 0 0
1139 11 74.72802781127763 1.306308981085536 1.2628549601871086 -1 0 0
1287 2 76.18750584694011 3.627824854039607 -0.5750362553133742 -1 0 0
1146 4 80.27352204885966 0.6355167235879476 -0.09681201102351136 -1 0 0
1291 15 76.29579553891176 4.487314822925903 1.7977262020738758 -1 0 0
1297 13 78.72978910687404 1.9973996071364262 1.362460955458317 -1 0 0
1293 10 77.74702117854633 3.006649325458317 1.3137203367164858 -1 0 0
1292 9 77.52336485317555 5.154410983912926 2.0078308058349013 -1 0 0
1144 14 81.12240042108537 1.157577562171205 2.202798238599822 -1 0 0
1303 15 83.87141860097564 4.487314822925902 1.79772620207393 -1 0 0
1299 2 83.76312890900407 3.627824854039605 -0.5750362553135157 -1 0 0
1305 10 85.32264424061032 3.0066493254582674 1.3137203367165013 -1 0 0
1151 11 82.30365087334181 1.3063089810856305 1.262854960187028 -1 0 0
1298 1 82.59093480948036 5.644335550338331 2.417800816736689 -1 0 0
1304 9 85.0989879152395 5.154410983912763 2.007830805834733 -1 0 0
1309 13 86.30541216893795 1.9973996071364044 1.3624609554583487 -1 0 0
1158 4 87.84914511092344 0.6355167235879304 -0.09681201102349567 -1 0 0
1156 14 88.69802348314931 1.1575775621712059 2.2027982385998417 -1 0 0
1315 15 91.44704166303957 4.487314822925909 1.7977262020739013 -1 0 0
1311 2 91.33875197106816 3.627824854039607 -0.5750362553133117 -1 0 0
1163 11 89.87927393540578 1.3063089810857262 1.2628549601869987 -1 0 0
1310 1 90.1665578715444 5.644335550338341 2.4178008167366367 -1 0 0
1316 9 92.6746109773036 5.154410983912859 2.007830805834889 -1 0 0
1175 11 97.45489699746977 1.306308981085519 1.2628549601872814 -1 0 0
1170 4 95.42476817298729 0.6355167235881057 -0.0968120110233737 -1 0 0
1168 14 96.27364654521303 1.1575775621711648 2.2027982386001645 -1 0 0
1321 13 93.8810352310022 1.9973996071361277 1.3624609554584173 -1 0 0
1317 10 92.89826730267431 3.006649325458294 1.3137203367164256 -1 0 0
1322 1 97.74218093360868 5.644335550338431 2.417800816736457 -1 0 0
1332 12 0.3694469476568488 6.031095546713144 0.1850372629468081 0 0 0
1330 16 2.27682402554021 6.5546787626405365 0.8946629317602197 0 0 0
1338 4 4.517291428219695 7.1961987448301965 -0.0968120110234749 0 0 0
1336 14 5.366169800445627 7.718259583413422 2.2027982385999247 0 0 0
1485 10 1.990790557906245 9.567331346700362 1.3137203367166737 0 0 0
1483 15 0.5395649182711049 11.047996844168194 1.7977262020738964 0 0 0
1489 13 2.97355848623408 8.558081628378599 1.3624609554584615 0 0 0
1479 2 0.4312752263000348 10.188506875281572 -0.5750362553134201 0 0 0
1491 2 8.006898288363999 10.188506875281758 -0.5750362553133787 0 0 0
1344 12 7.945070009720937 6.031095546713246 0.18503726294677786 0 0 0
1342 16 9.852447087604203 6.5546787626406635 0.8946629317601765 0 0 0
1495 15 8.115187980335127 11.047996844168157 1.7977262020738631 0 0 0
1497 10 9.566413619970247 9.567331346700346 1.313720336716651 0 0 0
1501 13 10.549181548298058 8.558081628378543 1.3624609554584874 0 0 0
1343 11 6.547420252701791 7.86699100232774 1.2628549601872443 0 0 0
1350 4 12.092914490283606 7.19619874483015 -0.09681201102345852 0 0 0
1348 14 12.941792862509532 7.718259583413368 2.2027982385998874 0 0 0
1356 12 15.520693071785045 6.03109554671329 0.18503726294675535 0 0 0
1503 2 15.582521350428028 10.18850687528172 -0.575036255313402 0 0 0
1507 15 15.69081104239927 11.047996844168075 1.7977262020738853 0 0 0
1509 10 17.142036682034227 9.567331346700305 1.31372033671656 0 0 0
1355 11 14.123043314765804 7.866991002327734 1.262854960187182 0 0 0
1354 16 17.428070149668166 6.554678762640735 0.8946629317601561 0 0 0
1362 4 19.668537552347605 7.196198744830134 -0.09681201102346883 0 0 0
1360 14 20.517415924573474 7.71825958341333 2.202798238599911 0 0 0
1368 12 23.096316133848966 6.031095546713252 0.18503726294671297 0 0 0
1513 13 18.124804610362055 8.558081628378465 1.3624609554584297 0 0 0
1515 2 23.158144412492053 10.18850687528173 -0.5750362553133421 0 0 0
1367 11 21.698666376829795 7.866991002327685 1.2628549601871626 0 0 0
1519 15 23.266434104463322 11.047996844168079 1.7977262020738674 0 0 0
1366 16 25.003693211732283 6.554678762640436 0.8946629317601578 0 0 0
1374 4 27.244160614411815 7.196198744830286 -0.09681201102343125 0 0 0
1372 14 28.09303898663753 7.718259583413343 2.202798238600033 0 0 0
1521 10 24.7176597440982 9.567331346700318 1.3137203367164874 0 0 0
1525 13 25.70042767242618 8.558081628378424 1.362460955458338 0 0 0
1527 2 30.733767474556075 10.18850687528168 -0.5750362553133691 0 0 0
1380 12 30.671939195912852 6.031095546713144 0.1850372629467441 0 0 0
1378 16 32.579316273796344 6.554678762640297 0.894662931760247 0 0 0
1531 15 30.842057166526914 11.047996844168345 1.7977262020738252 0 0 0
1533 10 32.29328280616233 9.567331346700472 1.3137203367167654 0 0 0
1537 13 33.276050734490234 8.558081628378595 1.3624609554585725 0 0 0
1379 11 29.274289438893746 7.866991002327706 1.2628549601873298 0 0 0
1386 4 34.81978367647585 7.19619874483041 -0.09681201102340152 0 0 0
1384 14 35.66866204870177 7.718259583413404 2.2027982385999723 0 0 0
1392 12 38.24756225797693 6.0310955467132485 0.1850372629466598 0 0 0
1390 16 40.15493933586037 6.554678762640394 0.8946629317602256 0 0 0
1539 2 38.30939053662009 10.188506875281826 -0.5750362553132722 0 0 0
1543 15 38.41768022859086 11.047996844168317 1.7977262020737619 0 0 0
1545 10 39.8689058682263 9.567331346700502 1.3137203367167731 0 0 0
1391 11 36.84991250095784 7.866991002327836 1.2628549601873125 0 0 0
1398 4 42.39540673853975 7.196198744830375 -0.09681201102336087 0 0 0
1396 14 43.24428511076564 7.718259583413388 2.202798238600004 0 0 0
1404 12 45.82318532004087 6.0310955467132175 0.18503726294666778 0 0 0
1549 13 40.85167379655422 8.558081628378511 1.3624609554586142 0 0 0
1551 2 45.885013598683976 10.18850687528179 -0.5750362553134222 0 0 0
1555 15 45.99330329065484 11.047996844168296 1.7977262020738247 0 0 0
1403 11 44.425535563021846 7.866991002327843 1.262854960187331 0 0 0
1402 16 47.73056239792436 6.554678762640345 0.8946629317602336 0 0 0
1254 4 49.97102980060378 7.196198744830429 -0.09681201102337754 -1 0 0
1252 14 50.819908172829656 7.718259583413397 2.2027982386000393 -1 0 0
1557 10 47.44452893029022 9.567331346700483 1.3137203367168167 0 0 0
1405 13 48.42729685861823 8.558081628378563 1.3624609554586353 -1 0 0
1259 11 52.00115862508581 7.86699100232786 1.2628549601873866 -1 0 0
1407 2 53.460636660748094 10.18850687528173 -0.5750362553133447 -1 0 0
1260 12 53.39880838210479 6.031095546713161 0.18503726294663736 -1 0 0
1258 16 55.30618545998825 6.554678762640689 0.8946629317602075 -1 0 0
1266 4 57.546652862667436 7.1961987448301565 -0.09681201102345315 -1 0 0
1411 15 53.56892635271878 11.047996844168331 1.797726202073793 -1 0 0
1413 10 55.02015199235441 9.567331346700497 1.3137203367169241 -1 0 0
1417 13 56.002919920682075 8.55808162837866 1.362460955458748 -1 0 0
1264 14 58.39553123489362 7.7182595834134435 2.202798238599788 -1 0 0
1272 12 60.97443144416909 6.0310955467133205 0.18503726294671227 -1 0 0
1270 16 62.88180852205203 6.554678762641078 0.8946629317601047 -1 0 0
1419 2 61.03625972281196 10.18850687528178 -0.5750362553135289 -1 0 0
1423 15 61.14454941478353 11.04799684416793 1.7977262020739913 -1 0 0
1425 10 62.59577505441819 9.567331346700193 1.3137203367165313 -1 0 0
1271 11 59.57678168714992 7.866991002327799 1.2628549601871055 -1 0 0
1429 13 63.57854298274588 8.558081628378542 1.3624609554583587 -1 0 0
1278 4 65.12227592473147 7.196198744829829 -0.09681201102357932 -1 0 0
1276 14 65.9711542969574 7.718259583413329 2.2027982385997675 -1 0 0
1284 12 68.55005450623305 6.031095546713252 0.18503726294672956 -1 0 0
1431 2 68.61188278487609 10.188506875281641 -0.5750362553134026 -1 0 0
1435 15 68.72017247684758 11.047996844167876 1.797726202073953 -1 0 0
1283 11 67.15240474921379 7.866991002327571 1.2628549601870172 -1 0 0
1282 16 70.45743158411605 6.554678762640919 0.8946629317600467 -1 0 0
1290 4 72.6978989867955 7.196198744829861 -0.09681201102351338 -1 0 0
1288 14 73.54677735902123 7.718259583413246 2.2027982385998333 -1 0 0
1437 10 70.17139811648222 9.567331346700225 1.3137203367163233 -1 0 0
1441 13 71.1541660448099 8.558081628378321 1.3624609554581768 -1 0 0
1295 11 74.72802781127767 7.866991002327545 1.2628549601870924 -1 0 0
1443 2 76.18750584694018 10.188506875281497 -0.5750362553132776 -1 0 0
1296 12 76.12567756829694 6.031095546713097 0.18503726294670184 -1 0 0
1294 16 78.0330546461801 6.554678762640773 0.8946629317601277 -1 0 0
1302 4 80.27352204885963 7.196198744829908 -0.09681201102359022 -1 0 0
1447 15 76.29579553891169 11.04799684416787 1.7977262020738862 -1 0 0
1449 10 77.74702117854632 9.567331346700279 1.3137203367163681 -1 0 0
1453 13 78.72978910687392 8.558081628378511 1.3624609554582405 -1 0 0
1300 14 81.12240042108552 7.7182595834133325 2.2027982385997484 -1 0 0
1308 12 83.70130063036106 6.031095546713228 0.18503726294665004 -1 0 0
1306 16 85.60867770824412 6.554678762640858 0.8946629317600775 -1 0 0
1455 2 83.7631289090042 10.188506875281593 -0.5750362553133487 -1 0 0
1459 15 83.87141860097566 11.047996844167846 1.7977262020738811 -1 0 0
1461 10 85.3226442406103 9.567331346700344 1.3137203367164842 -1 0 0
1307 11 82.30365087334172 7.866991002327608 1.2628549601870558 -1 0 0
1465 13 86.30541216893803 8.558081628378341 1.3624609554583567 -1 0 0
1314 4 87.84914511092353 7.196198744829931 -0.09681201102348069 -1 0 0
1312 14 88.69802348314933 7.71825958341323 2.202798238599887 -1 0 0
1320 12 91.27692369242513 6.031095546713234 0.18503726294676479 -1 0 0
1467 2 91.33875197106808 10.188506875281686 -0.5750362553132718 -1 0 0
1471 15 91.4470416630397 11.047996844167951 1.7977262020738856 -1 0 0
1319 11 89.87927393540579 7.8669910023275875 1.2628549601870556 -1 0 0
1331 11 97.45489699746973 7.866991002327561 1.2628549601872674 -1 0 0
1318 16 93.18430077030817 6.55467876264075 0.8946629317601504 -1 0 0
1326 4 95.4247681729876 7.196198744830033 -0.09681201102349614 -1 0 0
1324 14 96.27364654521338 7.7182595834132695 2.2027982386000144 -1 0 0
1473 10 92.89826730267418 9.56733134670025 1.31372033671634 -1 0 0
1477 13 93.88103523100207 8.558081628378313 1.3624609554582954 -1 0 0
1484 9 1.7671342325354855 11.715093005154916 2.0078308058345677 0 0 0
1486 16 2.276824025540304 13.11536078388247 0.8946629317601701 0 0 0
1492 14 5.3661698004455545 14.278941604655346 2.202798238599952 0 0 0
1488 12 0.36944694765687774 12.59177756795516 0.1850372629466616 0 0 0
1494 4 4.517291428219648 13.756880766072268 -0.0968120110234189 0 0 0
1645 13 2.973558486234187 15.11876364962052 1.3624609554585898 0 0 0
1641 10 1.9907905579063476 16.12801336794249 1.3137203367166916 0 0 0
1635 2 0.4312752263001745 16.749188896523595 -0.5750362553132987 0 0 0
1490 1 6.834704188840441 12.205017571580454 2.417800816736703 0 0 0
1496 9 9.342757294599473 11.7150930051549 2.007830805834705 0 0 0
1498 16 9.852447087604196 13.11536078388262 0.8946629317601763 0 0 0
1500 12 7.94507000972097 12.591777567955218 0.18503726294665504 0 0 0
1657 13 10.549181548298058 15.118763649620517 1.3624609554584857 0 0 0
1499 11 6.5474202527018575 14.42767302356977 1.2628549601872214 0 0 0
1647 2 8.006898288364047 16.749188896523748 -0.5750362553134257 0 0 0
1653 10 9.566413619970248 16.128013367942337 1.313720336716652 0 0 0
1502 1 14.410327250904414 12.20501757158043 2.4178008167366762 0 0 0
1508 9 16.918380356663477 11.715093005154898 2.007830805834751 0 0 0
1506 4 12.09291449028363 13.75688076607213 -0.09681201102348 0 0 0
1504 14 12.94179286250956 14.278941604655355 2.2027982385998617 0 0 0
1512 12 15.520693071785015 12.591777567955258 0.1850372629467302 0 0 0
1511 11 14.123043314765793 14.427673023569708 1.2628549601871706 0 0 0
1659 2 15.582521350428031 16.74918889652375 -0.5750362553133633 0 0 0
1665 10 17.14203668203423 16.128013367942305 1.3137203367165817 0 0 0
1514 1 21.98595031296841 12.205017571580434 2.417800816736684 0 0 0
1510 16 17.42807014966818 13.1153607838827 0.8946629317601567 0 0 0
1516 14 20.51741592457348 14.278941604655321 2.202798238599904 0 0 0
1518 4 19.668537552347633 13.7568807660721 -0.09681201102346698 0 0 0
1524 12 23.096316133849065 12.591777567955292 0.1850372629467637 0 0 0
1669 13 18.124804610362055 15.118763649620472 1.3624609554584222 0 0 0
1523 11 21.698666376829784 14.427673023569684 1.2628549601871695 0 0 0
1671 2 23.15814441249205 16.749188896523695 -0.5750362553133227 0 0 0
1520 9 24.494003418727544 11.715093005154952 2.0078308058347996 0 0 0
1522 16 25.00369321173225 13.115360783882522 0.8946629317601785 0 0 0
1528 14 28.093038986637534 14.27894160465528 2.2027982386000464 0 0 0
1530 4 27.244160614411772 13.756880766072278 -0.09681201102341573 0 0 0
1681 13 25.700427672426176 15.118763649620378 1.3624609554584088 0 0 0
1677 10 24.717659744098142 16.12801336794235 1.3137203367164592 0 0 0
1526 1 29.561573375032552 12.205017571580454 2.417800816736674 0 0 0
1532 9 32.06962648079145 11.715093005154932 2.0078308058345895 0 0 0
1534 16 32.57931627379633 13.115360783882371 0.8946629317602394 0 0 0
1536 12 30.67193919591281 12.591777567955168 0.1850372629466393 0 0 0
1693 13 33.276050734490234 15.118763649620462 1.3624609554586506 0 0 0
1535 11 29.274289438893753 14.427673023569717 1.262854960187328 0 0 0
1683 2 30.733767474556025 16.74918889652369 -0.5750362553133779 0 0 0
1689 10 32.29328280616229 16.128013367942426 1.3137203367168047 0 0 0
1538 1 37.1371964370966 12.205017571580512 2.4178008167365688 0 0 0
1544 9 39.645249542855446 11.715093005155044 2.007830805834736 0 0 0
1542 4 34.81978367647567 13.756880766072356 -0.09681201102338108 0 0 0
1540 14 35.668662048701606 14.278941604655353 2.202798238600021 0 0 0
1546 16 40.15493933586032 13.115360783882357 0.8946629317602726 0 0 0
1548 12 38.2475622579768 12.59177756795516 0.1850372629466832 0 0 0
1547 11 36.849912500957856 14.427673023569762 1.2628549601873214 0 0 0
1695 2 38.30939053661996 16.749188896523904 -0.5750362553133262 0 0 0
1701 10 39.86890586822621 16.128013367942383 1.3137203367167287 0 0 0
1550 1 44.71281949916054 12.205017571580521 2.4178008167366585 0 0 0
1552 14 43.24428511076573 14.278941604655417 2.2027982385999483 0 0 0
1554 4 42.39540673853986 13.756880766072381 -0.0968120110234052 0 0 0
1560 12 45.823185320040764 12.59177756795522 0.1850372629466148 0 0 0
1705 13 40.85167379655416 15.11876364962059 1.3624609554585683 0 0 0
1559 11 44.42553556302178 14.427673023569815 1.2628549601873362 0 0 0
1707 2 45.88501359868397 16.74918889652381 -0.575036255313403 0 0 0
1556 9 47.2208726049194 11.715093005154943 2.0078308058345553 0 0 0
1558 16 47.7305623979244 13.115360783882338 0.8946629317602064 0 0 0
1408 14 50.819908172829614 14.278941604655339 2.2027982386000375 -1 0 0
1410 4 49.97102980060371 13.756880766072426 -0.09681201102333395 -1 0 0
1561 13 48.427296858618305 15.118763649620448 1.3624609554586917 -1 0 0
1415 11 52.001158625085864 14.427673023569778 1.2628549601873822 -1 0 0
1713 10 47.44452893029024 16.128013367942483 1.3137203367168195 0 0 0
1406 1 52.2884425612247 12.205017571580456 2.417800816736571 -1 0 0
1412 9 54.796495666983326 11.715093005154904 2.0078308058346317 -1 0 0
1414 16 55.30618545998822 13.115360783882574 0.8946629317602455 -1 0 0
1416 12 53.398808382104676 12.591777567955042 0.18503726294659456 -1 0 0
1422 4 57.546652862667585 13.756880766072063 -0.09681201102350344 -1 0 0
1573 13 56.00291992068198 15.118763649620705 1.362460955458639 -1 0 0
1563 2 53.46063666074794 16.74918889652381 -0.575036255313465 -1 0 0
1569 10 55.020151992354286 16.128013367942405 1.3137203367169676 -1 0 0
1418 1 59.864065623288184 12.20501757158045 2.4178008167368574 -1 0 0
1424 9 62.37211872904745 11.715093005154694 2.0078308058347227 -1 0 0
1420 14 58.39553123489375 14.278941604655461 2.202798238599665 -1 0 0
1426 16 62.88180852205205 13.115360783883084 0.8946629317600799 -1 0 0
1428 12 60.97443144416921 12.59177756795542 0.1850372629467146 -1 0 0
1427 11 59.57678168714986 14.427673023569799 1.262854960187063 -1 0 0
1585 13 63.57854298274593 15.11876364962038 1.362460955458453 -1 0 0
1575 2 61.03625972281195 16.749188896523883 -0.5750362553134113 -1 0 0
1581 10 62.59577505441817 16.128013367942227 1.313720336716494 -1 0 0
1430 1 67.43968868535228 12.205017571580386 2.4178008167367278 -1 0 0
1432 14 65.97115429695721 14.278941604655248 2.20279823859987 -1 0 0
1434 4 65.12227592473137 13.756880766071905 -0.09681201102347778 -1 0 0
1440 12 68.55005450623318 12.591777567955319 0.18503726294677275 -1 0 0
1439 11 67.15240474921376 14.427673023569655 1.2628549601870547 -1 0 0
1587 2 68.61188278487614 16.749188896523595 -0.5750362553133097 -1 0 0
1436 9 69.94774179111155 11.715093005154806 2.0078308058348235 -1 0 0
1442 1 75.0153117474164 12.205017571580312 2.417800816736571 -1 0 0
1438 16 70.457431584116 13.115360783883052 0.8946629317600987 -1 0 0
1444 14 73.54677735902132 14.278941604655264 2.202798238599848 -1 0 0
1446 4 72.69789898679542 13.75688076607185 -0.09681201102354392 -1 0 0
1597 13 71.15416604480994 15.118763649620414 1.3624609554583087 -1 0 0
1451 11 74.72802781127777 14.427673023569538 1.2628549601870676 -1 0 0
1593 10 70.17139811648221 16.128013367942337 1.3137203367164023 -1 0 0
1448 9 77.52336485317555 11.71509300515487 2.0078308058349585 -1 0 0
1450 16 78.03305464618006 13.115360783882906 0.8946629317601594 -1 0 0
1452 12 76.12567756829701 12.591777567955175 0.1850372629467774 -1 0 0
1458 4 80.27352204885956 13.756880766071866 -0.096812011023561 -1 0 0
1609 13 78.72978910687391 15.118763649620455 1.362460955458237 -1 0 0
1599 2 76.18750584694008 16.749188896523588 -0.5750362553133317 -1 0 0
1605 10 77.74702117854622 16.12801336794219 1.31372033671637 -1 0 0
1454 1 82.59093480948052 12.205017571580356 2.41780081673652 -1 0 0
1460 9 85.09898791523952 11.715093005154875 2.0078308058348817 -1 0 0
1456 14 81.12240042108542 14.278941604655317 2.2027982385998244 -1 0 0
1462 16 85.60867770824413 13.115360783882775 0.8946629317601128 -1 0 0
1464 12 83.70130063036096 12.591777567955152 0.18503726294675346 -1 0 0
1463 11 82.30365087334171 14.427673023569518 1.2628549601871066 -1 0 0
1621 13 86.30541216893799 15.118763649620387 1.3624609554582219 -1 0 0
1611 2 83.76312890900401 16.749188896523588 -0.5750362553134795 -1 0 0
1617 10 85.32264424061022 16.128013367942195 1.3137203367164276 -1 0 0
1466 1 90.16655787154454 12.205017571580397 2.417800816736545 -1 0 0
1472 9 92.67461097730359 11.715093005155039 2.00783080583498 -1 0 0
1468 14 88.69802348314941 14.278941604655333 2.2027982385998537 -1 0 0
1470 4 87.84914511092353 13.756880766071927 -0.0968120110235171 -1 0 0
1476 12 91.27692369242514 12.591777567955267 0.18503726294692083 -1 0 0
1475 11 89.87927393540576 14.427673023569584 1.262854960187089 -1 0 0
1623 2 91.33875197106805 16.7491888965237 -0.5750362553133318 -1 0 0
1478 1 97.74218093360855 12.205017571580418 2.4178008167366434 -1 0 0
1487 11 97.45489699746967 14.42767302356964 1.2628549601872534 -1 0 0
1474 16 93.18430077030816 13.11536078388262 0.8946629317601665 -1 0 0
1480 14 96.27364654521355 14.278941604655303 2.202798238599954 -1 0 0
1482 4 95.42476817298795 13.75688076607214 -0.09681201102353332 -1 0 0
1633 13 93.88103523100206 15.118763649620504 1.362460955458218 -1 0 0
1629 10 92.89826730267417 16.128013367942277 1.3137203367162915 -1 0 0
1639 15 0.5395649182710818 17.608678865410162 1.797726202073791 0 0 0
1644 12 0.36944694765671954 19.15245958919704 0.1850372629466582 0 0 0
1642 16 2.276824025540274 19.676042805124414 0.8946629317602146 0 0 0
1650 4 4.5172914282197665 20.317562787314184 -0.09681201102348898 0 0 0
1648 14 5.366169800445702 20.83962362589741 2.2027982385998475 0 0 0
1801 13 2.9735584862341153 21.679445670862577 1.3624609554584532 0 0 0
1640 9 1.7671342325354522 18.275775026397007 2.0078308058347463 0 0 0
1797 10 1.9907905579062934 22.68869538918441 1.3137203367166677 0 0 0
1651 15 8.115187980335183 17.6086788654101 1.7977262020738876 0 0 0
1646 1 6.834704188840475 18.765699592822457 2.4178008167366682 0 0 0
1656 12 7.945070009720995 19.152459589197257 0.18503726294671194 0 0 0
1654 16 9.852447087604213 19.676042805124645 0.8946629317601663 0 0 0
1813 13 10.54918154829807 21.679445670862485 1.362460955458487 0 0 0
1652 9 9.342757294599455 18.275775026396882 2.007830805834719 0 0 0
1655 11 6.547420252701816 20.988355044811726 1.2628549601871883 0 0 0
1809 10 9.566413619970223 22.68869538918434 1.3137203367166148 0 0 0
1663 15 15.69081104239929 17.60867886541007 1.7977262020738816 0 0 0
1662 4 12.092914490283611 20.317562787314127 -0.09681201102344927 0 0 0
1660 14 12.941792862509475 20.839623625897342 2.202798238599908 0 0 0
1668 12 15.520693071785017 19.15245958919722 0.1850372629467449 0 0 0
1658 1 14.410327250904443 18.765699592822422 2.4178008167366807 0 0 0
1664 9 16.918380356663498 18.275775026396936 2.007830805834805 0 0 0
1667 11 14.1230433147658 20.988355044811712 1.262854960187184 0 0 0
1821 10 17.14203668203417 22.688695389184314 1.3137203367165555 0 0 0
1666 16 17.428070149668176 19.676042805124702 0.8946629317601763 0 0 0
1674 4 19.668537552347633 20.31756278731411 -0.0968120110234633 0 0 0
1672 14 20.51741592457352 20.83962362589736 2.202798238599873 0 0 0
1680 12 23.09631613384898 19.15245958919728 0.18503726294674389 0 0 0
1825 13 18.124804610362034 21.679445670862503 1.3624609554584037 0 0 0
1670 1 21.98595031296847 18.765699592822433 2.4178008167365967 0 0 0
1679 11 21.698666376829777 20.98835504481168 1.2628549601871601 0 0 0
1675 15 23.266434104463276 17.608678865410056 1.7977262020738298 0 0 0
1678 16 25.003693211732283 19.676042805124453 0.8946629317601487 0 0 0
1686 4 27.244160614411886 20.317562787314316 -0.0968120110234319 0 0 0
1684 14 28.09303898663757 20.839623625897318 2.2027982386000504 0 0 0
1837 13 25.70042767242619 21.679445670862474 1.3624609554583458 0 0 0
1676 9 24.49400341872756 18.275775026397046 2.0078308058348013 0 0 0
1833 10 24.71765974409817 22.688695389184343 1.3137203367165105 0 0 0
1687 15 30.842057166526942 17.608678865410322 1.7977262020738722 0 0 0
1682 1 29.561573375032573 18.765699592822447 2.4178008167367073 0 0 0
1692 12 30.67193919591285 19.152459589197168 0.18503726294665995 0 0 0
1690 16 32.57931627379633 19.676042805124343 0.8946629317602393 0 0 0
1849 13 33.27605073449021 21.679445670862503 1.3624609554586473 0 0 0
1688 9 32.06962648079145 18.275775026396957 2.007830805834613 0 0 0
1691 11 29.274289438893764 20.988355044811748 1.2628549601873313 0 0 0
1845 10 32.29328280616226 22.68869538918443 1.3137203367167707 0 0 0
1699 15 38.41768022859092 17.608678865410354 1.7977262020738232 0 0 0
1698 4 34.81978367647571 20.31756278731436 -0.09681201102337347 0 0 0
1696 14 35.66866204870162 20.83962362589738 2.20279823860001 0 0 0
1704 12 38.24756225797695 19.152459589197242 0.18503726294674777 0 0 0
1702 16 40.15493933586032 19.67604280512443 0.8946629317602264 0 0 0
1694 1 37.13719643709651 18.76569959282253 2.417800816736696 0 0 0
1700 9 39.64524954285547 18.27577502639706 2.0078308058347245 0 0 0
1703 11 36.84991250095784 20.98835504481182 1.2628549601873016 0 0 0
1857 10 39.868905868226186 22.688695389184414 1.3137203367166952 0 0 0
1711 15 45.99330329065489 17.608678865410333 1.7977262020738467 0 0 0
1710 4 42.395406738539805 20.31756278731437 -0.09681201102341623 0 0 0
1708 14 43.24428511076567 20.83962362589742 2.2027982386000007 0 0 0
1716 12 45.82318532004079 19.15245958919723 0.18503726294663544 0 0 0