LAMMPS data file via write_data, version 29 Aug 2024, timestep = 2, units = metal

4992 atoms
24 atom types

0 96.581036801132 xlo xhi
0 102.943546330624 ylo yhi
-50 50 zlo zhi

Masses

1 58.6934
2 58.6934
3 58.6934
4 58.6934
5 58.6934
6 58.6934
7 58.6934
8 58.6934
9 127.6
10 127.6
11 127.6
12 127.6
13 127.6
14 127.6
15 127.6
16 127.6
17 127.6
18 127.6
19 127.6
20 127.6
21 127.6
22 127.6
23 127.6
24 127.6

Atoms # atomic

1329 14 1.8573276307909998 1.0723290881239254 0.030012188065425167 0 0 0
1335 10 5.571982892373001 1.0723290881239254 0.030012188065424626 0 0 0
1330 4 1.8573276307910005 3.2169857833196547 1.4575798670006195 0 0 0
1336 2 5.571982892373001 3.216985783319654 1.4575798670006195 0 0 0
1332 16 1.2147786431069058e-15 4.289314910955927 0.030012188065424113 0 0 0
1338 12 3.714655261582001 4.289314910955927 0.03001218806542543 0 0 0
1328 13 1.857327630791 1.0723281666104212 2.8840435126076454 0 0 0
1334 9 5.571982892373001 1.0723281666104214 2.884043512607646 0 0 0
1331 15 9.446424410775091e-16 4.289313989442423 2.8840435126076462 0 0 0
1337 11 3.714655261582001 4.289313989442422 2.8840435126076454 0 0 0
1341 14 9.286638153954998 1.0723290881239251 0.030012188065425358 0 0 0
1342 4 9.286638153955 3.2169857833196547 1.4575798670006197 0 0 0
1344 16 7.429310523163998 4.289314910955927 0.030012188065424647 0 0 0
1350 12 11.143965784746 4.289314910955927 0.030012188065425386 0 0 0
1340 13 9.286638153954998 1.072328166610421 2.8840435126076454 0 0 0
1343 15 7.429310523163998 4.289313989442422 2.884043512607646 0 0 0
1349 11 11.143965784746 4.289313989442422 2.8840435126076454 0 0 0
1347 10 13.001293415536999 1.0723290881239254 0.030012188065424692 0 0 0
1353 14 16.715948677119 1.0723290881239256 0.030012188065424623 0 0 0
1348 2 13.001293415536999 3.216985783319654 1.4575798670006197 0 0 0
1354 4 16.715948677119 3.216985783319654 1.4575798670006195 0 0 0
1356 16 14.858621046327999 4.289314910955927 0.03001218806542534 0 0 0
1346 9 13.001293415536999 1.0723281666104212 2.884043512607646 0 0 0
1352 13 16.715948677119 1.0723281666104214 2.8840435126076462 0 0 0
1355 15 14.858621046327999 4.289313989442422 2.8840435126076454 0 0 0
1359 10 20.430603938700997 1.072329088123925 0.03001218806542603 0 0 0
1360 2 20.430603938700997 3.2169857833196556 1.4575798670006197 0 0 0
1362 12 18.573276307909996 4.289314910955927 0.03001218806542476 0 0 0
1368 16 22.287931569492 4.289314910955927 0.03001218806542475 0 0 0
1358 9 20.430603938700997 1.0723281666104207 2.884043512607645 0 0 0
1361 11 18.573276307909996 4.289313989442422 2.884043512607646 0 0 0
1367 15 22.287931569492 4.289313989442422 2.884043512607646 0 0 0
1365 14 24.145259200282997 1.0723290881239254 0.030012188065424716 0 0 0
1371 10 27.859914461865 1.0723290881239254 0.030012188065424723 0 0 0
1366 4 24.145259200282997 3.2169857833196542 1.45757986700062 0 0 0
1372 2 27.859914461865 3.216985783319654 1.4575798670006197 0 0 0
1374 12 26.002586831073998 4.289314910955926 0.03001218806542606 0 0 0
1364 13 24.145259200282997 1.0723281666104212 2.884043512607646 0 0 0
1370 9 27.859914461865 1.0723281666104212 2.884043512607646 0 0 0
1373 11 26.002586831073998 4.289313989442422 2.8840435126076445 0 0 0
1377 14 31.574569723447 1.072329088123925 0.03001218806542601 0 0 0
1378 4 31.574569723447 3.2169857833196556 1.4575798670006195 0 0 0
1380 16 29.717242092655997 4.289314910955927 0.030012188065424765 0 0 0
1386 12 33.431897354238 4.289314910955927 0.030012188065424727 0 0 0
1376 13 31.574569723447 1.0723281666104207 2.8840435126076445 0 0 0
1379 15 29.717242092655997 4.289313989442422 2.884043512607646 0 0 0
1385 11 33.431897354238 4.289313989442422 2.8840435126076462 0 0 0
1383 10 35.289224985029 1.0723290881239254 0.030012188065424716 0 0 0
1389 14 39.003880246611 1.0723290881239254 0.030012188065424713 0 0 0
1384 2 35.289224985029 3.2169857833196542 1.4575798670006197 0 0 0
1390 4 39.003880246611 3.2169857833196542 1.4575798670006197 0 0 0
1392 16 37.14655261582 4.289314910955926 0.030012188065426045 0 0 0
1382 9 35.289224985029 1.0723281666104212 2.884043512607646 0 0 0
1388 13 39.003880246611 1.0723281666104212 2.884043512607646 0 0 0
1391 15 37.14655261582 4.289313989442422 2.8840435126076445 0 0 0
1395 10 42.718535508193 1.072329088123925 0.03001218806542605 0 0 0
1396 2 42.718535508193 3.216985783319655 1.4575798670006197 0 0 0
1398 12 40.861207877402 4.289314910955927 0.03001218806542474 0 0 0
1404 16 44.575863138984 4.289314910955927 0.030012188065424796 0 0 0
1394 9 42.718535508193 1.0723281666104207 2.8840435126076445 0 0 0
1397 11 40.861207877402 4.289313989442422 2.884043512607646 0 0 0
1403 15 44.575863138984 4.289313989442422 2.884043512607646 0 0 0
1401 14 46.433190769774995 1.0723290881239251 0.0300121880654249 0 0 0
1251 10 50.147846031357 1.0723290881239256 0.030012188065424963 -1 0 0
1402 4 46.433190769775 3.2169857833196547 1.4575798670006195 0 0 0
1252 2 50.147846031357 3.2169857833196547 1.4575798670006197 -1 0 0
1254 12 48.290518400566 4.289314910955927 0.03001218806542515 -1 0 0
1400 13 46.433190769774995 1.0723281666104212 2.884043512607646 0 0 0
1250 9 50.147846031357 1.0723281666104212 2.884043512607646 -1 0 0
1253 11 48.290518400566 4.289313989442422 2.8840435126076454 -1 0 0
1257 14 53.862501292939 1.0723290881239251 0.03001218806542498 -1 0 0
1258 4 53.862501292939 3.216985783319654 1.4575798670006195 -1 0 0
1260 16 52.005173662148 4.289314910955926 0.030012188065425868 -1 0 0
1266 12 55.71982892373 4.289314910955927 0.03001218806542509 -1 0 0
1256 13 53.862501292939 1.0723281666104212 2.884043512607646 -1 0 0
1259 15 52.005173662148 4.289313989442422 2.884043512607645 -1 0 0
1265 11 55.71982892373 4.289313989442422 2.884043512607646 -1 0 0
1263 10 57.577156554521 1.0723290881239254 0.03001218806542501 -1 0 0
1269 14 61.291811816103 1.0723290881239251 0.030012188065425414 -1 0 0
1264 2 57.577156554521004 3.216985783319655 1.4575798670006197 -1 0 0
1270 4 61.291811816103 3.216985783319654 1.4575798670006195 -1 0 0
1272 16 59.434484185312 4.289314910955927 0.030012188065425188 -1 0 0
1262 9 57.577156554521 1.0723281666104212 2.884043512607646 -1 0 0
1268 13 61.291811816103 1.0723281666104207 2.8840435126076454 -1 0 0
1271 15 59.434484185312 4.289313989442422 2.8840435126076454 -1 0 0
1275 10 65.006467077685 1.0723290881239254 0.030012188065425164 -1 0 0
1276 2 65.006467077685 3.216985783319656 1.4575798670006197 -1 0 0
1278 12 63.149139446894 4.289314910955926 0.030012188065425657 -1 0 0
1284 16 66.86379470847601 4.289314910955926 0.030012188065425417 -1 0 0
1274 9 65.006467077685 1.0723281666104212 2.884043512607646 -1 0 0
1277 11 63.149139446894 4.289313989442422 2.884043512607645 -1 0 0
1283 15 66.86379470847601 4.289313989442422 2.8840435126076454 -1 0 0
1281 14 68.721122339267 1.0723290881239251 0.030012188065425386 -1 0 0
1287 10 72.43577760084901 1.0723290881239251 0.030012188065425393 -1 0 0
1282 4 68.72112233926701 3.216985783319654 1.4575798670006197 -1 0 0
1288 2 72.435777600849 3.216985783319654 1.4575798670006197 -1 0 0
1290 12 70.578449970058 4.289314910955927 0.030012188065424838 -1 0 0
1280 13 68.721122339267 1.072328166610421 2.8840435126076454 -1 0 0
1286 9 72.43577760084901 1.072328166610421 2.8840435126076454 -1 0 0
1289 11 70.578449970058 4.289313989442423 2.884043512607646 -1 0 0
1293 14 76.150432862431 1.0723290881239256 0.03001218806542475 -1 0 0
1294 4 76.150432862431 3.2169857833196565 1.4575798670006195 -1 0 0
1296 16 74.29310523164 4.289314910955926 0.030012188065425424 -1 0 0
1302 12 78.00776049322201 4.289314910955927 0.030012188065424453 -1 0 0
1292 13 76.150432862431 1.0723281666104214 2.8840435126076462 -1 0 0
1295 15 74.29310523164 4.289313989442422 2.884043512607645 -1 0 0
1301 11 78.00776049322201 4.289313989442422 2.8840435126076462 -1 0 0
1299 10 79.865088124013 1.0723290881239256 0.03001218806542394 -1 0 0
1305 14 83.579743385595 1.072329088123925 0.030012188065426132 -1 0 0
1300 2 79.865088124013 3.2169857833196525 1.4575798670006195 -1 0 0
1306 4 83.579743385595 3.2169857833196547 1.4575798670006195 -1 0 0
1308 16 81.722415754804 4.289314910955926 0.030012188065426347 -1 0 0
1298 9 79.865088124013 1.0723281666104214 2.8840435126076467 -1 0 0
1304 13 83.579743385595 1.0723281666104207 2.884043512607645 -1 0 0
1307 15 81.722415754804 4.289313989442421 2.8840435126076445 -1 0 0
1311 10 87.294398647177 1.072329088123925 0.03001218806542614 -1 0 0
1312 2 87.294398647177 3.2169857833196547 1.4575798670006195 -1 0 0
1314 12 85.437071016386 4.289314910955927 0.03001218806542351 -1 0 0
1320 16 89.151726277968 4.289314910955926 0.030012188065426246 -1 0 0
1310 9 87.294398647177 1.0723281666104207 2.884043512607645 -1 0 0
1313 11 85.437071016386 4.289313989442423 2.8840435126076467 -1 0 0
1319 15 89.151726277968 4.289313989442421 2.8840435126076445 -1 0 0
1317 14 91.009053908759 1.0723290881239258 0.030012188065423502 -1 0 0
1323 10 94.723709170341 1.0723290881239251 0.030012188065425972 -1 0 0
1318 4 91.009053908759 3.216985783319654 1.4575798670006197 -1 0 0
1324 2 94.723709170341 3.2169857833196547 1.4575798670006197 -1 0 0
1326 12 92.86638153955 4.289314910955926 0.030012188065426236 -1 0 0
1316 13 91.009053908759 1.0723281666104216 2.884043512607647 -1 0 0
1322 9 94.723709170341 1.0723281666104207 2.8840435126076445 -1 0 0
1325 11 92.86638153955 4.289313989442421 2.8840435126076445 -1 0 0
1485 14 1.857327630791 7.506300733787926 0.030012188065424654 0 0 0
1483 3 6.976314880190547e-16 6.433971606151654 1.45757986700062 0 0 0
1489 1 3.714655261582 6.433971606151656 1.4575798670006195 0 0 0
1491 10 5.571982892373001 7.506300733787926 0.030012188065424106 0 0 0
1488 16 1.3741767525391346e-15 10.723286556619927 0.030012188065424546 0 0 0
1486 4 1.8573276307910005 9.650957428983656 1.4575798670006195 0 0 0
1494 12 3.714655261582001 10.723286556619927 0.030012188065425893 0 0 0
1492 2 5.571982892373001 9.650957428983654 1.4575798670006195 0 0 0
1484 13 1.857327630791 7.506299812274422 2.884043512607646 0 0 0
1490 9 5.571982892373001 7.506299812274422 2.8840435126076462 0 0 0
1487 15 1.0550596961890641e-15 10.723285635106423 2.884043512607646 0 0 0
1493 11 3.714655261582001 10.723285635106423 2.884043512607645 0 0 0
1495 3 7.429310523163998 6.433971606151655 1.4575798670006197 0 0 0
1497 14 9.286638153954998 7.506300733787926 0.03001218806542485 0 0 0
1501 1 11.143965784746 6.433971606151656 1.4575798670006195 0 0 0
1500 16 7.429310523163998 10.723286556619927 0.0300121880654252 0 0 0
1498 4 9.286638153954998 9.650957428983656 1.4575798670006195 0 0 0
1506 12 11.143965784746 10.723286556619927 0.030012188065425917 0 0 0
1496 13 9.286638153954998 7.506299812274421 2.884043512607646 0 0 0
1499 15 7.429310523163998 10.723285635106423 2.8840435126076454 0 0 0
1505 11 11.143965784746 10.723285635106423 2.884043512607645 0 0 0
1503 10 13.001293415536999 7.506300733787926 0.030012188065424238 0 0 0
1507 3 14.858621046327999 6.433971606151656 1.4575798670006197 0 0 0
1509 14 16.715948677119 7.506300733787926 0.03001218806542402 0 0 0
1504 2 13.001293415536999 9.650957428983654 1.4575798670006195 0 0 0
1512 16 14.858621046327999 10.723286556619927 0.030012188065425813 0 0 0
1510 4 16.715948677119 9.650957428983654 1.4575798670006197 0 0 0
1502 9 13.001293415536999 7.506299812274422 2.8840435126076462 0 0 0
1508 13 16.715948677119 7.506299812274422 2.8840435126076467 0 0 0
1511 15 14.858621046327999 10.723285635106423 2.884043512607645 0 0 0
1513 1 18.573276307909996 6.433971606151655 1.4575798670006197 0 0 0
1515 10 20.430603938700997 7.506300733787925 0.030012188065425348 0 0 0
1519 3 22.287931569492 6.433971606151655 1.4575798670006197 0 0 0
1518 12 18.573276307909996 10.723286556619927 0.030012188065425265 0 0 0
1516 2 20.430603938700997 9.650957428983656 1.4575798670006195 0 0 0
1524 16 22.287931569492 10.723286556619927 0.030012188065425268 0 0 0
1514 9 20.430603938700997 7.506299812274421 2.8840435126076454 0 0 0
1517 11 18.573276307909996 10.723285635106423 2.8840435126076454 0 0 0
1523 15 22.287931569492 10.723285635106423 2.8840435126076454 0 0 0
1521 14 24.145259200282997 7.506300733787926 0.03001218806542413 0 0 0
1525 1 26.002586831073998 6.4339716061516565 1.4575798670006197 0 0 0
1527 10 27.859914461865 7.506300733787926 0.030012188065424123 0 0 0
1522 4 24.145259200282997 9.650957428983654 1.4575798670006197 0 0 0
1530 12 26.002586831073998 10.723286556619927 0.030012188065426593 0 0 0
1528 2 27.859914461865 9.650957428983654 1.4575798670006197 0 0 0
1520 13 24.145259200282997 7.506299812274422 2.8840435126076467 0 0 0
1526 9 27.859914461865 7.506299812274422 2.8840435126076467 0 0 0
1529 11 26.002586831073998 10.723285635106423 2.884043512607644 0 0 0
1531 3 29.717242092655997 6.433971606151655 1.4575798670006197 0 0 0
1533 14 31.574569723447 7.506300733787926 0.030012188065425324 0 0 0
1537 1 33.431897354238 6.433971606151655 1.4575798670006197 0 0 0
1536 16 29.717242092655997 10.723286556619927 0.03001218806542529 0 0 0
1534 4 31.574569723447 9.650957428983656 1.4575798670006195 0 0 0
1542 12 33.431897354238 10.723286556619927 0.030012188065425233 0 0 0
1532 13 31.574569723447 7.506299812274421 2.884043512607645 0 0 0
1535 15 29.717242092655997 10.723285635106423 2.8840435126076454 0 0 0
1541 11 33.431897354238 10.723285635106423 2.8840435126076454 0 0 0
1539 10 35.289224985029 7.506300733787926 0.030012188065424116 0 0 0
1543 3 37.14655261582 6.433971606151656 1.4575798670006197 0 0 0
1545 14 39.003880246611 7.506300733787926 0.030012188065424113 0 0 0
1540 2 35.289224985029 9.650957428983656 1.4575798670006197 0 0 0
1548 16 37.14655261582 10.723286556619927 0.030012188065426593 0 0 0
1546 4 39.003880246611 9.650957428983656 1.4575798670006197 0 0 0
1538 9 35.289224985029 7.506299812274422 2.8840435126076462 0 0 0
1544 13 39.003880246611 7.506299812274422 2.8840435126076462 0 0 0
1547 15 37.14655261582 10.723285635106423 2.884043512607644 0 0 0
1549 1 40.861207877402 6.433971606151655 1.4575798670006197 0 0 0
1551 10 42.718535508193 7.506300733787926 0.03001218806542536 0 0 0
1555 3 44.575863138984 6.433971606151654 1.4575798670006195 0 0 0
1554 12 40.861207877402 10.723286556619927 0.03001218806542524 0 0 0
1552 2 42.718535508193 9.650957428983656 1.4575798670006195 0 0 0
1560 16 44.575863138984 10.723286556619927 0.030012188065425303 0 0 0
1550 9 42.718535508193 7.506299812274421 2.884043512607645 0 0 0
1553 11 40.861207877402 10.723285635106423 2.8840435126076454 0 0 0
1559 15 44.575863138984 10.723285635106423 2.8840435126076454 0 0 0
1557 14 46.433190769774995 7.506300733787926 0.030012188065424293 0 0 0
1405 1 48.290518400566 6.433971606151656 1.4575798670006197 -1 0 0
1407 10 50.147846031357 7.506300733787926 0.030012188065424328 -1 0 0
1558 4 46.433190769775 9.650957428983656 1.4575798670006197 0 0 0
1410 12 48.290518400566 10.723286556619927 0.030012188065425553 -1 0 0
1408 2 50.147846031357 9.650957428983656 1.4575798670006197 -1 0 0
1556 13 46.433190769774995 7.506299812274422 2.8840435126076462 0 0 0
1406 9 50.147846031357 7.506299812274422 2.8840435126076462 -1 0 0
1409 11 48.290518400566 10.723285635106423 2.8840435126076454 -1 0 0
1411 3 52.005173662147996 6.433971606151656 1.4575798670006197 -1 0 0
1413 14 53.862501292939 7.506300733787926 0.030012188065424363 -1 0 0
1417 1 55.71982892373 6.433971606151654 1.4575798670006197 -1 0 0
1416 16 52.005173662148 10.723286556619927 0.030012188065426274 -1 0 0
1414 4 53.862501292939 9.650957428983654 1.4575798670006195 -1 0 0
1422 12 55.71982892373 10.723286556619927 0.03001218806542555 -1 0 0
1412 13 53.862501292939 7.506299812274422 2.8840435126076462 -1 0 0
1415 15 52.005173662148 10.723285635106423 2.8840435126076445 -1 0 0
1421 11 55.71982892373 10.723285635106423 2.8840435126076454 -1 0 0
1419 10 57.577156554521 7.506300733787926 0.030012188065424477 -1 0 0
1423 3 59.434484185311995 6.433971606151656 1.4575798670006197 -1 0 0
1425 14 61.291811816103 7.506300733787926 0.030012188065424727 -1 0 0
1420 2 57.577156554521004 9.650957428983656 1.4575798670006197 -1 0 0
1428 16 59.434484185312 10.723286556619927 0.030012188065425577 -1 0 0
1426 4 61.291811816103 9.650957428983654 1.4575798670006197 -1 0 0
1418 9 57.577156554521 7.506299812274422 2.8840435126076462 -1 0 0
1424 13 61.291811816103 7.506299812274421 2.884043512607646 -1 0 0
1427 15 59.434484185312 10.723285635106423 2.884043512607645 -1 0 0
1429 1 63.149139446894004 6.433971606151656 1.4575798670006197 -1 0 0
1431 10 65.006467077685 7.506300733787926 0.030012188065424574 -1 0 0
1435 3 66.863794708476 6.433971606151654 1.4575798670006197 -1 0 0
1434 12 63.149139446894 10.723286556619927 0.03001218806542604 -1 0 0
1432 2 65.006467077685 9.650957428983657 1.4575798670006197 -1 0 0
1440 16 66.86379470847601 10.723286556619927 0.030012188065425927 -1 0 0
1430 9 65.006467077685 7.506299812274422 2.8840435126076462 -1 0 0
1433 11 63.149139446894 10.723285635106423 2.8840435126076445 -1 0 0
1439 15 66.86379470847601 10.723285635106423 2.884043512607645 -1 0 0
1437 14 68.721122339267 7.506300733787926 0.030012188065424786 -1 0 0
1441 1 70.578449970058 6.4339716061516565 1.4575798670006195 -1 0 0
1443 10 72.43577760084901 7.506300733787926 0.0300121880654248 -1 0 0
1438 4 68.72112233926701 9.650957428983654 1.4575798670006197 -1 0 0
1446 12 70.578449970058 10.723286556619927 0.030012188065425258 -1 0 0
1444 2 72.435777600849 9.650957428983654 1.4575798670006197 -1 0 0
1436 13 68.721122339267 7.506299812274421 2.884043512607646 -1 0 0
1442 9 72.43577760084901 7.506299812274421 2.884043512607646 -1 0 0
1445 11 70.578449970058 10.723285635106423 2.884043512607646 -1 0 0
1447 3 74.29310523164001 6.433971606151655 1.4575798670006197 -1 0 0
1449 14 76.150432862431 7.506300733787926 0.030012188065424137 -1 0 0
1453 1 78.007760493222 6.433971606151655 1.4575798670006197 -1 0 0
1452 16 74.29310523164 10.723286556619927 0.030012188065425945 -1 0 0
1450 4 76.150432862431 9.650957428983657 1.4575798670006195 -1 0 0
1458 12 78.00776049322201 10.723286556619927 0.030012188065424966 -1 0 0
1448 13 76.150432862431 7.506299812274422 2.8840435126076467 -1 0 0
1451 15 74.29310523164 10.723285635106423 2.884043512607645 -1 0 0
1457 11 78.00776049322201 10.723285635106423 2.884043512607646 -1 0 0
1455 10 79.865088124013 7.506300733787926 0.030012188065423415 -1 0 0
1459 3 81.722415754804 6.433971606151656 1.4575798670006197 -1 0 0
1461 14 83.579743385595 7.506300733787926 0.030012188065425473 -1 0 0
1456 2 79.865088124013 9.650957428983654 1.4575798670006195 -1 0 0
1464 16 81.722415754804 10.723286556619927 0.03001218806542673 -1 0 0
1462 4 83.579743385595 9.650957428983656 1.4575798670006197 -1 0 0
1454 9 79.865088124013 7.506299812274422 2.884043512607647 -1 0 0
1460 13 83.579743385595 7.506299812274421 2.8840435126076454 -1 0 0
1463 15 81.722415754804 10.723285635106423 2.8840435126076445 -1 0 0
1465 1 85.437071016386 6.433971606151654 1.4575798670006197 -1 0 0
1467 10 87.294398647177 7.506300733787926 0.03001218806542548 -1 0 0
1471 3 89.151726277968 6.433971606151656 1.4575798670006197 -1 0 0
1470 12 85.437071016386 10.723286556619929 0.030012188065424043 -1 0 0
1468 2 87.294398647177 9.650957428983656 1.4575798670006197 -1 0 0
1476 16 89.151726277968 10.723286556619927 0.030012188065426625 -1 0 0
1466 9 87.294398647177 7.506299812274421 2.8840435126076454 -1 0 0
1469 11 85.437071016386 10.723285635106423 2.8840435126076462 -1 0 0
1475 15 89.151726277968 10.723285635106423 2.8840435126076445 -1 0 0
1473 14 91.009053908759 7.506300733787926 0.030012188065422996 -1 0 0
1477 1 92.86638153955 6.433971606151656 1.4575798670006197 -1 0 0
1479 10 94.723709170341 7.506300733787926 0.030012188065425372 -1 0 0
1474 4 91.009053908759 9.650957428983654 1.4575798670006197 -1 0 0
1482 12 92.86638153955 10.723286556619927 0.030012188065426607 -1 0 0
1480 2 94.723709170341 9.650957428983656 1.4575798670006197 -1 0 0
1472 13 91.009053908759 7.506299812274422 2.8840435126076476 -1 0 0
1478 9 94.723709170341 7.506299812274421 2.884043512607645 -1 0 0
1481 11 92.86638153955 10.723285635106423 2.8840435126076445 -1 0 0
1639 3 6.695068727761947e-16 12.867943251815657 1.4575798670006201 0 0 0
1645 1 3.714655261582 12.867943251815657 1.4575798670006195 0 0 0
1641 14 1.857327630791 13.940272379451928 0.030012188065425126 0 0 0
1647 10 5.571982892373001 13.94027237945193 0.030012188065424814 0 0 0
1642 4 1.8573276307910007 16.084929074647658 1.4575798670006195 0 0 0
1648 2 5.571982892373001 16.084929074647658 1.4575798670006197 0 0 0
1640 13 1.857327630791 13.940271457938424 2.8840435126076454 0 0 0
1646 9 5.571982892373001 13.940271457938426 2.884043512607646 0 0 0
1643 15 8.125140414900157e-16 17.157257280770427 2.884043512607646 0 0 0
1649 11 3.714655261582001 17.157257280770427 2.8840435126076454 0 0 0
1651 3 7.429310523163998 12.867943251815657 1.4575798670006195 0 0 0
1657 1 11.143965784746 12.867943251815657 1.4575798670006197 0 0 0
1653 14 9.286638153954998 13.940272379451928 0.03001218806542535 0 0 0
1654 4 9.286638153955 16.084929074647658 1.4575798670006197 0 0 0
1652 13 9.286638153954998 13.940271457938424 2.8840435126076454 0 0 0
1655 15 7.429310523163998 17.157257280770427 2.884043512607646 0 0 0
1661 11 11.143965784746 17.157257280770427 2.884043512607645 0 0 0
1663 3 14.858621046327999 12.867943251815657 1.4575798670006197 0 0 0
1659 10 13.001293415536999 13.94027237945193 0.03001218806542449 0 0 0
1665 14 16.715948677119 13.94027237945193 0.030012188065424824 0 0 0
1660 2 13.001293415536999 16.084929074647658 1.4575798670006197 0 0 0
1666 4 16.715948677119 16.084929074647658 1.4575798670006197 0 0 0
1658 9 13.001293415536999 13.940271457938426 2.884043512607646 0 0 0
1664 13 16.715948677119 13.940271457938426 2.8840435126076462 0 0 0
1667 15 14.858621046327999 17.157257280770427 2.8840435126076454 0 0 0
1669 1 18.573276307909996 12.867943251815657 1.4575798670006197 0 0 0
1675 3 22.287931569492 12.867943251815657 1.4575798670006197 0 0 0
1671 10 20.430603938700997 13.940272379451928 0.030012188065425768 0 0 0
1672 2 20.430603938700997 16.084929074647658 1.4575798670006197 0 0 0
1670 9 20.430603938700997 13.940271457938424 2.884043512607645 0 0 0
1673 11 18.573276307909996 17.157257280770427 2.884043512607646 0 0 0
1679 15 22.287931569492 17.157257280770427 2.884043512607646 0 0 0
1681 1 26.002586831073998 12.867943251815658 1.4575798670006195 0 0 0
1677 14 24.145259200282997 13.94027237945193 0.03001218806542453 0 0 0
1683 10 27.859914461865 13.94027237945193 0.03001218806542454 0 0 0
1678 4 24.145259200282997 16.084929074647658 1.4575798670006197 0 0 0
1684 2 27.859914461864996 16.084929074647658 1.4575798670006195 0 0 0
1676 13 24.145259200282997 13.940271457938426 2.884043512607646 0 0 0
1682 9 27.859914461865 13.940271457938424 2.8840435126076462 0 0 0
1685 11 26.002586831073998 17.157257280770423 2.8840435126076445 0 0 0
1687 3 29.717242092655997 12.867943251815657 1.4575798670006197 0 0 0
1693 1 33.431897354238 12.867943251815657 1.4575798670006197 0 0 0
1689 14 31.574569723447 13.940272379451928 0.030012188065425757 0 0 0
1690 4 31.574569723447 16.084929074647658 1.4575798670006197 0 0 0
1688 13 31.574569723447 13.940271457938424 2.884043512607645 0 0 0
1691 15 29.717242092655997 17.157257280770427 2.884043512607646 0 0 0
1697 11 33.431897354238 17.157257280770427 2.884043512607646 0 0 0
1699 3 37.14655261582 12.867943251815658 1.4575798670006197 0 0 0
1695 10 35.289224985029 13.94027237945193 0.03001218806542454 0 0 0
1701 14 39.003880246611 13.94027237945193 0.030012188065424536 0 0 0
1696 2 35.289224985029 16.084929074647658 1.4575798670006195 0 0 0
1702 4 39.003880246611 16.084929074647658 1.4575798670006195 0 0 0
1694 9 35.289224985029 13.940271457938424 2.8840435126076462 0 0 0
1700 13 39.003880246611 13.940271457938424 2.8840435126076462 0 0 0
1703 15 37.14655261582 17.157257280770423 2.8840435126076445 0 0 0
1705 1 40.861207877402 12.867943251815657 1.4575798670006197 0 0 0
1711 3 44.575863138984 12.867943251815657 1.4575798670006195 0 0 0
1707 10 42.718535508193 13.940272379451928 0.030012188065425802 0 0 0
1708 2 42.718535508193 16.084929074647658 1.45757986700062 0 0 0
1706 9 42.718535508193 13.940271457938424 2.8840435126076445 0 0 0
1709 11 40.861207877402 17.157257280770427 2.8840435126076454 0 0 0
1715 15 44.575863138984 17.157257280770427 2.884043512607646 0 0 0
1561 1 48.290518400566 12.867943251815657 1.4575798670006197 -1 0 0
1713 14 46.433190769774995 13.94027237945193 0.03001218806542517 0 0 0
1563 10 50.147846031357 13.94027237945193 0.030012188065424918 -1 0 0
1714 4 46.433190769775 16.084929074647658 1.4575798670006197 0 0 0
1564 2 50.147846031357 16.084929074647658 1.45757986700062 -1 0 0
1712 13 46.433190769774995 13.940271457938426 2.8840435126076454 0 0 0
1562 9 50.147846031357 13.940271457938424 2.884043512607646 -1 0 0
1565 11 48.290518400566 17.157257280770427 2.884043512607646 -1 0 0
1567 3 52.005173662147996 12.867943251815657 1.4575798670006197 -1 0 0
1573 1 55.71982892373 12.867943251815657 1.4575798670006195 -1 0 0
1569 14 53.862501292939 13.94027237945193 0.030012188065425237 -1 0 0
1570 4 53.862501292939 16.084929074647658 1.4575798670006197 -1 0 0
1568 13 53.862501292939 13.940271457938426 2.8840435126076454 -1 0 0
1571 15 52.005173662148 17.157257280770427 2.884043512607645 -1 0 0
1577 11 55.71982892373 17.157257280770427 2.884043512607646 -1 0 0
1579 3 59.434484185311995 12.867943251815657 1.4575798670006197 -1 0 0
1575 10 57.577156554521 13.940272379451928 0.03001218806542507 -1 0 0
1581 14 61.291811816103 13.94027237945193 0.030012188065425296 -1 0 0
1576 2 57.577156554521004 16.084929074647658 1.45757986700062 -1 0 0
1582 4 61.291811816103 16.084929074647658 1.4575798670006197 -1 0 0
1574 9 57.577156554521 13.940271457938424 2.884043512607646 -1 0 0
1580 13 61.291811816103 13.940271457938424 2.8840435126076454 -1 0 0
1583 15 59.434484185312 17.157257280770427 2.8840435126076454 -1 0 0
1585 1 63.149139446894004 12.867943251815657 1.4575798670006197 -1 0 0
1591 3 66.863794708476 12.867943251815657 1.4575798670006197 -1 0 0
1587 10 65.006467077685 13.94027237945193 0.03001218806542492 -1 0 0
1588 2 65.006467077685 16.08492907464766 1.45757986700062 -1 0 0
1586 9 65.006467077685 13.940271457938424 2.884043512607646 -1 0 0
1589 11 63.149139446894 17.157257280770427 2.884043512607645 -1 0 0
1595 15 66.86379470847601 17.157257280770427 2.884043512607645 -1 0 0
1597 1 70.578449970058 12.867943251815658 1.4575798670006197 -1 0 0
1593 14 68.721122339267 13.94027237945193 0.030012188065425213 -1 0 0
1599 10 72.43577760084901 13.94027237945193 0.030012188065425216 -1 0 0
1594 4 68.72112233926701 16.084929074647658 1.4575798670006197 -1 0 0
1600 2 72.435777600849 16.084929074647658 1.4575798670006195 -1 0 0
1592 13 68.721122339267 13.940271457938424 2.8840435126076454 -1 0 0
1598 9 72.43577760084901 13.940271457938424 2.8840435126076454 -1 0 0
1601 11 70.578449970058 17.157257280770423 2.884043512607646 -1 0 0
1603 3 74.29310523164001 12.867943251815657 1.4575798670006197 -1 0 0
1609 1 78.007760493222 12.867943251815657 1.4575798670006197 -1 0 0
1605 14 76.150432862431 13.94027237945193 0.030012188065424574 -1 0 0
1606 4 76.150432862431 16.08492907464766 1.4575798670006197 -1 0 0
1604 13 76.150432862431 13.940271457938426 2.8840435126076462 -1 0 0
1607 15 74.29310523164 17.157257280770427 2.884043512607645 -1 0 0
1613 11 78.00776049322201 17.157257280770427 2.8840435126076462 -1 0 0
1615 3 81.722415754804 12.867943251815658 1.4575798670006197 -1 0 0
1611 10 79.865088124013 13.94027237945193 0.030012188065424092 -1 0 0
1617 14 83.579743385595 13.94027237945193 0.030012188065426316 -1 0 0
1612 2 79.865088124013 16.084929074647658 1.4575798670006195 -1 0 0
1618 4 83.579743385595 16.084929074647658 1.4575798670006195 -1 0 0
1610 9 79.865088124013 13.940271457938426 2.8840435126076462 -1 0 0
1616 13 83.579743385595 13.940271457938426 2.8840435126076445 -1 0 0
1619 15 81.722415754804 17.157257280770423 2.884043512607645 -1 0 0
1621 1 85.437071016386 12.867943251815657 1.4575798670006197 -1 0 0
1627 3 89.151726277968 12.867943251815658 1.4575798670006195 -1 0 0
1623 10 87.294398647177 13.94027237945193 0.030012188065426323 -1 0 0
1624 2 87.294398647177 16.084929074647658 1.4575798670006195 -1 0 0
1622 9 87.294398647177 13.940271457938426 2.8840435126076445 -1 0 0
1625 11 85.437071016386 17.157257280770427 2.884043512607647 -1 0 0
1631 15 89.151726277968 17.157257280770423 2.884043512607645 -1 0 0
1633 1 92.86638153955 12.867943251815658 1.4575798670006195 -1 0 0
1629 14 91.009053908759 13.94027237945193 0.030012188065423415 -1 0 0
1635 10 94.723709170341 13.94027237945193 0.030012188065425743 -1 0 0
1630 4 91.009053908759 16.084929074647658 1.4575798670006195 -1 0 0
1636 2 94.723709170341 16.084929074647658 1.4575798670006197 -1 0 0
1628 13 91.009053908759 13.940271457938426 2.884043512607647 -1 0 0
1634 9 94.723709170341 13.940271457938424 2.884043512607645 -1 0 0
1637 11 92.86638153955 17.157257280770423 2.8840435126076445 -1 0 0
1644 16 1.169594182495902e-15 17.15725820228393 0.03001218806542419 0 0 0
1650 12 3.714655261582001 17.15725820228393 0.03001218806542542 0 0 0
1797 14 1.8573276307909998 20.374244025115928 0.030012188065424245 0 0 0
1795 3 7.179644952940064e-16 19.30191489747966 1.45757986700062 0 0 0
1801 1 3.714655261582 19.30191489747966 1.4575798670006193 0 0 0
1803 10 5.571982892373001 20.374244025115928 0.03001218806542347 0 0 0
1798 4 1.8573276307910005 22.518900720311656 1.4575798670006197 0 0 0
1804 2 5.571982892373001 22.518900720311656 1.457579867000619 0 0 0
1796 13 1.857327630791 20.374243103602424 2.8840435126076462 0 0 0
1802 9 5.571982892373001 20.374243103602424 2.8840435126076467 0 0 0
1656 16 7.429310523163999 17.15725820228393 0.03001218806542439 0 0 0
1662 12 11.143965784746 17.15725820228393 0.030012188065425546 0 0 0
1807 3 7.429310523163998 19.30191489747966 1.4575798670006195 0 0 0
1809 14 9.286638153954998 20.374244025115928 0.030012188065424487 0 0 0