LAMMPS data file via write_data, version 29 Aug 2024, timestep = 2, units = metal

7488 atoms
36 atom types

0 96.581036801132 xlo xhi
0 102.943546330624 ylo yhi
-50 50 zlo zhi

Masses

1 58.6934
2 58.6934
3 58.6934
4 58.6934
5 58.6934
6 58.6934
7 58.6934
8 58.6934
9 58.6934
10 58.6934
11 58.6934
12 58.6934
13 127.6
14 127.6
15 127.6
16 127.6
17 127.6
18 127.6
19 127.6
20 127.6
21 127.6
22 127.6
23 127.6
24 127.6
25 127.6
26 127.6
27 127.6
28 127.6
29 127.6
30 127.6
31 127.6
32 127.6
33 127.6
34 127.6
35 127.6
36 127.6

Atoms # atomic

1329 18 1.8573276307909998 1.0723290862311492 0.029834969137871776 0 0 0
1335 14 5.571982892373001 1.0723290862311496 0.029834969137871235 0 0 0
1330 4 1.8573276307910005 3.2169857815762857 1.4575412029114208 0 0 0
1336 2 5.571982892373001 3.216985781576285 1.4575412029114208 0 0 0
1332 20 1.1683279017166684e-15 4.289314909063151 0.02983496913787061 0 0 0
1338 16 3.714655261582001 4.28931490906315 0.029834969137872053 0 0 0
1328 17 1.857327630791 1.0723281681057766 2.884348696796285 0 0 0
1334 13 5.571982892373001 1.0723281681057766 2.884348696796285 0 0 0
1331 19 9.352523350179682e-16 4.289313990937778 2.8843486967962852 0 0 0
1337 15 3.714655261582001 4.289313990937778 2.8843486967962844 0 0 0
1341 18 9.286638153954998 1.0723290862311492 0.029834969137871984 0 0 0
1342 4 9.286638153955 3.2169857815762857 1.457541202911421 0 0 0
1344 20 7.429310523163998 4.28931490906315 0.02983496913787121 0 0 0
1350 16 11.143965784746 4.28931490906315 0.02983496913787201 0 0 0
1340 17 9.286638153954998 1.0723281681057766 2.8843486967962844 0 0 0
1343 19 7.429310523163998 4.289313990937778 2.884348696796285 0 0 0
1349 15 11.143965784746 4.289313990937777 2.8843486967962844 0 0 0
1347 14 13.001293415536999 1.0723290862311494 0.029834969137871363 0 0 0
1353 18 16.715948677119 1.0723290862311496 0.02983496913787125 0 0 0
1348 2 13.001293415536999 3.216985781576285 1.4575412029114208 0 0 0
1354 4 16.715948677119 3.216985781576285 1.4575412029114208 0 0 0
1356 20 14.858621046327999 4.28931490906315 0.02983496913787189 0 0 0
1346 13 13.001293415536999 1.0723281681057768 2.884348696796285 0 0 0
1352 17 16.715948677119 1.0723281681057768 2.8843486967962852 0 0 0
1355 19 14.858621046327999 4.289313990937778 2.884348696796285 0 0 0
1359 14 20.430603938700997 1.072329086231149 0.02983496913787263 0 0 0
1360 2 20.430603938700997 3.2169857815762866 1.4575412029114208 0 0 0
1362 16 18.573276307909996 4.28931490906315 0.029834969137871408 0 0 0
1368 20 22.287931569492 4.28931490906315 0.0298349691378714 0 0 0
1358 13 20.430603938700997 1.0723281681057764 2.884348696796284 0 0 0
1361 15 18.573276307909996 4.289313990937778 2.884348696796285 0 0 0
1367 19 22.287931569492 4.289313990937778 2.8843486967962852 0 0 0
1365 18 24.145259200282997 1.0723290862311494 0.029834969137871422 0 0 0
1371 14 27.859914461865 1.0723290862311494 0.029834969137871422 0 0 0
1366 4 24.145259200282997 3.216985781576285 1.4575412029114208 0 0 0
1372 2 27.859914461865 3.216985781576285 1.4575412029114208 0 0 0
1374 16 26.002586831073998 4.28931490906315 0.029834969137872657 0 0 0
1364 17 24.145259200282997 1.0723281681057768 2.884348696796285 0 0 0
1370 13 27.859914461865 1.0723281681057768 2.884348696796285 0 0 0
1373 15 26.002586831073998 4.289313990937777 2.8843486967962835 0 0 0
1377 18 31.574569723447 1.072329086231149 0.02983496913787262 0 0 0
1378 4 31.574569723447 3.2169857815762866 1.45754120291142 0 0 0
1380 20 29.717242092655997 4.28931490906315 0.029834969137871366 0 0 0
1386 16 33.431897354238004 4.28931490906315 0.02983496913787135 0 0 0
1376 17 31.574569723447 1.0723281681057764 2.8843486967962835 0 0 0
1379 19 29.717242092655997 4.289313990937778 2.884348696796285 0 0 0
1385 15 33.431897354238 4.289313990937778 2.8843486967962852 0 0 0
1383 14 35.289224985028994 1.0723290862311494 0.029834969137871366 0 0 0
1389 18 39.003880246611004 1.0723290862311494 0.02983496913787134 0 0 0
1384 2 35.289224985029 3.216985781576285 1.4575412029114216 0 0 0
1390 4 39.003880246611 3.216985781576285 1.4575412029114214 0 0 0
1392 20 37.14655261582 4.28931490906315 0.029834969137872657 0 0 0
1382 13 35.289224985029 1.0723281681057768 2.8843486967962852 0 0 0
1388 17 39.003880246611 1.0723281681057768 2.884348696796285 0 0 0
1391 19 37.14655261582 4.289313990937777 2.8843486967962835 0 0 0
1395 14 42.718535508193 1.0723290862311488 0.02983496913787262 0 0 0
1396 2 42.718535508193 3.2169857815762866 1.4575412029114194 0 0 0
1398 16 40.861207877401995 4.28931490906315 0.02983496913787131 0 0 0
1404 20 44.575863138984005 4.28931490906315 0.02983496913787134 0 0 0
1394 13 42.718535508193 1.0723281681057764 2.8843486967962835 0 0 0
1397 15 40.861207877402 4.289313990937778 2.884348696796285 0 0 0
1403 19 44.575863138984 4.289313990937778 2.884348696796285 0 0 0
1401 18 46.433190769774995 1.0723290862311494 0.02983496913787157 0 0 0
1251 14 50.147846031357 1.072329086231149 0.029834969137872088 -1 0 0
1402 4 46.433190769775 3.2169857815762852 1.4575412029114216 0 0 0
1252 2 50.147846031357 3.216985781576286 1.457541202911421 -1 0 0
1254 16 48.290518400566 4.28931490906315 0.029834969137871658 -1 0 0
1400 17 46.433190769774995 1.0723281681057764 2.884348696796285 0 0 0
1250 13 50.147846031357 1.0723281681057764 2.884348696796284 -1 0 0
1253 15 48.290518400566 4.289313990937778 2.884348696796285 -1 0 0
1257 18 53.862501292939 1.0723290862311496 0.029834969137870985 -1 0 0
1258 4 53.862501292939 3.216985781576285 1.4575412029114208 -1 0 0
1260 20 52.005173662148 4.28931490906315 0.02983496913787236 -1 0 0
1266 16 55.71982892373 4.289314909063151 0.029834969137870895 -1 0 0
1256 17 53.862501292939 1.0723281681057768 2.8843486967962852 -1 0 0
1259 19 52.005173662148 4.289313990937777 2.884348696796284 -1 0 0
1265 15 55.71982892373 4.289313990937778 2.8843486967962857 -1 0 0
1263 14 57.577156554521 1.072329086231149 0.029834969137872334 -1 0 0
1269 18 61.291811816103 1.0723290862311494 0.029834969137871457 -1 0 0
1264 2 57.577156554521 3.216985781576286 1.457541202911421 -1 0 0
1270 4 61.291811816103 3.2169857815762843 1.4575412029114208 -1 0 0
1272 20 59.434484185312 4.28931490906315 0.02983496913787236 -1 0 0
1262 13 57.577156554521 1.0723281681057764 2.884348696796284 -1 0 0
1268 17 61.291811816103 1.0723281681057768 2.884348696796285 -1 0 0
1271 19 59.434484185312 4.289313990937777 2.884348696796284 -1 0 0
1275 14 65.006467077685 1.0723290862311485 0.02983496913787303 -1 0 0
1276 2 65.006467077685 3.2169857815762875 1.457541202911421 -1 0 0
1278 16 63.149139446894 4.28931490906315 0.029834969137872102 -1 0 0
1284 20 66.86379470847601 4.289314909063151 0.02983496913787076 -1 0 0
1274 13 65.006467077685 1.0723281681057757 2.8843486967962835 -1 0 0
1277 15 63.149139446894 4.289313990937777 2.8843486967962844 -1 0 0
1283 19 66.86379470847601 4.289313990937778 2.8843486967962857 -1 0 0
1281 18 68.721122339267 1.0723290862311499 0.02983496913787072 -1 0 0
1287 14 72.43577760084901 1.0723290862311499 0.029834969137870742 -1 0 0
1282 4 68.721122339267 3.2169857815762843 1.4575412029114208 -1 0 0
1288 2 72.43577760084901 3.2169857815762843 1.457541202911421 -1 0 0
1290 16 70.578449970058 4.289314909063149 0.029834969137873927 -1 0 0
1280 17 68.721122339267 1.0723281681057772 2.8843486967962857 -1 0 0
1286 13 72.43577760084901 1.0723281681057772 2.8843486967962857 -1 0 0
1289 15 70.578449970058 4.289313990937776 2.8843486967962826 -1 0 0
1293 18 76.150432862431 1.0723290862311488 0.029834969137872588 -1 0 0
1294 4 76.150432862431 3.2169857815762875 1.4575412029114208 -1 0 0
1296 20 74.29310523164 4.289314909063151 0.02983496913787069 -1 0 0
1302 16 78.00776049322201 4.28931490906315 0.029834969137871 -1 0 0
1292 17 76.150432862431 1.0723281681057761 2.884348696796284 -1 0 0
1295 19 74.29310523164 4.289313990937778 2.8843486967962857 -1 0 0
1301 15 78.00776049322201 4.289313990937778 2.8843486967962852 -1 0 0
1299 14 79.865088124013 1.0723290862311494 0.029834969137870624 -1 0 0
1305 18 83.579743385595 1.072329086231149 0.02983496913787272 -1 0 0
1300 2 79.865088124013 3.2169857815762835 1.4575412029114208 -1 0 0
1306 4 83.579743385595 3.2169857815762857 1.4575412029114208 -1 0 0
1308 20 81.722415754804 4.28931490906315 0.029834969137872865 -1 0 0
1298 13 79.865088124013 1.072328168105777 2.8843486967962857 -1 0 0
1304 17 83.579743385595 1.0723281681057764 2.8843486967962835 -1 0 0
1307 19 81.722415754804 4.289313990937777 2.8843486967962835 -1 0 0
1311 14 87.294398647177 1.072329086231149 0.029834969137872723 -1 0 0
1312 2 87.294398647177 3.2169857815762857 1.4575412029114208 -1 0 0
1314 16 85.437071016386 4.28931490906315 0.029834969137870187 -1 0 0
1320 20 89.151726277968 4.28931490906315 0.029834969137872754 -1 0 0
1310 13 87.294398647177 1.0723281681057764 2.8843486967962835 -1 0 0
1313 15 85.437071016386 4.289313990937778 2.884348696796286 -1 0 0
1319 19 89.151726277968 4.289313990937777 2.8843486967962835 -1 0 0
1317 18 91.009053908759 1.0723290862311499 0.029834969137870235 -1 0 0
1323 14 94.723709170341 1.0723290862311492 0.029834969137872567 -1 0 0
1318 4 91.009053908759 3.216985781576285 1.4575412029114208 -1 0 0
1324 2 94.723709170341 3.2169857815762857 1.457541202911421 -1 0 0
1326 16 92.86638153955 4.28931490906315 0.029834969137872747 -1 0 0
1316 17 91.009053908759 1.072328168105777 2.884348696796286 -1 0 0
1322 13 94.723709170341 1.0723281681057764 2.8843486967962835 -1 0 0
1325 15 92.86638153955 4.289313990937777 2.8843486967962835 -1 0 0
1485 18 1.8573276307909998 7.50630073189515 0.029834969137871425 0 0 0
1483 3 6.497397329584846e-16 6.433971604408285 1.457541202911421 0 0 0
1489 1 3.714655261582 6.433971604408287 1.4575412029114205 0 0 0
1491 14 5.571982892373 7.50630073189515 0.02983496913787089 0 0 0
1488 20 1.1906141872090047e-15 10.723286554727151 0.029834969137871297 0 0 0
1486 4 1.8573276307910007 9.650957427240286 1.4575412029114208 0 0 0
1494 16 3.714655261582001 10.723286554727151 0.029834969137872577 0 0 0
1492 2 5.571982892373001 9.650957427240286 1.4575412029114208 0 0 0
1484 17 1.857327630791 7.506299813769777 2.884348696796285 0 0 0
1490 13 5.571982892373001 7.506299813769777 2.8843486967962852 0 0 0
1487 19 7.930911653983081e-16 10.72328563660178 2.884348696796285 0 0 0
1493 15 3.714655261582001 10.723285636601778 2.884348696796284 0 0 0
1495 3 7.429310523163998 6.433971604408286 1.4575412029114208 0 0 0
1497 18 9.286638153954998 7.50630073189515 0.029834969137871384 0 0 0
1501 1 11.143965784746 6.433971604408287 1.4575412029114205 0 0 0
1500 20 7.429310523163999 10.723286554727151 0.029834969137871897 0 0 0
1498 4 9.286638153955 9.650957427240286 1.457541202911421 0 0 0
1506 16 11.143965784746 10.723286554727151 0.029834969137872678 0 0 0
1496 17 9.286638153954998 7.506299813769777 2.884348696796285 0 0 0
1499 19 7.429310523163999 10.723285636601778 2.884348696796284 0 0 0
1505 15 11.143965784746 10.723285636601778 2.884348696796284 0 0 0
1503 14 13.001293415536999 7.50630073189515 0.029834969137870856 0 0 0
1507 3 14.858621046327999 6.433971604408287 1.4575412029114205 0 0 0
1509 18 16.715948677119 7.50630073189515 0.02983496913787065 0 0 0
1504 2 13.001293415536999 9.650957427240286 1.457541202911421 0 0 0
1512 20 14.858621046327999 10.723286554727151 0.029834969137872553 0 0 0
1510 4 16.715948677119 9.650957427240284 1.457541202911421 0 0 0
1502 13 13.001293415536999 7.506299813769777 2.8843486967962852 0 0 0
1508 17 16.715948677119 7.506299813769777 2.8843486967962857 0 0 0
1511 19 14.858621046327999 10.723285636601778 2.884348696796284 0 0 0
1513 1 18.573276307909996 6.433971604408286 1.4575412029114208 0 0 0
1515 14 20.430603938700997 7.506300731895149 0.029834969137871963 0 0 0
1519 3 22.287931569492 6.433971604408286 1.4575412029114208 0 0 0
1518 16 18.573276307909996 10.723286554727151 0.029834969137872057 0 0 0
1516 2 20.430603938700997 9.650957427240288 1.457541202911421 0 0 0
1524 20 22.287931569492 10.723286554727151 0.02983496913787203 0 0 0
1514 13 20.430603938700997 7.506299813769776 2.8843486967962844 0 0 0
1517 15 18.573276307909996 10.723285636601778 2.884348696796284 0 0 0
1523 19 22.287931569492 10.723285636601778 2.8843486967962844 0 0 0
1521 18 24.145259200282997 7.50630073189515 0.029834969137870777 0 0 0
1525 1 26.002586831073998 6.4339716044082875 1.4575412029114208 0 0 0
1527 14 27.859914461865 7.50630073189515 0.02983496913787077 0 0 0
1522 4 24.145259200282997 9.650957427240284 1.457541202911421 0 0 0
1530 16 26.002586831073998 10.72328655472715 0.02983496913787331 0 0 0
1528 2 27.859914461865 9.650957427240284 1.4575412029114208 0 0 0
1520 17 24.145259200282997 7.506299813769777 2.8843486967962852 0 0 0
1526 13 27.859914461865 7.506299813769777 2.8843486967962852 0 0 0
1529 15 26.002586831073998 10.723285636601778 2.884348696796283 0 0 0
1531 3 29.717242092655997 6.433971604408286 1.4575412029114208 0 0 0
1533 18 31.574569723447 7.506300731895149 0.029834969137871925 0 0 0
1537 1 33.431897354238 6.433971604408285 1.4575412029114214 0 0 0
1536 20 29.717242092655997 10.723286554727151 0.02983496913787204 0 0 0
1534 4 31.574569723447 9.650957427240286 1.457541202911421 0 0 0
1542 16 33.431897354238 10.723286554727151 0.029834969137872067 0 0 0
1532 17 31.574569723447 7.506299813769776 2.8843486967962844 0 0 0
1535 19 29.717242092655997 10.723285636601778 2.884348696796284 0 0 0
1541 15 33.431897354238 10.723285636601778 2.8843486967962844 0 0 0
1539 14 35.289224985028994 7.50630073189515 0.029834969137870773 0 0 0
1543 3 37.14655261582 6.4339716044082875 1.4575412029114192 0 0 0
1545 18 39.003880246611004 7.50630073189515 0.029834969137870766 0 0 0
1540 2 35.289224985029 9.650957427240286 1.457541202911421 0 0 0
1548 20 37.14655261582 10.72328655472715 0.02983496913787323 0 0 0
1546 4 39.003880246611 9.650957427240286 1.457541202911421 0 0 0
1538 13 35.289224985029 7.506299813769777 2.8843486967962852 0 0 0
1544 17 39.003880246611 7.506299813769777 2.8843486967962852 0 0 0
1547 19 37.14655261582 10.723285636601778 2.884348696796283 0 0 0
1549 1 40.861207877402 6.433971604408285 1.4575412029114214 0 0 0
1551 14 42.718535508193 7.506300731895149 0.02983496913787191 0 0 0
1555 3 44.575863138984 6.433971604408285 1.4575412029114208 0 0 0
1554 16 40.861207877402 10.723286554727151 0.029834969137872085 0 0 0
1552 2 42.718535508193 9.650957427240286 1.457541202911421 0 0 0
1560 20 44.575863138984 10.723286554727151 0.029834969137872116 0 0 0
1550 13 42.718535508193 7.506299813769776 2.8843486967962844 0 0 0
1553 15 40.861207877402 10.723285636601778 2.884348696796284 0 0 0
1559 19 44.575863138984 10.723285636601778 2.8843486967962844 0 0 0
1557 18 46.433190769774995 7.50630073189515 0.029834969137870922 0 0 0
1405 1 48.290518400566 6.433971604408287 1.4575412029114205 -1 0 0
1407 14 50.147846031357 7.50630073189515 0.029834969137871547 -1 0 0
1558 4 46.433190769775 9.650957427240286 1.457541202911421 0 0 0
1410 16 48.290518400566 10.723286554727151 0.02983496913787235 -1 0 0
1408 2 50.147846031357 9.650957427240286 1.457541202911421 -1 0 0
1556 17 46.433190769774995 7.506299813769777 2.8843486967962852 0 0 0
1406 13 50.147846031357 7.506299813769777 2.884348696796285 -1 0 0
1409 15 48.290518400566 10.723285636601778 2.884348696796284 -1 0 0
1411 3 52.005173662148 6.433971604408287 1.4575412029114205 -1 0 0
1413 18 53.862501292939 7.506300731895151 0.029834969137870457 -1 0 0
1417 1 55.71982892373 6.433971604408285 1.4575412029114208 -1 0 0
1416 20 52.005173662148 10.723286554727151 0.029834969137872973 -1 0 0
1414 4 53.862501292939 9.650957427240286 1.457541202911421 -1 0 0
1422 16 55.71982892373 10.723286554727151 0.029834969137871654 -1 0 0
1412 17 53.862501292939 7.506299813769778 2.8843486967962857 -1 0 0
1415 19 52.005173662148 10.723285636601778 2.8843486967962835 -1 0 0
1421 15 55.71982892373 10.723285636601778 2.884348696796285 -1 0 0
1419 14 57.577156554521 7.506300731895149 0.029834969137871727 -1 0 0
1423 3 59.434484185312 6.433971604408287 1.4575412029114208 -1 0 0
1425 18 61.291811816103 7.50630073189515 0.029834969137870777 -1 0 0
1420 2 57.577156554521 9.650957427240286 1.457541202911421 -1 0 0
1428 20 59.434484185312 10.723286554727151 0.029834969137873087 -1 0 0
1426 4 61.291811816103 9.650957427240284 1.457541202911421 -1 0 0
1418 13 57.577156554521 7.506299813769776 2.8843486967962844 -1 0 0
1424 17 61.291811816103 7.506299813769777 2.8843486967962852 -1 0 0
1427 19 59.434484185312 10.723285636601778 2.8843486967962835 -1 0 0
1429 1 63.149139446894004 6.433971604408287 1.4575412029114208 -1 0 0
1431 14 65.006467077685 7.506300731895149 0.029834969137872414 -1 0 0
1435 3 66.86379470847601 6.433971604408285 1.4575412029114208 -1 0 0
1434 16 63.149139446894 10.723286554727151 0.029834969137872865 -1 0 0
1432 2 65.006467077685 9.650957427240288 1.457541202911421 -1 0 0
1440 20 66.86379470847601 10.723286554727151 0.029834969137872723 -1 0 0
1430 13 65.006467077685 7.506299813769776 2.884348696796284 -1 0 0
1433 15 63.149139446894 10.723285636601778 2.8843486967962835 -1 0 0
1439 19 66.86379470847601 10.723285636601778 2.884348696796284 -1 0 0
1437 18 68.721122339267 7.50630073189515 0.029834969137870135 -1 0 0
1441 1 70.578449970058 6.4339716044082875 1.4575412029114208 -1 0 0
1443 14 72.43577760084901 7.50630073189515 0.029834969137870145 -1 0 0
1438 4 68.72112233926701 9.650957427240284 1.457541202911421 -1 0 0
1446 16 70.578449970058 10.723286554727151 0.0298349691378719 -1 0 0
1444 2 72.435777600849 9.650957427240284 1.457541202911421 -1 0 0
1436 17 68.721122339267 7.506299813769777 2.884348696796286 -1 0 0
1442 13 72.43577760084901 7.506299813769777 2.884348696796286 -1 0 0
1445 15 70.578449970058 10.723285636601778 2.884348696796285 -1 0 0
1447 3 74.29310523164 6.433971604408285 1.4575412029114208 -1 0 0
1449 18 76.150432862431 7.506300731895149 0.029834969137872046 -1 0 0
1453 1 78.007760493222 6.433971604408285 1.4575412029114208 -1 0 0
1452 20 74.29310523164 10.72328655472715 0.029834969137872723 -1 0 0
1450 4 76.150432862431 9.650957427240288 1.457541202911421 -1 0 0
1458 16 78.00776049322201 10.723286554727151 0.029834969137871634 -1 0 0
1448 17 76.150432862431 7.506299813769776 2.8843486967962844 -1 0 0
1451 19 74.29310523164 10.723285636601778 2.8843486967962835 -1 0 0
1457 15 78.00776049322201 10.723285636601778 2.8843486967962844 -1 0 0
1455 14 79.865088124013 7.506300731895149 0.029834969137869954 -1 0 0
1459 3 81.722415754804 6.433971604408287 1.4575412029114208 -1 0 0
1461 18 83.579743385595 7.506300731895149 0.029834969137872005 -1 0 0
1456 2 79.865088124013 9.650957427240284 1.4575412029114208 -1 0 0
1464 20 81.722415754804 10.72328655472715 0.02983496913787344 -1 0 0
1462 4 83.579743385595 9.650957427240286 1.4575412029114208 -1 0 0
1454 13 79.865088124013 7.506299813769777 2.884348696796286 -1 0 0
1460 17 83.579743385595 7.506299813769776 2.8843486967962844 -1 0 0
1463 19 81.722415754804 10.723285636601778 2.884348696796283 -1 0 0
1465 1 85.437071016386 6.433971604408285 1.4575412029114208 -1 0 0
1467 14 87.294398647177 7.506300731895149 0.029834969137872022 -1 0 0
1471 3 89.151726277968 6.433971604408287 1.4575412029114205 -1 0 0
1470 16 85.437071016386 10.723286554727153 0.029834969137870815 -1 0 0
1468 2 87.294398647177 9.650957427240286 1.4575412029114208 -1 0 0
1476 20 89.151726277968 10.72328655472715 0.029834969137873337 -1 0 0
1466 13 87.294398647177 7.506299813769776 2.8843486967962844 -1 0 0
1469 15 85.437071016386 10.723285636601778 2.8843486967962852 -1 0 0
1475 19 89.151726277968 10.723285636601778 2.884348696796283 -1 0 0
1473 18 91.009053908759 7.50630073189515 0.029834969137869583 -1 0 0
1477 1 92.86638153955 6.433971604408287 1.4575412029114208 -1 0 0
1479 14 94.723709170341 7.50630073189515 0.029834969137871894 -1 0 0
1474 4 91.009053908759 9.650957427240284 1.4575412029114208 -1 0 0
1482 16 92.86638153955 10.72328655472715 0.02983496913787331 -1 0 0
1480 2 94.723709170341 9.650957427240286 1.457541202911421 -1 0 0
1472 17 91.009053908759 7.506299813769777 2.8843486967962866 -1 0 0
1478 13 94.723709170341 7.506299813769776 2.8843486967962844 -1 0 0
1481 15 92.86638153955 10.723285636601778 2.884348696796283 -1 0 0
1639 3 4.703953956211447e-16 12.867943250072287 1.457541202911421 0 0 0
1645 1 3.714655261582 12.867943250072289 1.4575412029114208 0 0 0
1641 18 1.857327630791 13.940272377559154 0.029834969137871713 0 0 0
1647 14 5.571982892373001 13.940272377559152 0.029834969137871026 0 0 0
1642 4 1.8573276307910005 16.08492907290429 1.4575412029114205 0 0 0
1648 2 5.571982892373001 16.084929072904288 1.4575412029114205 0 0 0
1640 17 1.857327630791 13.94027145943378 2.884348696796285 0 0 0
1646 13 5.571982892373001 13.94027145943378 2.8843486967962852 0 0 0
1643 19 7.9568802736359725e-16 17.157257282265782 2.884348696796285 0 0 0
1649 15 3.714655261582001 17.157257282265782 2.884348696796284 0 0 0
1651 3 7.429310523163998 12.867943250072287 1.4575412029114208 0 0 0
1657 1 11.143965784746 12.867943250072289 1.4575412029114208 0 0 0
1653 18 9.286638153954998 13.940272377559154 0.02983496913787191 0 0 0
1654 4 9.286638153954998 16.08492907290429 1.4575412029114205 0 0 0
1652 17 9.286638153954998 13.94027145943378 2.8843486967962844 0 0 0
1655 19 7.429310523163998 17.157257282265782 2.884348696796285 0 0 0
1661 15 11.143965784746 17.157257282265782 2.8843486967962844 0 0 0
1663 3 14.858621046327999 12.867943250072289 1.4575412029114208 0 0 0
1659 14 13.001293415536999 13.940272377559154 0.029834969137871082 0 0 0
1665 18 16.715948677119 13.940272377559152 0.02983496913787098 0 0 0
1660 2 13.001293415536999 16.084929072904288 1.4575412029114208 0 0 0
1666 4 16.715948677119 16.084929072904288 1.4575412029114208 0 0 0
1658 13 13.001293415536999 13.94027145943378 2.884348696796285 0 0 0
1664 17 16.715948677119 13.94027145943378 2.8843486967962852 0 0 0
1667 19 14.858621046327999 17.157257282265782 2.8843486967962844 0 0 0
1669 1 18.573276307909996 12.867943250072287 1.4575412029114208 0 0 0
1675 3 22.287931569492 12.867943250072287 1.4575412029114205 0 0 0
1671 14 20.430603938700997 13.940272377559154 0.029834969137872317 0 0 0
1672 2 20.430603938700997 16.08492907290429 1.4575412029114212 0 0 0
1670 13 20.430603938700997 13.940271459433779 2.8843486967962844 0 0 0
1673 15 18.573276307909996 17.157257282265782 2.884348696796285 0 0 0
1679 19 22.287931569492 17.157257282265782 2.884348696796285 0 0 0
1681 1 26.002586831073998 12.867943250072289 1.4575412029114205 0 0 0
1677 18 24.145259200282997 13.940272377559154 0.02983496913787114 0 0 0
1683 14 27.859914461865 13.940272377559154 0.02983496913787116 0 0 0
1678 4 24.145259200282997 16.084929072904288 1.457541202911421 0 0 0
1684 2 27.859914461865 16.084929072904288 1.457541202911421 0 0 0
1676 17 24.145259200282997 13.94027145943378 2.8843486967962852 0 0 0
1682 13 27.859914461865 13.940271459433779 2.8843486967962852 0 0 0
1685 15 26.002586831073998 17.157257282265782 2.8843486967962835 0 0 0
1687 3 29.717242092655997 12.867943250072287 1.4575412029114205 0 0 0
1693 1 33.431897354238 12.867943250072287 1.4575412029114212 0 0 0
1689 18 31.574569723447 13.940272377559154 0.029834969137872362 0 0 0
1690 4 31.574569723447 16.08492907290429 1.4575412029114203 0 0 0
1688 17 31.574569723447 13.940271459433779 2.884348696796284 0 0 0
1691 19 29.717242092655997 17.157257282265782 2.884348696796285 0 0 0
1697 15 33.431897354238 17.157257282265782 2.884348696796285 0 0 0
1699 3 37.14655261582 12.867943250072289 1.4575412029114192 0 0 0
1695 14 35.289224985028994 13.940272377559154 0.02983496913787115 0 0 0
1701 18 39.003880246611004 13.940272377559154 0.029834969137871165 0 0 0
1696 2 35.289224985029 16.084929072904288 1.4575412029114216 0 0 0
1702 4 39.003880246611 16.084929072904288 1.4575412029114216 0 0 0
1694 13 35.289224985029 13.94027145943378 2.884348696796285 0 0 0
1700 17 39.003880246611 13.94027145943378 2.8843486967962852 0 0 0
1703 19 37.14655261582 17.157257282265782 2.8843486967962835 0 0 0
1705 1 40.861207877402 12.867943250072287 1.4575412029114212 0 0 0
1711 3 44.575863138984 12.867943250072287 1.4575412029114205 0 0 0
1707 14 42.718535508193 13.940272377559154 0.029834969137872404 0 0 0
1708 2 42.718535508193 16.08492907290429 1.4575412029114196 0 0 0
1706 13 42.718535508193 13.940271459433779 2.884348696796284 0 0 0
1709 15 40.861207877402 17.157257282265782 2.884348696796285 0 0 0
1715 19 44.575863138984 17.157257282265782 2.884348696796285 0 0 0
1561 1 48.290518400566 12.867943250072289 1.4575412029114208 -1 0 0
1713 18 46.433190769774995 13.940272377559152 0.029834969137871297 0 0 0
1563 14 50.147846031357 13.940272377559152 0.029834969137871988 -1 0 0
1714 4 46.433190769775 16.084929072904288 1.4575412029114214 0 0 0
1564 2 50.147846031357 16.08492907290429 1.4575412029114203 -1 0 0
1712 17 46.433190769774995 13.940271459433779 2.884348696796285 0 0 0
1562 13 50.147846031357 13.94027145943378 2.8843486967962844 -1 0 0
1565 15 48.290518400566 17.157257282265782 2.884348696796285 -1 0 0
1567 3 52.005173662148 12.867943250072289 1.4575412029114208 -1 0 0
1573 1 55.71982892373 12.867943250072287 1.4575412029114208 -1 0 0
1569 18 53.862501292939 13.940272377559152 0.029834969137870676 -1 0 0
1570 4 53.862501292939 16.084929072904288 1.4575412029114205 -1 0 0
1568 17 53.862501292939 13.94027145943378 2.8843486967962857 -1 0 0
1571 19 52.005173662148 17.157257282265782 2.884348696796284 -1 0 0
1577 15 55.71982892373 17.157257282265782 2.8843486967962857 -1 0 0
1579 3 59.434484185312 12.867943250072289 1.457541202911421 -1 0 0
1575 14 57.577156554521 13.940272377559152 0.029834969137872164 -1 0 0
1581 18 61.291811816103 13.940272377559152 0.02983496913787114 -1 0 0
1576 2 57.577156554521 16.08492907290429 1.4575412029114205 -1 0 0
1582 4 61.291811816103 16.084929072904288 1.4575412029114203 -1 0 0
1574 13 57.577156554521 13.94027145943378 2.884348696796284 -1 0 0
1580 17 61.291811816103 13.94027145943378 2.8843486967962852 -1 0 0
1583 19 59.434484185312 17.157257282265782 2.884348696796284 -1 0 0
1585 1 63.149139446894004 12.867943250072289 1.457541202911421 -1 0 0
1591 3 66.86379470847601 12.867943250072287 1.4575412029114205 -1 0 0
1587 14 65.006467077685 13.940272377559152 0.02983496913787278 -1 0 0
1588 2 65.006467077685 16.08492907290429 1.457541202911421 -1 0 0
1586 13 65.006467077685 13.940271459433779 2.8843486967962835 -1 0 0
1589 15 63.149139446894 17.157257282265782 2.884348696796284 -1 0 0
1595 19 66.86379470847601 17.157257282265782 2.8843486967962857 -1 0 0
1597 1 70.578449970058 12.86794325007229 1.4575412029114208 -1 0 0
1593 18 68.721122339267 13.940272377559154 0.02983496913787051 -1 0 0
1599 14 72.43577760084901 13.940272377559154 0.02983496913787052 -1 0 0
1594 4 68.721122339267 16.084929072904288 1.457541202911421 -1 0 0
1600 2 72.43577760084901 16.084929072904288 1.457541202911421 -1 0 0
1592 17 68.721122339267 13.94027145943378 2.8843486967962857 -1 0 0
1598 13 72.43577760084901 13.94027145943378 2.8843486967962857 -1 0 0
1601 15 70.578449970058 17.15725728226578 2.8843486967962826 -1 0 0
1603 3 74.29310523164 12.867943250072287 1.4575412029114205 -1 0 0
1609 1 78.007760493222 12.867943250072287 1.4575412029114208 -1 0 0
1605 18 76.150432862431 13.940272377559154 0.029834969137872407 -1 0 0
1606 4 76.150432862431 16.08492907290429 1.4575412029114212 -1 0 0
1604 17 76.150432862431 13.940271459433779 2.8843486967962844 -1 0 0
1607 19 74.29310523164 17.157257282265782 2.8843486967962852 -1 0 0
1613 15 78.00776049322201 17.157257282265782 2.8843486967962852 -1 0 0
1615 3 81.722415754804 12.867943250072289 1.4575412029114208 -1 0 0
1611 14 79.865088124013 13.940272377559152 0.029834969137870312 -1 0 0
1617 18 83.579743385595 13.940272377559152 0.029834969137872598 -1 0 0
1612 2 79.865088124013 16.084929072904288 1.4575412029114208 -1 0 0
1618 4 83.579743385595 16.084929072904288 1.4575412029114208 -1 0 0
1610 13 79.865088124013 13.94027145943378 2.8843486967962857 -1 0 0
1616 17 83.579743385595 13.940271459433779 2.884348696796284 -1 0 0
1619 19 81.722415754804 17.157257282265782 2.8843486967962835 -1 0 0
1621 1 85.437071016386 12.867943250072287 1.4575412029114208 -1 0 0
1627 3 89.151726277968 12.867943250072289 1.4575412029114208 -1 0 0
1623 14 87.294398647177 13.940272377559152 0.0298349691378726 -1 0 0
1624 2 87.294398647177 16.084929072904288 1.4575412029114208 -1 0 0
1622 13 87.294398647177 13.940271459433779 2.884348696796284 -1 0 0
1625 15 85.437071016386 17.157257282265782 2.8843486967962857 -1 0 0
1631 19 89.151726277968 17.157257282265782 2.8843486967962835 -1 0 0
1633 1 92.86638153955 12.867943250072289 1.4575412029114208 -1 0 0
1629 18 91.009053908759 13.940272377559152 0.02983496913786986 -1 0 0
1635 14 94.723709170341 13.940272377559154 0.02983496913787234 -1 0 0
1630 4 91.009053908759 16.084929072904288 1.4575412029114208 -1 0 0
1636 2 94.723709170341 16.084929072904288 1.4575412029114212 -1 0 0
1628 17 91.009053908759 13.94027145943378 2.884348696796286 -1 0 0
1634 13 94.723709170341 13.940271459433779 2.884348696796284 -1 0 0
1637 15 92.86638153955 17.157257282265782 2.8843486967962835 -1 0 0
1644 20 1.022296061553019e-15 17.157258200391155 0.029834969137870853 0 0 0
1650 16 3.714655261582001 17.157258200391155 0.029834969137872185 0 0 0
1797 18 1.8573276307909998 20.374244023223152 0.029834969137870832 0 0 0
1795 3 4.932770470688604e-16 19.30191489573629 1.4575412029114212 0 0 0
1801 1 3.714655261582 19.30191489573629 1.457541202911421 0 0 0
1803 14 5.571982892373001 20.374244023223152 0.029834969137870086 0 0 0
1798 4 1.8573276307910003 22.51890071856829 1.457541202911421 0 0 0
1804 2 5.571982892373001 22.518900718568286 1.4575412029114212 0 0 0
1796 17 1.857327630791 20.37424310509778 2.8843486967962852 0 0 0
1802 13 5.571982892373001 20.37424310509778 2.8843486967962857 0 0 0
1656 20 7.429310523163998 17.157258200391155 0.029834969137871207 0 0 0
1662 16 11.143965784746 17.157258200391155 0.029834969137872144 0 0 0