LAMMPS data file via write_data, version 29 Aug 2024, timestep = 2, units = metal

2392 atoms
4 atom types

0 100.099362628405 xlo xhi
0 97.995798452578 ylo yhi
-50 50 zlo zhi

Masses

1 114.818
2 114.818
3 74.921595
4 74.921595

Atoms # atomic

604 1 4.35152828399846 1.254408332062892 0.08087052283171015 0 0 0
693 3 4.350613080259696 3.766467280497193 0.5832347107113612 0 0 0
695 1 2.1754551833806977 5.0234775033158945 0.08087052283171377 0 0 0
608 1 8.703674485233458 1.2544083320628916 0.08087052283171245 0 0 0
697 3 8.702759281494695 3.766467280497193 0.5832347107113595 0 0 0
699 1 6.527601384615703 5.023477503315895 0.08087052283171199 0 0 0
703 1 10.879747585850703 5.023477503315895 0.08087052283171244 0 0 0
612 1 13.055820686468463 1.2544083320628914 0.08087052283171464 0 0 0
616 1 17.407966887703463 1.2544083320628927 0.08087052283170813 0 0 0
701 3 13.054905482729698 3.766467280497193 0.5832347107113575 0 0 0
705 3 17.4070516839647 3.766467280497192 0.5832347107113641 0 0 0
707 1 15.2318937870857 5.023477503315896 0.0808705228317101 0 0 0
620 1 21.760113088938454 1.2544083320628918 0.08087052283171214 0 0 0
709 3 21.759197885199693 3.766467280497193 0.5832347107113595 0 0 0
711 1 19.584039988320704 5.023477503315895 0.0808705228317118 0 0 0
624 1 26.11225929017346 1.2544083320628925 0.08087052283171181 0 0 0
713 3 26.111344086434695 3.766467280497193 0.5832347107113595 0 0 0
715 1 23.936186189555702 5.023477503315894 0.08087052283171171 0 0 0
719 1 28.2883323907907 5.023477503315895 0.08087052283171216 0 0 0
628 1 30.464405491408456 1.2544083320628918 0.08087052283171228 0 0 0
632 1 34.81655169264346 1.2544083320628918 0.0808705228317123 0 0 0
717 3 30.463490287669696 3.7664672804971935 0.5832347107113592 0 0 0
721 3 34.8156364889047 3.766467280497193 0.5832347107113595 0 0 0
723 1 32.6404785920257 5.023477503315895 0.08087052283171217 0 0 0
636 1 39.16869789387846 1.2544083320628918 0.08087052283171228 0 0 0
725 3 39.1677826901397 3.766467280497193 0.5832347107113595 0 0 0
727 1 36.9926247932607 5.023477503315895 0.08087052283171217 0 0 0
640 1 43.52084409511346 1.2544083320628918 0.0808705228317123 0 0 0
729 3 43.519928891374704 3.766467280497193 0.5832347107113593 0 0 0
731 1 41.344770994495704 5.023477503315895 0.08087052283171214 0 0 0
735 1 45.696917195730705 5.023477503315895 0.08087052283171224 0 0 0
644 1 47.87299029634846 1.2544083320628918 0.08087052283171232 0 0 0
556 1 52.22513649758346 1.2544083320628918 0.08087052283171237 -1 0 0
733 3 47.872075092609705 3.766467280497193 0.5832347107113593 0 0 0
645 3 52.2242212938447 3.766467280497192 0.5832347107113598 -1 0 0
647 1 50.04906339696571 5.023477503315895 0.08087052283171227 -1 0 0
560 1 56.577282698818465 1.2544083320628918 0.08087052283171234 -1 0 0
649 3 56.57636749507971 3.7664672804971926 0.5832347107113595 -1 0 0
651 1 54.40120959820071 5.023477503315896 0.08087052283171052 -1 0 0
655 1 58.7533557994357 5.023477503315895 0.08087052283171232 -1 0 0
564 1 60.929428900053466 1.2544083320628918 0.08087052283171235 -1 0 0
653 3 60.92851369631471 3.766467280497193 0.5832347107113592 -1 0 0
659 1 63.10550200067071 5.0234775033158945 0.0808705228317141 -1 0 0
568 1 65.28157510128847 1.2544083320628912 0.08087052283171271 -1 0 0
572 1 69.63372130252347 1.2544083320628918 0.08087052283171242 -1 0 0
657 3 65.2806598975497 3.766467280497192 0.5832347107113599 -1 0 0
661 3 69.63280609878471 3.7664672804971926 0.5832347107113598 -1 0 0
663 1 67.4576482019057 5.023477503315897 0.08087052283170848 -1 0 0
576 1 73.98586750375847 1.2544083320628916 0.0808705228317124 -1 0 0
665 3 73.98495230001971 3.766467280497193 0.5832347107113596 -1 0 0
667 1 71.8097944031407 5.023477503315895 0.08087052283171213 -1 0 0
671 1 76.1619406043757 5.023477503315897 0.08087052283171112 -1 0 0
580 1 78.33801370499347 1.254408332062893 0.08087052283170783 -1 0 0
669 3 78.3370985012547 3.766467280497193 0.5832347107113635 -1 0 0
675 1 80.5140868056107 5.023477503315895 0.08087052283171192 -1 0 0
584 1 82.69015990622846 1.2544083320628916 0.0808705228317126 -1 0 0
588 1 87.04230610746346 1.2544083320628916 0.08087052283171228 -1 0 0
673 3 82.6892447024897 3.766467280497193 0.5832347107113595 -1 0 0
677 3 87.0413909037247 3.766467280497193 0.5832347107113595 -1 0 0
679 1 84.8662330068457 5.023477503315895 0.08087052283171217 -1 0 0
592 1 91.39445230869846 1.254408332062892 0.08087052283171205 -1 0 0
681 3 91.3935371049597 3.766467280497193 0.5832347107113595 -1 0 0
683 1 89.2183792080807 5.023477503315894 0.08087052283171196 -1 0 0
687 1 93.5705254093157 5.023477503315895 0.08087052283171219 -1 0 0
600 1 100.09874471116846 1.2544083320628925 0.08087052283171202 -1 0 0
596 1 95.74659850993346 1.2544083320628918 0.08087052283171228 -1 0 0
685 3 95.74568330619469 3.7664672804971917 0.5832347107113605 -1 0 0
689 3 100.09782950742971 3.7664672804971935 0.5832347107113595 -1 0 0
691 1 97.9226716105507 5.023477503315897 0.08087052283170845 -1 0 0
694 3 2.1745399796424545 7.53553645175019 0.5832347107113592 0 0 0
696 1 4.35152828399846 8.792546674568895 0.08087052283171073 0 0 0
785 3 4.350613080259696 11.304605623003193 0.583234710711359 0 0 0
698 3 6.5266861808774586 7.53553645175019 0.5832347107113595 0 0 0
702 3 10.87883238211246 7.535536451750191 0.5832347107113591 0 0 0
700 1 8.703674485233458 8.792546674568895 0.08087052283171292 0 0 0
789 3 8.702759281494696 11.304605623003193 0.5832347107113574 0 0 0
706 3 15.230978583347456 7.535536451750191 0.5832347107113596 0 0 0
704 1 13.055820686468463 8.792546674568893 0.08087052283171506 0 0 0
708 1 17.407966887703463 8.792546674568895 0.08087052283170838 0 0 0
793 3 13.0549054827297 11.304605623003193 0.5832347107113554 0 0 0
797 3 17.4070516839647 11.30460562300319 0.583234710711362 0 0 0
710 3 19.583124784582463 7.53553645175019 0.5832347107113598 0 0 0
712 1 21.760113088938454 8.792546674568895 0.08087052283171234 0 0 0
801 3 21.759197885199693 11.304605623003193 0.5832347107113574 0 0 0
714 3 23.935270985817457 7.535536451750189 0.5832347107113631 0 0 0
718 3 28.28741718705245 7.535536451750191 0.5832347107113592 0 0 0
716 1 26.11225929017346 8.792546674568895 0.08087052283171235 0 0 0
805 3 26.111344086434695 11.304605623003193 0.5832347107113575 0 0 0
722 3 32.639563388287456 7.535536451750191 0.5832347107113593 0 0 0
720 1 30.46440549140846 8.792546674568895 0.08087052283171281 0 0 0
724 1 34.81655169264346 8.792546674568895 0.08087052283171284 0 0 0
809 3 30.463490287669696 11.304605623003193 0.5832347107113571 0 0 0
813 3 34.8156364889047 11.304605623003193 0.5832347107113572 0 0 0
726 3 36.99170958952246 7.535536451750191 0.5832347107113593 0 0 0
728 1 39.16869789387846 8.792546674568895 0.08087052283171281 0 0 0
817 3 39.1677826901397 11.304605623003193 0.5832347107113574 0 0 0
730 3 41.34385579075746 7.535536451750191 0.5832347107113593 0 0 0
734 3 45.69600199199246 7.535536451750191 0.5832347107113592 0 0 0
732 1 43.52084409511346 8.792546674568895 0.08087052283171278 0 0 0
821 3 43.519928891374704 11.304605623003193 0.5832347107113572 0 0 0
646 3 50.04814819322746 7.535536451750191 0.5832347107113591 -1 0 0
736 1 47.87299029634846 8.792546674568895 0.08087052283171281 0 0 0
648 1 52.22513649758346 8.792546674568895 0.08087052283171288 -1 0 0
825 3 47.872075092609705 11.304605623003193 0.5832347107113572 0 0 0
737 3 52.2242212938447 11.30460562300319 0.5832347107113577 -1 0 0
650 3 54.40029439446246 7.5355364517501915 0.5832347107113592 -1 0 0
654 3 58.75244059569746 7.535536451750191 0.5832347107113591 -1 0 0
652 1 56.577282698818465 8.792546674568895 0.08087052283171285 -1 0 0
741 3 56.57636749507971 11.304605623003193 0.5832347107113574 -1 0 0
658 3 63.10458679693246 7.535536451750189 0.5832347107113593 -1 0 0
656 1 60.929428900053466 8.792546674568895 0.08087052283171288 -1 0 0
745 3 60.92851369631471 11.304605623003193 0.583234710711357 -1 0 0
662 3 67.45673299816747 7.535536451750192 0.5832347107113593 -1 0 0
660 1 65.28157510128847 8.792546674568893 0.08087052283171324 -1 0 0
664 1 69.63372130252347 8.792546674568895 0.08087052283171295 -1 0 0
749 3 65.2806598975497 11.30460562300319 0.5832347107113577 -1 0 0
753 3 69.63280609878471 11.304605623003193 0.5832347107113577 -1 0 0
666 3 71.80887919940247 7.535536451750191 0.583234710711359 -1 0 0
670 3 76.16102540063747 7.535536451750191 0.5832347107113593 -1 0 0
668 1 73.98586750375847 8.792546674568895 0.08087052283171296 -1 0 0
757 3 73.98495230001971 11.304605623003193 0.5832347107113574 -1 0 0
674 3 80.51317160187247 7.53553645175019 0.5832347107113597 -1 0 0
672 1 78.33801370499347 8.792546674568895 0.08087052283170812 -1 0 0
761 3 78.3370985012547 11.304605623003193 0.5832347107113613 -1 0 0
678 3 84.86531780310747 7.535536451750191 0.5832347107113593 -1 0 0
676 1 82.69015990622846 8.792546674568893 0.08087052283171275 -1 0 0
680 1 87.04230610746346 8.792546674568895 0.08087052283171246 -1 0 0
765 3 82.6892447024897 11.304605623003193 0.5832347107113572 -1 0 0
769 3 87.0413909037247 11.304605623003193 0.5832347107113574 -1 0 0
682 3 89.21746400434246 7.535536451750188 0.5832347107113636 -1 0 0
686 3 93.56961020557746 7.535536451750191 0.5832347107113592 -1 0 0
684 1 91.39445230869846 8.792546674568895 0.08087052283171256 -1 0 0
773 3 91.3935371049597 11.304605623003193 0.5832347107113572 -1 0 0
692 1 100.09874471116846 8.792546674568895 0.0808705228317125 -1 0 0
690 3 97.92175640681246 7.535536451750192 0.5832347107113595 -1 0 0
688 1 95.74659850993346 8.792546674568895 0.08087052283171284 -1 0 0
777 3 95.74568330619469 11.30460562300319 0.5832347107113584 -1 0 0
781 3 100.09782950742971 11.304605623003193 0.5832347107113572 -1 0 0
787 1 2.1754551833806977 12.561615845821896 0.08087052283171431 0 0 0
786 3 2.1745399796424545 15.07367479425619 0.5832347107113598 0 0 0
788 1 4.35152828399846 16.33068501707489 0.08087052283170809 0 0 0
791 1 6.527601384615703 12.561615845821896 0.08087052283171259 0 0 0
795 1 10.879747585850703 12.561615845821894 0.08087052283171295 0 0 0
790 3 6.5266861808774586 15.07367479425619 0.58323471071136 0 0 0
792 1 8.70367448523346 16.33068501707489 0.08087052283171028 0 0 0
794 3 10.87883238211246 15.07367479425619 0.5832347107113597 0 0 0
799 1 15.2318937870857 12.561615845821896 0.08087052283171063 0 0 0
796 1 13.055820686468463 16.33068501707489 0.08087052283171256 0 0 0
798 3 15.230978583347456 15.07367479425619 0.5832347107113601 0 0 0
800 1 17.407966887703463 16.33068501707489 0.08087052283170595 0 0 0
803 1 19.584039988320704 12.561615845821896 0.0808705228317123 0 0 0
802 3 19.583124784582463 15.07367479425619 0.5832347107113603 0 0 0
804 1 21.760113088938454 16.33068501707489 0.08087052283170972 0 0 0
807 1 23.936186189555702 12.561615845821894 0.0808705228317123 0 0 0
811 1 28.2883323907907 12.561615845821896 0.08087052283171269 0 0 0
806 3 23.935270985817457 15.073674794256188 0.5832347107113636 0 0 0
808 1 26.11225929017346 16.33068501707489 0.08087052283170976 0 0 0
810 3 28.28741718705245 15.07367479425619 0.5832347107113598 0 0 0
815 1 32.6404785920257 12.561615845821896 0.0808705228317127 0 0 0
812 1 30.46440549140846 16.33068501707489 0.08087052283171017 0 0 0
814 3 32.639563388287456 15.07367479425619 0.5832347107113599 0 0 0
816 1 34.81655169264346 16.33068501707489 0.0808705228317102 0 0 0
819 1 36.9926247932607 12.561615845821896 0.08087052283171271 0 0 0
818 3 36.99170958952246 15.07367479425619 0.5832347107113599 0 0 0
820 1 39.16869789387846 16.33068501707489 0.08087052283171019 0 0 0
823 1 41.344770994495704 12.561615845821896 0.08087052283171269 0 0 0
827 1 45.696917195730705 12.561615845821896 0.08087052283171277 0 0 0
822 3 41.34385579075746 15.07367479425619 0.5832347107113598 0 0 0
824 1 43.52084409511346 16.33068501707489 0.08087052283171017 0 0 0
826 3 45.69600199199246 15.07367479425619 0.5832347107113599 0 0 0
739 1 50.04906339696571 12.561615845821896 0.08087052283171281 -1 0 0
828 1 47.87299029634846 16.33068501707489 0.08087052283171021 0 0 0
738 3 50.04814819322746 15.07367479425619 0.5832347107113597 -1 0 0
740 1 52.22513649758346 16.33068501707489 0.08087052283171028 -1 0 0
743 1 54.40120959820071 12.561615845821896 0.08087052283171106 -1 0 0
747 1 58.7533557994357 12.561615845821896 0.08087052283171285 -1 0 0
742 3 54.40029439446246 15.073674794256192 0.5832347107113598 -1 0 0
744 1 56.577282698818465 16.33068501707489 0.08087052283171027 -1 0 0
746 3 58.75244059569746 15.07367479425619 0.5832347107113597 -1 0 0
751 1 63.10550200067071 12.561615845821894 0.08087052283171475 -1 0 0
748 1 60.929428900053466 16.33068501707489 0.08087052283171021 -1 0 0
750 3 63.10458679693246 15.07367479425619 0.5832347107113599 -1 0 0
755 1 67.4576482019057 12.561615845821896 0.08087052283170909 -1 0 0
752 1 65.28157510128847 16.33068501707489 0.08087052283171062 -1 0 0
754 3 67.45673299816747 15.073674794256192 0.5832347107113598 -1 0 0
756 1 69.63372130252347 16.33068501707489 0.0808705228317103 -1 0 0
759 1 71.8097944031407 12.561615845821894 0.08087052283171267 -1 0 0
763 1 76.1619406043757 12.561615845821898 0.08087052283171174 -1 0 0
758 3 71.80887919940247 15.07367479425619 0.5832347107113596 -1 0 0
760 1 73.98586750375847 16.33068501707489 0.08087052283171028 -1 0 0
762 3 76.16102540063747 15.07367479425619 0.5832347107113598 -1 0 0
767 1 80.5140868056107 12.561615845821896 0.08087052283171245 -1 0 0
764 1 78.33801370499347 16.33068501707489 0.08087052283170565 -1 0 0
766 3 80.51317160187247 15.07367479425619 0.5832347107113601 -1 0 0
771 1 84.8662330068457 12.561615845821896 0.0808705228317127 -1 0 0
768 1 82.69015990622846 16.33068501707489 0.08087052283171019 -1 0 0
770 3 84.86531780310747 15.07367479425619 0.5832347107113599 -1 0 0
772 1 87.04230610746346 16.33068501707489 0.08087052283170987 -1 0 0
775 1 89.2183792080807 12.561615845821894 0.08087052283171256 -1 0 0
779 1 93.5705254093157 12.561615845821894 0.08087052283171273 -1 0 0
774 3 89.21746400434246 15.073674794256188 0.5832347107113642 -1 0 0
776 1 91.39445230869846 16.33068501707489 0.08087052283170997 -1 0 0
778 3 93.56961020557746 15.07367479425619 0.5832347107113597 -1 0 0
784 1 100.09874471116846 16.33068501707489 0.08087052283170987 -1 0 0
783 1 97.9226716105507 12.561615845821896 0.08087052283170906 -1 0 0
780 1 95.74659850993346 16.33068501707489 0.08087052283171044 -1 0 0
782 3 97.92175640681246 15.073674794256192 0.58323471071136 -1 0 0
879 1 2.1754551833806977 20.099754188327896 0.08087052283171625 0 0 0
877 3 4.350613080259696 18.842743965509193 0.583234710711361 0 0 0
878 3 2.1745399796424545 22.611813136762187 0.5832347107113574 0 0 0
883 1 6.527601384615703 20.099754188327896 0.0808705228317145 0 0 0
881 3 8.702759281494696 18.842743965509193 0.5832347107113593 0 0 0
887 1 10.879747585850703 20.099754188327896 0.08087052283171492 0 0 0
882 3 6.5266861808774586 22.611813136762187 0.5832347107113576 0 0 0
886 3 10.87883238211246 22.61181313676219 0.5832347107113574 0 0 0
885 3 13.0549054827297 18.842743965509197 0.5832347107113572 0 0 0
891 1 15.2318937870857 20.0997541883279 0.08087052283171256 0 0 0
889 3 17.4070516839647 18.842743965509193 0.5832347107113639 0 0 0
890 3 15.230978583347456 22.611813136762187 0.5832347107113577 0 0 0
895 1 19.584039988320704 20.0997541883279 0.08087052283171432 0 0 0
893 3 21.759197885199693 18.842743965509193 0.5832347107113593 0 0 0
894 3 19.583124784582463 22.611813136762187 0.583234710711358 0 0 0
899 1 23.936186189555702 20.099754188327896 0.08087052283171413 0 0 0
897 3 26.111344086434695 18.842743965509193 0.5832347107113595 0 0 0
903 1 28.2883323907907 20.099754188327896 0.08087052283171474 0 0 0
898 3 23.935270985817453 22.611813136762184 0.5832347107113615 0 0 0
902 3 28.28741718705245 22.611813136762187 0.5832347107113575 0 0 0
901 3 30.463490287669696 18.842743965509193 0.5832347107113591 0 0 0
907 1 32.6404785920257 20.099754188327896 0.08087052283171474 0 0 0
905 3 34.8156364889047 18.842743965509193 0.5832347107113593 0 0 0
906 3 32.639563388287456 22.611813136762187 0.5832347107113575 0 0 0
911 1 36.9926247932607 20.099754188327896 0.08087052283171473 0 0 0
909 3 39.1677826901397 18.842743965509193 0.5832347107113595 0 0 0
910 3 36.99170958952246 22.611813136762187 0.5832347107113575 0 0 0
915 1 41.344770994495704 20.099754188327896 0.08087052283171471 0 0 0
913 3 43.519928891374704 18.842743965509193 0.5832347107113592 0 0 0
919 1 45.696917195730705 20.099754188327896 0.0808705228317148 0 0 0
914 3 41.34385579075746 22.611813136762187 0.5832347107113574 0 0 0
918 3 45.69600199199246 22.611813136762187 0.5832347107113575 0 0 0
917 3 47.872075092609705 18.842743965509193 0.5832347107113592 0 0 0
831 1 50.04906339696571 20.099754188327896 0.08087052283171481 -1 0 0
829 3 52.2242212938447 18.842743965509193 0.5832347107113598 -1 0 0
830 3 50.04814819322746 22.611813136762187 0.5832347107113572 -1 0 0
835 1 54.40120959820071 20.099754188327896 0.08087052283171306 -1 0 0
833 3 56.57636749507971 18.842743965509193 0.5832347107113593 -1 0 0
839 1 58.7533557994357 20.099754188327896 0.08087052283171484 -1 0 0
834 3 54.40029439446246 22.61181313676219 0.5832347107113574 -1 0 0
838 3 58.75244059569746 22.611813136762187 0.5832347107113572 -1 0 0
837 3 60.92851369631471 18.842743965509193 0.5832347107113591 -1 0 0
843 1 63.10550200067071 20.099754188327896 0.08087052283171665 -1 0 0
842 3 63.10458679693246 22.611813136762187 0.5832347107113575 -1 0 0
841 3 65.2806598975497 18.842743965509193 0.5832347107113598 -1 0 0
847 1 67.4576482019057 20.099754188327896 0.08087052283171085 -1 0 0
845 3 69.63280609878471 18.842743965509193 0.5832347107113598 -1 0 0
846 3 67.45673299816747 22.611813136762187 0.5832347107113575 -1 0 0
851 1 71.8097944031407 20.099754188327896 0.08087052283171468 -1 0 0
849 3 73.98495230001971 18.842743965509193 0.5832347107113595 -1 0 0
855 1 76.1619406043757 20.0997541883279 0.08087052283171357 -1 0 0
850 3 71.80887919940247 22.61181313676219 0.5832347107113571 -1 0 0
854 3 76.16102540063747 22.611813136762187 0.5832347107113575 -1 0 0
853 3 78.3370985012547 18.842743965509193 0.5832347107113632 -1 0 0
859 1 80.5140868056107 20.099754188327896 0.08087052283171445 -1 0 0
858 3 80.51317160187247 22.611813136762187 0.5832347107113579 -1 0 0
857 3 82.6892447024897 18.842743965509193 0.5832347107113593 -1 0 0
863 1 84.8662330068457 20.099754188327896 0.08087052283171475 -1 0 0
861 3 87.0413909037247 18.842743965509193 0.5832347107113595 -1 0 0
862 3 84.86531780310747 22.61181313676219 0.5832347107113575 -1 0 0
867 1 89.2183792080807 20.099754188327896 0.08087052283171436 -1 0 0
865 3 91.3935371049597 18.842743965509193 0.5832347107113595 -1 0 0
871 1 93.5705254093157 20.099754188327896 0.08087052283171464 -1 0 0
866 3 89.21746400434246 22.611813136762184 0.583234710711362 -1 0 0
870 3 93.56961020557746 22.611813136762187 0.5832347107113575 -1 0 0
869 3 95.74568330619469 18.842743965509193 0.5832347107113605 -1 0 0
875 1 97.92267161055071 20.099754188327896 0.08087052283171073 -1 0 0
873 3 100.09782950742971 18.842743965509193 0.5832347107113593 -1 0 0
874 3 97.92175640681246 22.611813136762187 0.5832347107113576 -1 0 0
880 1 4.35152828399846 23.86882335958089 0.08087052283170867 0 0 0
969 3 4.350613080259696 26.38088230801519 0.5832347107113619 0 0 0
971 1 2.1754551833806977 27.637892530833895 0.08087052283171181 0 0 0
884 1 8.703674485233458 23.86882335958089 0.08087052283171084 0 0 0
973 3 8.702759281494696 26.38088230801519 0.5832347107113602 0 0 0
975 1 6.527601384615703 27.637892530833895 0.08087052283171006 0 0 0
979 1 10.879747585850703 27.637892530833895 0.0808705228317105 0 0 0
888 1 13.055820686468463 23.86882335958089 0.08087052283171307 0 0 0
892 1 17.407966887703463 23.868823359580894 0.08087052283170643 0 0 0
977 3 13.0549054827297 26.38088230801519 0.5832347107113581 0 0 0
981 3 17.4070516839647 26.38088230801519 0.5832347107113648 0 0 0
983 1 15.2318937870857 27.637892530833895 0.0808705228317081 0 0 0
896 1 21.760113088938454 23.86882335958089 0.0808705228317103 0 0 0
985 3 21.759197885199693 26.38088230801519 0.5832347107113602 0 0 0
987 1 19.584039988320704 27.637892530833895 0.08087052283170985 0 0 0
900 1 26.11225929017346 23.86882335958089 0.08087052283171035 0 0 0
989 3 26.111344086434695 26.38088230801519 0.58323471071136 0 0 0
991 1 23.936186189555702 27.637892530833895 0.08087052283170987 0 0 0
995 1 28.2883323907907 27.637892530833895 0.08087052283171033 0 0 0
904 1 30.46440549140846 23.86882335958089 0.08087052283171067 0 0 0
908 1 34.81655169264346 23.86882335958089 0.0808705228317107 0 0 0
993 3 30.463490287669696 26.38088230801519 0.5832347107113601 0 0 0
997 3 34.8156364889047 26.38088230801519 0.5832347107113603 0 0 0
999 1 32.6404785920257 27.637892530833895 0.08087052283171028 0 0 0
912 1 39.16869789387846 23.86882335958089 0.0808705228317107 0 0 0
1001 3 39.1677826901397 26.38088230801519 0.5832347107113602 0 0 0
1003 1 36.9926247932607 27.637892530833895 0.0808705228317103 0 0 0
916 1 43.52084409511346 23.86882335958089 0.08087052283171067 0 0 0
1005 3 43.519928891374704 26.38088230801519 0.5832347107113601 0 0 0
1007 1 41.344770994495704 27.637892530833895 0.08087052283171027 0 0 0
1011 1 45.696917195730705 27.637892530833895 0.08087052283171034 0 0 0
920 1 47.87299029634846 23.86882335958089 0.08087052283171071 0 0 0
832 1 52.22513649758346 23.86882335958089 0.08087052283171078 -1 0 0
1009 3 47.872075092609705 26.38088230801519 0.5832347107113601 0 0 0
921 3 52.2242212938447 26.38088230801519 0.5832347107113607 -1 0 0
923 1 50.04906339696571 27.637892530833895 0.08087052283171034 -1 0 0
836 1 56.577282698818465 23.86882335958089 0.08087052283171077 -1 0 0
925 3 56.57636749507971 26.38088230801519 0.5832347107113603 -1 0 0
927 1 54.40120959820071 27.637892530833895 0.08087052283170862 -1 0 0
931 1 58.7533557994357 27.637892530833895 0.0808705228317104 -1 0 0
840 1 60.929428900053466 23.86882335958089 0.08087052283171077 -1 0 0
929 3 60.92851369631471 26.38088230801519 0.58323471071136 -1 0 0
935 1 63.10550200067071 27.637892530833895 0.08087052283171219 -1 0 0
844 1 65.28157510128847 23.86882335958089 0.08087052283171126 -1 0 0
848 1 69.63372130252347 23.86882335958089 0.08087052283171091 -1 0 0
933 3 65.2806598975497 26.38088230801519 0.5832347107113607 -1 0 0
937 3 69.63280609878471 26.38088230801519 0.5832347107113607 -1 0 0
939 1 67.4576482019057 27.637892530833895 0.08087052283170663 -1 0 0
852 1 73.98586750375847 23.86882335958089 0.08087052283171084 -1 0 0
941 3 73.98495230001971 26.38088230801519 0.5832347107113602 -1 0 0
943 1 71.8097944031407 27.637892530833895 0.08087052283171026 -1 0 0
947 1 76.1619406043757 27.637892530833895 0.0808705228317092 -1 0 0
856 1 78.33801370499347 23.868823359580894 0.08087052283170618 -1 0 0
945 3 78.3370985012547 26.38088230801519 0.5832347107113641 -1 0 0
951 1 80.5140868056107 27.637892530833895 0.08087052283170998 -1 0 0
860 1 82.69015990622846 23.86882335958089 0.08087052283171067 -1 0 0
864 1 87.04230610746346 23.86882335958089 0.08087052283171044 -1 0 0
949 3 82.6892447024897 26.38088230801519 0.5832347107113602 -1 0 0
953 3 87.0413909037247 26.38088230801519 0.5832347107113603 -1 0 0
955 1 84.8662330068457 27.637892530833895 0.08087052283171028 -1 0 0
868 1 91.39445230869846 23.86882335958089 0.08087052283171058 -1 0 0
957 3 91.3935371049597 26.38088230801519 0.58323471071136 -1 0 0
959 1 89.2183792080807 27.63789253083389 0.0808705228317101 -1 0 0
963 1 93.5705254093157 27.637892530833895 0.08087052283171033 -1 0 0
876 1 100.09874471116846 23.868823359580894 0.0808705228317105 -1 0 0
872 1 95.74659850993346 23.86882335958089 0.08087052283171083 -1 0 0
961 3 95.74568330619469 26.38088230801519 0.5832347107113613 -1 0 0
965 3 100.09782950742971 26.38088230801519 0.5832347107113602 -1 0 0
967 1 97.9226716105507 27.637892530833895 0.08087052283170662 -1 0 0
970 3 2.1745399796424545 30.149951479268193 0.5832347107113574 0 0 0
972 1 4.35152828399846 31.40696170208689 0.08087052283171299 0 0 0
1061 3 4.350613080259696 33.91902065052119 0.5832347107113615 0 0 0
974 3 6.526686180877459 30.149951479268193 0.5832347107113574 0 0 0
978 3 10.87883238211246 30.149951479268196 0.583234710711357 0 0 0
976 1 8.703674485233458 31.40696170208689 0.08087052283171549 0 0 0
1065 3 8.702759281494695 33.91902065052119 0.5832347107113597 0 0 0
982 3 15.230978583347456 30.149951479268196 0.5832347107113575 0 0 0
980 1 13.055820686468463 31.40696170208689 0.08087052283171733 0 0 0
984 1 17.407966887703463 31.40696170208689 0.08087052283171067 0 0 0
1069 3 13.054905482729698 33.91902065052119 0.5832347107113576 0 0 0
1073 3 17.4070516839647 33.91902065052119 0.5832347107113643 0 0 0
986 3 19.583124784582463 30.149951479268193 0.5832347107113575 0 0 0
988 1 21.760113088938454 31.406961702086893 0.08087052283171511 0 0 0
1077 3 21.759197885199693 33.91902065052119 0.5832347107113597 0 0 0
990 3 23.935270985817457 30.149951479268193 0.5832347107113609 0 0 0
994 3 28.28741718705245 30.149951479268196 0.5832347107113574 0 0 0
992 1 26.11225929017346 31.406961702086893 0.08087052283171474 0 0 0
1081 3 26.111344086434695 33.91902065052119 0.5832347107113598 0 0 0
998 3 32.639563388287456 30.149951479268196 0.5832347107113574 0 0 0
996 1 30.464405491408456 31.40696170208689 0.08087052283171516 0 0 0
1000 1 34.81655169264346 31.40696170208689 0.08087052283171516 0 0 0
1085 3 30.463490287669696 33.91902065052119 0.5832347107113595 0 0 0
1089 3 34.8156364889047 33.91902065052119 0.5832347107113597 0 0 0
1002 3 36.99170958952246 30.149951479268196 0.5832347107113574 0 0 0
1004 1 39.16869789387846 31.40696170208689 0.08087052283171517 0 0 0
1093 3 39.1677826901397 33.91902065052119 0.5832347107113598 0 0 0
1006 3 41.34385579075746 30.149951479268196 0.5832347107113574 0 0 0
1010 3 45.69600199199246 30.149951479268196 0.5832347107113574 0 0 0
1008 1 43.52084409511346 31.40696170208689 0.08087052283171516 0 0 0
1097 3 43.519928891374704 33.91902065052119 0.5832347107113596 0 0 0
922 3 50.04814819322746 30.149951479268196 0.5832347107113571 -1 0 0
1012 1 47.87299029634846 31.40696170208689 0.08087052283171518 0 0 0
924 1 52.22513649758346 31.40696170208689 0.08087052283171525 -1 0 0
1101 3 47.872075092609705 33.91902065052119 0.5832347107113596 0 0 0
1013 3 52.2242212938447 33.91902065052119 0.5832347107113601 -1 0 0
926 3 54.40029439446246 30.149951479268196 0.5832347107113572 -1 0 0
930 3 58.75244059569746 30.149951479268196 0.5832347107113571 -1 0 0
928 1 56.577282698818465 31.40696170208689 0.08087052283171525 -1 0 0
1017 3 56.57636749507971 33.91902065052119 0.5832347107113598 -1 0 0
934 3 63.10458679693246 30.149951479268193 0.5832347107113575 -1 0 0
932 1 60.929428900053466 31.40696170208689 0.08087052283171525 -1 0 0
1021 3 60.92851369631471 33.91902065052119 0.5832347107113596 -1 0 0
938 3 67.45673299816747 30.149951479268196 0.5832347107113574 -1 0 0
936 1 65.28157510128847 31.40696170208689 0.08087052283171563 -1 0 0
940 1 69.63372130252347 31.40696170208689 0.08087052283171527 -1 0 0
1025 3 65.2806598975497 33.91902065052119 0.5832347107113602 -1 0 0
1029 3 69.63280609878471 33.91902065052119 0.5832347107113601 -1 0 0
942 3 71.80887919940247 30.149951479268196 0.5832347107113571 -1 0 0
946 3 76.16102540063747 30.149951479268193 0.5832347107113572 -1 0 0
944 1 73.98586750375847 31.40696170208689 0.08087052283171532 -1 0 0
1033 3 73.98495230001971 33.91902065052119 0.5832347107113598 -1 0 0
950 3 80.51317160187247 30.149951479268193 0.5832347107113572 -1 0 0
948 1 78.33801370499347 31.40696170208689 0.08087052283171045 -1 0 0
1037 3 78.3370985012547 33.91902065052119 0.5832347107113636 -1 0 0
954 3 84.86531780310747 30.149951479268196 0.583234710711357 -1 0 0
952 1 82.69015990622846 31.40696170208689 0.08087052283171557 -1 0 0
956 1 87.04230610746346 31.406961702086893 0.08087052283171527 -1 0 0
1041 3 82.6892447024897 33.91902065052119 0.5832347107113597 -1 0 0
1045 3 87.0413909037247 33.91902065052119 0.5832347107113598 -1 0 0
958 3 89.21746400434246 30.149951479268193 0.5832347107113615 -1 0 0
962 3 93.56961020557746 30.149951479268196 0.5832347107113572 -1 0 0
960 1 91.39445230869846 31.406961702086893 0.08087052283171493 -1 0 0
1049 3 91.3935371049597 33.91902065052119 0.5832347107113597 -1 0 0
968 1 100.09874471116846 31.406961702086893 0.08087052283171488 -1 0 0
966 3 97.92175640681246 30.149951479268196 0.5832347107113575 -1 0 0
964 1 95.74659850993346 31.40696170208689 0.08087052283171521 -1 0 0
1053 3 95.74568330619469 33.91902065052119 0.5832347107113608 -1 0 0
1057 3 100.09782950742971 33.91902065052119 0.5832347107113598 -1 0 0
1063 1 2.175455183380698 35.1760308733399 0.08087052283171178 0 0 0
1062 3 2.174539979642455 37.68808982177419 0.5832347107113571 0 0 0
1064 1 4.35152828399846 38.94510004459289 0.08087052283171298 0 0 0
1067 1 6.527601384615703 35.1760308733399 0.08087052283170999 0 0 0
1071 1 10.879747585850705 35.1760308733399 0.0808705228317105 0 0 0
1066 3 6.5266861808774586 37.6880898217742 0.5832347107113575 0 0 0
1070 3 10.87883238211246 37.6880898217742 0.583234710711357 0 0 0
1068 1 8.703674485233458 38.94510004459289 0.08087052283171549 0 0 0
1075 1 15.2318937870857 35.1760308733399 0.08087052283170834 0 0 0
1074 3 15.230978583347456 37.6880898217742 0.583234710711357 0 0 0
1072 1 13.055820686468463 38.94510004459289 0.08087052283171738 0 0 0
1076 1 17.407966887703463 38.94510004459289 0.08087052283171069 0 0 0
1079 1 19.584039988320704 35.1760308733399 0.08087052283170985 0 0 0
1078 3 19.583124784582463 37.6880898217742 0.5832347107113574 0 0 0
1080 1 21.760113088938454 38.94510004459289 0.08087052283171516 0 0 0
1083 1 23.936186189555702 35.1760308733399 0.0808705228317097 0 0 0
1087 1 28.2883323907907 35.1760308733399 0.08087052283171013 0 0 0
1082 3 23.935270985817457 37.68808982177419 0.5832347107113611 0 0 0
1086 3 28.28741718705245 37.6880898217742 0.5832347107113575 0 0 0
1084 1 26.11225929017346 38.94510004459289 0.08087052283171473 0 0 0