LAMMPS data file via write_data, version 29 Aug 2024, timestep = 0, units = metal

1196 atoms
2 atom types

0 100.099362628405 xlo xhi
0 97.995798452578 ylo yhi
0 15.66866486998 zlo zhi

Masses

1 114.818
2 74.921595

Atoms # atomic

600 1 4.973799150320701e-13 1.2563563904170039 0 0 0 0
602 2 2.1760731006175007 0 0.657076007443 0 0 0
604 1 4.352146201235499 1.2563563904170039 0 0 0 0
606 2 6.528219301852495 0 0.657076007443 0 0 0
608 1 8.7042924024705 1.2563563904170039 0 0 0 0
610 2 10.880365503087496 0 0.657076007443 0 0 0
612 1 13.056438603705502 1.2563563904170039 0 0 0 0
614 2 15.232511704322505 0 0.657076007443 0 0 0
616 1 17.408584804940503 1.2563563904170039 0 0 0 0
618 2 19.584657905557492 0 0.657076007443 0 0 0
620 1 21.760731006175504 1.2563563904170039 0 0 0 0
622 2 23.936804106792493 0 0.657076007443 0 0 0
624 1 26.11287720741049 1.2563563904170039 0 0 0 0
626 2 28.288950308027495 0 0.657076007443 0 0 0
628 1 30.465023408645493 1.2563563904170039 0 0 0 0
630 2 32.641096509262496 0 0.657076007443 0 0 0
632 1 34.817169609880494 1.2563563904170039 0 0 0 0
634 2 36.9932427104975 0 0.657076007443 0 0 0
636 1 39.169315811115496 1.2563563904170039 0 0 0 0
638 2 41.3453889117325 0 0.657076007443 0 0 0
640 1 43.5214620123505 1.2563563904170039 0 0 0 0
642 2 45.6975351129675 0 0.657076007443 0 0 0
644 1 47.8736082135855 1.2563563904170039 0 0 0 0
554 2 50.0496813142025 0 0.657076007443 -1 0 0
556 1 52.2257544148205 1.2563563904170039 0 -1 0 0
558 2 54.4018275154375 0 0.657076007443 -1 0 0
560 1 56.5779006160555 1.2563563904170039 0 -1 0 0
562 2 58.753973716672505 0 0.657076007443 -1 0 0
564 1 60.9300468172905 1.2563563904170039 0 -1 0 0
566 2 63.106119917907506 0 0.657076007443 -1 0 0
568 1 65.2821930185255 1.2563563904170039 0 -1 0 0
570 2 67.45826611914251 0 0.657076007443 -1 0 0
572 1 69.6343392197605 1.2563563904170039 0 -1 0 0
574 2 71.81041232037751 0 0.657076007443 -1 0 0
576 1 73.9864854209955 1.2563563904170039 0 -1 0 0
578 2 76.16255852161251 0 0.657076007443 -1 0 0
580 1 78.33863162223051 1.2563563904170039 0 -1 0 0
582 2 80.5147047228475 0 0.657076007443 -1 0 0
584 1 82.69077782346551 1.2563563904170039 0 -1 0 0
586 2 84.8668509240825 0 0.657076007443 -1 0 0
588 1 87.04292402470051 1.2563563904170039 0 -1 0 0
590 2 89.2189971253175 0 0.657076007443 -1 0 0
592 1 91.3950702259355 1.2563563904170039 0 -1 0 0
594 2 93.5711433265525 0 0.657076007443 -1 0 0
596 1 95.7472164271705 1.2563563904170039 0 -1 0 0
598 2 97.9232895277875 0 0.657076007443 -1 0 0
693 2 4.352146201234497 3.769069171253001 0.657076007443 0 0 0
697 2 8.704292402469498 3.769069171253001 0.657076007443 0 0 0
701 2 13.0564386037045 3.769069171253001 0.657076007443 0 0 0
705 2 17.408584804939494 3.769069171253001 0.657076007443 0 0 0
709 2 21.760731006174495 3.769069171253001 0.657076007443 0 0 0
713 2 26.112877207409497 3.769069171253001 0.657076007443 0 0 0
717 2 30.465023408644498 3.769069171253001 0.657076007443 0 0 0
721 2 34.8171696098795 3.769069171253001 0.657076007443 0 0 0
725 2 39.1693158111145 3.769069171253001 0.657076007443 0 0 0
729 2 43.5214620123495 3.769069171253001 0.657076007443 0 0 0
733 2 47.873608213584504 3.769069171253001 0.657076007443 0 0 0
645 2 52.225754414819505 3.769069171253001 0.657076007443 -1 0 0
649 2 56.5779006160545 3.769069171253001 0.657076007443 -1 0 0
653 2 60.9300468172895 3.769069171253001 0.657076007443 -1 0 0
657 2 65.28219301852451 3.769069171253001 0.657076007443 -1 0 0
661 2 69.6343392197595 3.769069171253001 0.657076007443 -1 0 0
665 2 73.9864854209945 3.769069171253001 0.657076007443 -1 0 0
669 2 78.3386316222295 3.769069171253001 0.657076007443 -1 0 0
673 2 82.6907778234645 3.769069171253001 0.657076007443 -1 0 0
677 2 87.0429240246995 3.769069171253001 0.657076007443 -1 0 0
681 2 91.3950702259345 3.769069171253001 0.657076007443 -1 0 0
685 2 95.7472164271695 3.769069171253001 0.657076007443 -1 0 0
689 2 100.09936262840449 3.769069171253001 0.657076007443 -1 0 0
695 1 2.1760731006175007 5.025425561669998 0 0 0 0
699 1 6.528219301852495 5.025425561669998 0 0 0 0
703 1 10.880365503087496 5.025425561669998 0 0 0 0
707 1 15.232511704322505 5.025425561669998 0 0 0 0
711 1 19.584657905557492 5.025425561669998 0 0 0 0
715 1 23.936804106792493 5.025425561669998 0 0 0 0
719 1 28.288950308027495 5.025425561669998 0 0 0 0
723 1 32.641096509262496 5.025425561669998 0 0 0 0
727 1 36.9932427104975 5.025425561669998 0 0 0 0
731 1 41.3453889117325 5.025425561669998 0 0 0 0
735 1 45.6975351129675 5.025425561669998 0 0 0 0
647 1 50.0496813142025 5.025425561669998 0 -1 0 0
651 1 54.4018275154375 5.025425561669998 0 -1 0 0
655 1 58.753973716672505 5.025425561669998 0 -1 0 0
659 1 63.106119917907506 5.025425561669998 0 -1 0 0
663 1 67.45826611914251 5.025425561669998 0 -1 0 0
667 1 71.81041232037751 5.025425561669998 0 -1 0 0
671 1 76.16255852161251 5.025425561669998 0 -1 0 0
675 1 80.5147047228475 5.025425561669998 0 -1 0 0
679 1 84.8668509240825 5.025425561669998 0 -1 0 0
683 1 89.2189971253175 5.025425561669998 0 -1 0 0
687 1 93.5711433265525 5.025425561669998 0 -1 0 0
691 1 97.9232895277875 5.025425561669998 0 -1 0 0
694 2 2.1760731006175007 7.538138342506002 0.657076007443 0 0 0
698 2 6.528219301852495 7.538138342506002 0.657076007443 0 0 0
702 2 10.880365503087496 7.538138342506002 0.657076007443 0 0 0
706 2 15.232511704322505 7.538138342506002 0.657076007443 0 0 0
710 2 19.584657905557492 7.538138342506002 0.657076007443 0 0 0
714 2 23.936804106792493 7.538138342506002 0.657076007443 0 0 0
718 2 28.288950308027495 7.538138342506002 0.657076007443 0 0 0
722 2 32.641096509262496 7.538138342506002 0.657076007443 0 0 0
726 2 36.9932427104975 7.538138342506002 0.657076007443 0 0 0
730 2 41.3453889117325 7.538138342506002 0.657076007443 0 0 0
734 2 45.6975351129675 7.538138342506002 0.657076007443 0 0 0
646 2 50.0496813142025 7.538138342506002 0.657076007443 -1 0 0
650 2 54.4018275154375 7.538138342506002 0.657076007443 -1 0 0
654 2 58.753973716672505 7.538138342506002 0.657076007443 -1 0 0
658 2 63.106119917907506 7.538138342506002 0.657076007443 -1 0 0
662 2 67.45826611914251 7.538138342506002 0.657076007443 -1 0 0
666 2 71.81041232037751 7.538138342506002 0.657076007443 -1 0 0
670 2 76.16255852161251 7.538138342506002 0.657076007443 -1 0 0
674 2 80.5147047228475 7.538138342506002 0.657076007443 -1 0 0
678 2 84.8668509240825 7.538138342506002 0.657076007443 -1 0 0
682 2 89.2189971253175 7.538138342506002 0.657076007443 -1 0 0
686 2 93.5711433265525 7.538138342506002 0.657076007443 -1 0 0
690 2 97.9232895277875 7.538138342506002 0.657076007443 -1 0 0
692 1 4.973799150320701e-13 8.794494732922999 0 0 0 0
696 1 4.352146201235499 8.794494732922999 0 0 0 0
700 1 8.7042924024705 8.794494732922999 0 0 0 0
704 1 13.056438603705502 8.794494732922999 0 0 0 0
708 1 17.408584804940503 8.794494732922999 0 0 0 0
712 1 21.760731006175504 8.794494732922999 0 0 0 0
716 1 26.11287720741049 8.794494732922999 0 0 0 0
720 1 30.465023408645493 8.794494732922999 0 0 0 0
724 1 34.817169609880494 8.794494732922999 0 0 0 0
728 1 39.169315811115496 8.794494732922999 0 0 0 0
732 1 43.5214620123505 8.794494732922999 0 0 0 0
736 1 47.8736082135855 8.794494732922999 0 0 0 0
648 1 52.2257544148205 8.794494732922999 0 -1 0 0
652 1 56.5779006160555 8.794494732922999 0 -1 0 0
656 1 60.9300468172905 8.794494732922999 0 -1 0 0
660 1 65.2821930185255 8.794494732922999 0 -1 0 0
664 1 69.6343392197605 8.794494732922999 0 -1 0 0
668 1 73.9864854209955 8.794494732922999 0 -1 0 0
672 1 78.33863162223051 8.794494732922999 0 -1 0 0
676 1 82.69077782346551 8.794494732922999 0 -1 0 0
680 1 87.04292402470051 8.794494732922999 0 -1 0 0
684 1 91.3950702259355 8.794494732922999 0 -1 0 0
688 1 95.7472164271705 8.794494732922999 0 -1 0 0
785 2 4.352146201234497 11.307207513759003 0.657076007443 0 0 0
789 2 8.704292402469498 11.307207513759003 0.657076007443 0 0 0
793 2 13.0564386037045 11.307207513759003 0.657076007443 0 0 0
797 2 17.408584804939494 11.307207513759003 0.657076007443 0 0 0
801 2 21.760731006174495 11.307207513759003 0.657076007443 0 0 0
805 2 26.112877207409497 11.307207513759003 0.657076007443 0 0 0
809 2 30.465023408644498 11.307207513759003 0.657076007443 0 0 0
813 2 34.8171696098795 11.307207513759003 0.657076007443 0 0 0
817 2 39.1693158111145 11.307207513759003 0.657076007443 0 0 0
821 2 43.5214620123495 11.307207513759003 0.657076007443 0 0 0
825 2 47.873608213584504 11.307207513759003 0.657076007443 0 0 0
737 2 52.225754414819505 11.307207513759003 0.657076007443 -1 0 0
741 2 56.5779006160545 11.307207513759003 0.657076007443 -1 0 0
745 2 60.9300468172895 11.307207513759003 0.657076007443 -1 0 0
749 2 65.28219301852451 11.307207513759003 0.657076007443 -1 0 0
753 2 69.6343392197595 11.307207513759003 0.657076007443 -1 0 0
757 2 73.9864854209945 11.307207513759003 0.657076007443 -1 0 0
761 2 78.3386316222295 11.307207513759003 0.657076007443 -1 0 0
765 2 82.6907778234645 11.307207513759003 0.657076007443 -1 0 0
769 2 87.0429240246995 11.307207513759003 0.657076007443 -1 0 0
773 2 91.3950702259345 11.307207513759003 0.657076007443 -1 0 0
777 2 95.7472164271695 11.307207513759003 0.657076007443 -1 0 0
781 2 100.09936262840449 11.307207513759003 0.657076007443 -1 0 0
787 1 2.1760731006175007 12.563563904176 0 0 0 0
791 1 6.528219301852495 12.563563904176 0 0 0 0
795 1 10.880365503087496 12.563563904176 0 0 0 0
799 1 15.232511704322505 12.563563904176 0 0 0 0
803 1 19.584657905557492 12.563563904176 0 0 0 0
807 1 23.936804106792493 12.563563904176 0 0 0 0
811 1 28.288950308027495 12.563563904176 0 0 0 0
815 1 32.641096509262496 12.563563904176 0 0 0 0
819 1 36.9932427104975 12.563563904176 0 0 0 0
823 1 41.3453889117325 12.563563904176 0 0 0 0
827 1 45.6975351129675 12.563563904176 0 0 0 0
739 1 50.0496813142025 12.563563904176 0 -1 0 0
743 1 54.4018275154375 12.563563904176 0 -1 0 0
747 1 58.753973716672505 12.563563904176 0 -1 0 0
751 1 63.106119917907506 12.563563904176 0 -1 0 0
755 1 67.45826611914251 12.563563904176 0 -1 0 0
759 1 71.81041232037751 12.563563904176 0 -1 0 0
763 1 76.16255852161251 12.563563904176 0 -1 0 0
767 1 80.5147047228475 12.563563904176 0 -1 0 0
771 1 84.8668509240825 12.563563904176 0 -1 0 0
775 1 89.2189971253175 12.563563904176 0 -1 0 0
779 1 93.5711433265525 12.563563904176 0 -1 0 0
783 1 97.9232895277875 12.563563904176 0 -1 0 0
784 1 4.973799150320701e-13 16.332633075429 0 0 0 0
786 2 2.1760731006175007 15.076276685012004 0.657076007443 0 0 0
788 1 4.352146201235499 16.332633075429 0 0 0 0
790 2 6.528219301852495 15.076276685012004 0.657076007443 0 0 0
792 1 8.7042924024705 16.332633075429 0 0 0 0
794 2 10.880365503087496 15.076276685012004 0.657076007443 0 0 0
796 1 13.056438603705502 16.332633075429 0 0 0 0
798 2 15.232511704322505 15.076276685012004 0.657076007443 0 0 0
800 1 17.408584804940503 16.332633075429 0 0 0 0
802 2 19.584657905557492 15.076276685012004 0.657076007443 0 0 0
804 1 21.760731006175504 16.332633075429 0 0 0 0
806 2 23.936804106792493 15.076276685012004 0.657076007443 0 0 0
808 1 26.11287720741049 16.332633075429 0 0 0 0
810 2 28.288950308027495 15.076276685012004 0.657076007443 0 0 0
812 1 30.465023408645493 16.332633075429 0 0 0 0
814 2 32.641096509262496 15.076276685012004 0.657076007443 0 0 0
816 1 34.817169609880494 16.332633075429 0 0 0 0
818 2 36.9932427104975 15.076276685012004 0.657076007443 0 0 0
820 1 39.169315811115496 16.332633075429 0 0 0 0
822 2 41.3453889117325 15.076276685012004 0.657076007443 0 0 0
824 1 43.5214620123505 16.332633075429 0 0 0 0
826 2 45.6975351129675 15.076276685012004 0.657076007443 0 0 0
828 1 47.8736082135855 16.332633075429 0 0 0 0
738 2 50.0496813142025 15.076276685012004 0.657076007443 -1 0 0
740 1 52.2257544148205 16.332633075429 0 -1 0 0
742 2 54.4018275154375 15.076276685012004 0.657076007443 -1 0 0
744 1 56.5779006160555 16.332633075429 0 -1 0 0
746 2 58.753973716672505 15.076276685012004 0.657076007443 -1 0 0
748 1 60.9300468172905 16.332633075429 0 -1 0 0
750 2 63.106119917907506 15.076276685012004 0.657076007443 -1 0 0
752 1 65.2821930185255 16.332633075429 0 -1 0 0
754 2 67.45826611914251 15.076276685012004 0.657076007443 -1 0 0
756 1 69.6343392197605 16.332633075429 0 -1 0 0
758 2 71.81041232037751 15.076276685012004 0.657076007443 -1 0 0
760 1 73.9864854209955 16.332633075429 0 -1 0 0
762 2 76.16255852161251 15.076276685012004 0.657076007443 -1 0 0
764 1 78.33863162223051 16.332633075429 0 -1 0 0
766 2 80.5147047228475 15.076276685012004 0.657076007443 -1 0 0
768 1 82.69077782346551 16.332633075429 0 -1 0 0
770 2 84.8668509240825 15.076276685012004 0.657076007443 -1 0 0
772 1 87.04292402470051 16.332633075429 0 -1 0 0
774 2 89.2189971253175 15.076276685012004 0.657076007443 -1 0 0
776 1 91.3950702259355 16.332633075429 0 -1 0 0
778 2 93.5711433265525 15.076276685012004 0.657076007443 -1 0 0
780 1 95.7472164271705 16.332633075429 0 -1 0 0
782 2 97.9232895277875 15.076276685012004 0.657076007443 -1 0 0
879 1 2.1760731006175007 20.101702246681995 0 0 0 0
877 2 4.352146201234497 18.845345856265 0.657076007443 0 0 0
883 1 6.528219301852495 20.101702246681995 0 0 0 0
881 2 8.704292402469498 18.845345856265 0.657076007443 0 0 0
887 1 10.880365503087496 20.101702246681995 0 0 0 0
885 2 13.0564386037045 18.845345856265 0.657076007443 0 0 0
891 1 15.232511704322505 20.101702246681995 0 0 0 0
889 2 17.408584804939494 18.845345856265 0.657076007443 0 0 0
895 1 19.584657905557492 20.101702246681995 0 0 0 0
893 2 21.760731006174495 18.845345856265 0.657076007443 0 0 0
899 1 23.936804106792493 20.101702246681995 0 0 0 0
897 2 26.112877207409497 18.845345856265 0.657076007443 0 0 0
903 1 28.288950308027495 20.101702246681995 0 0 0 0
901 2 30.465023408644498 18.845345856265 0.657076007443 0 0 0
907 1 32.641096509262496 20.101702246681995 0 0 0 0
905 2 34.8171696098795 18.845345856265 0.657076007443 0 0 0
911 1 36.9932427104975 20.101702246681995 0 0 0 0
909 2 39.1693158111145 18.845345856265 0.657076007443 0 0 0
915 1 41.3453889117325 20.101702246681995 0 0 0 0
913 2 43.5214620123495 18.845345856265 0.657076007443 0 0 0
919 1 45.6975351129675 20.101702246681995 0 0 0 0
917 2 47.873608213584504 18.845345856265 0.657076007443 0 0 0
831 1 50.0496813142025 20.101702246681995 0 -1 0 0
829 2 52.225754414819505 18.845345856265 0.657076007443 -1 0 0
835 1 54.4018275154375 20.101702246681995 0 -1 0 0
833 2 56.5779006160545 18.845345856265 0.657076007443 -1 0 0
839 1 58.753973716672505 20.101702246681995 0 -1 0 0
837 2 60.9300468172895 18.845345856265 0.657076007443 -1 0 0
843 1 63.106119917907506 20.101702246681995 0 -1 0 0
841 2 65.28219301852451 18.845345856265 0.657076007443 -1 0 0
847 1 67.45826611914251 20.101702246681995 0 -1 0 0
845 2 69.6343392197595 18.845345856265 0.657076007443 -1 0 0
851 1 71.81041232037751 20.101702246681995 0 -1 0 0
849 2 73.9864854209945 18.845345856265 0.657076007443 -1 0 0
855 1 76.16255852161251 20.101702246681995 0 -1 0 0
853 2 78.3386316222295 18.845345856265 0.657076007443 -1 0 0
859 1 80.5147047228475 20.101702246681995 0 -1 0 0
857 2 82.6907778234645 18.845345856265 0.657076007443 -1 0 0
863 1 84.8668509240825 20.101702246681995 0 -1 0 0
861 2 87.0429240246995 18.845345856265 0.657076007443 -1 0 0
867 1 89.2189971253175 20.101702246681995 0 -1 0 0
865 2 91.3950702259345 18.845345856265 0.657076007443 -1 0 0
871 1 93.5711433265525 20.101702246681995 0 -1 0 0
869 2 95.7472164271695 18.845345856265 0.657076007443 -1 0 0
875 1 97.9232895277875 20.101702246681995 0 -1 0 0
873 2 100.09936262840449 18.845345856265 0.657076007443 -1 0 0
876 1 4.973799150320701e-13 23.870771417935003 0 0 0 0
878 2 2.1760731006175007 22.614415027518007 0.657076007443 0 0 0
880 1 4.352146201235499 23.870771417935003 0 0 0 0
882 2 6.528219301852495 22.614415027518007 0.657076007443 0 0 0
884 1 8.7042924024705 23.870771417935003 0 0 0 0
886 2 10.880365503087496 22.614415027518007 0.657076007443 0 0 0
888 1 13.056438603705502 23.870771417935003 0 0 0 0
890 2 15.232511704322505 22.614415027518007 0.657076007443 0 0 0
892 1 17.408584804940503 23.870771417935003 0 0 0 0
894 2 19.584657905557492 22.614415027518007 0.657076007443 0 0 0
896 1 21.760731006175504 23.870771417935003 0 0 0 0
898 2 23.936804106792493 22.614415027518007 0.657076007443 0 0 0
900 1 26.11287720741049 23.870771417935003 0 0 0 0
902 2 28.288950308027495 22.614415027518007 0.657076007443 0 0 0
904 1 30.465023408645493 23.870771417935003 0 0 0 0
906 2 32.641096509262496 22.614415027518007 0.657076007443 0 0 0
908 1 34.817169609880494 23.870771417935003 0 0 0 0
910 2 36.9932427104975 22.614415027518007 0.657076007443 0 0 0
912 1 39.169315811115496 23.870771417935003 0 0 0 0
914 2 41.3453889117325 22.614415027518007 0.657076007443 0 0 0
916 1 43.5214620123505 23.870771417935003 0 0 0 0
918 2 45.6975351129675 22.614415027518007 0.657076007443 0 0 0
920 1 47.8736082135855 23.870771417935003 0 0 0 0
830 2 50.0496813142025 22.614415027518007 0.657076007443 -1 0 0
832 1 52.2257544148205 23.870771417935003 0 -1 0 0
834 2 54.4018275154375 22.614415027518007 0.657076007443 -1 0 0
836 1 56.5779006160555 23.870771417935003 0 -1 0 0
838 2 58.753973716672505 22.614415027518007 0.657076007443 -1 0 0
840 1 60.9300468172905 23.870771417935003 0 -1 0 0
842 2 63.106119917907506 22.614415027518007 0.657076007443 -1 0 0
844 1 65.2821930185255 23.870771417935003 0 -1 0 0
846 2 67.45826611914251 22.614415027518007 0.657076007443 -1 0 0
848 1 69.6343392197605 23.870771417935003 0 -1 0 0
850 2 71.81041232037751 22.614415027518007 0.657076007443 -1 0 0
852 1 73.9864854209955 23.870771417935003 0 -1 0 0
854 2 76.16255852161251 22.614415027518007 0.657076007443 -1 0 0
856 1 78.33863162223051 23.870771417935003 0 -1 0 0
858 2 80.5147047228475 22.614415027518007 0.657076007443 -1 0 0
860 1 82.69077782346551 23.870771417935003 0 -1 0 0
862 2 84.8668509240825 22.614415027518007 0.657076007443 -1 0 0
864 1 87.04292402470051 23.870771417935003 0 -1 0 0
866 2 89.2189971253175 22.614415027518007 0.657076007443 -1 0 0
868 1 91.3950702259355 23.870771417935003 0 -1 0 0
870 2 93.5711433265525 22.614415027518007 0.657076007443 -1 0 0
872 1 95.7472164271705 23.870771417935003 0 -1 0 0
874 2 97.9232895277875 22.614415027518007 0.657076007443 -1 0 0
969 2 4.352146201234497 26.383484198771 0.657076007443 0 0 0
973 2 8.704292402469498 26.383484198771 0.657076007443 0 0 0
977 2 13.0564386037045 26.383484198771 0.657076007443 0 0 0
981 2 17.408584804939494 26.383484198771 0.657076007443 0 0 0
985 2 21.760731006174495 26.383484198771 0.657076007443 0 0 0
989 2 26.112877207409497 26.383484198771 0.657076007443 0 0 0
993 2 30.465023408644498 26.383484198771 0.657076007443 0 0 0
997 2 34.8171696098795 26.383484198771 0.657076007443 0 0 0
1001 2 39.1693158111145 26.383484198771 0.657076007443 0 0 0
1005 2 43.5214620123495 26.383484198771 0.657076007443 0 0 0
1009 2 47.873608213584504 26.383484198771 0.657076007443 0 0 0
921 2 52.225754414819505 26.383484198771 0.657076007443 -1 0 0
925 2 56.5779006160545 26.383484198771 0.657076007443 -1 0 0
929 2 60.9300468172895 26.383484198771 0.657076007443 -1 0 0
933 2 65.28219301852451 26.383484198771 0.657076007443 -1 0 0
937 2 69.6343392197595 26.383484198771 0.657076007443 -1 0 0
941 2 73.9864854209945 26.383484198771 0.657076007443 -1 0 0
945 2 78.3386316222295 26.383484198771 0.657076007443 -1 0 0
949 2 82.6907778234645 26.383484198771 0.657076007443 -1 0 0
953 2 87.0429240246995 26.383484198771 0.657076007443 -1 0 0
957 2 91.3950702259345 26.383484198771 0.657076007443 -1 0 0
961 2 95.7472164271695 26.383484198771 0.657076007443 -1 0 0
965 2 100.09936262840449 26.383484198771 0.657076007443 -1 0 0
971 1 2.1760731006175007 27.639840589187997 0 0 0 0
975 1 6.528219301852495 27.639840589187997 0 0 0 0
979 1 10.880365503087496 27.639840589187997 0 0 0 0
983 1 15.232511704322505 27.639840589187997 0 0 0 0
987 1 19.584657905557492 27.639840589187997 0 0 0 0
991 1 23.936804106792493 27.639840589187997 0 0 0 0
995 1 28.288950308027495 27.639840589187997 0 0 0 0
999 1 32.641096509262496 27.639840589187997 0 0 0 0
1003 1 36.9932427104975 27.639840589187997 0 0 0 0
1007 1 41.3453889117325 27.639840589187997 0 0 0 0
1011 1 45.6975351129675 27.639840589187997 0 0 0 0
923 1 50.0496813142025 27.639840589187997 0 -1 0 0
927 1 54.4018275154375 27.639840589187997 0 -1 0 0
931 1 58.753973716672505 27.639840589187997 0 -1 0 0
935 1 63.106119917907506 27.639840589187997 0 -1 0 0
939 1 67.45826611914251 27.639840589187997 0 -1 0 0
943 1 71.81041232037751 27.639840589187997 0 -1 0 0
947 1 76.16255852161251 27.639840589187997 0 -1 0 0
951 1 80.5147047228475 27.639840589187997 0 -1 0 0
955 1 84.8668509240825 27.639840589187997 0 -1 0 0
959 1 89.2189971253175 27.639840589187997 0 -1 0 0
963 1 93.5711433265525 27.639840589187997 0 -1 0 0
967 1 97.9232895277875 27.639840589187997 0 -1 0 0
970 2 2.1760731006175007 30.152553370023995 0.657076007443 0 0 0
974 2 6.528219301852495 30.152553370023995 0.657076007443 0 0 0
978 2 10.880365503087496 30.152553370023995 0.657076007443 0 0 0
982 2 15.232511704322505 30.152553370023995 0.657076007443 0 0 0
986 2 19.584657905557492 30.152553370023995 0.657076007443 0 0 0
990 2 23.936804106792493 30.152553370023995 0.657076007443 0 0 0
994 2 28.288950308027495 30.152553370023995 0.657076007443 0 0 0
998 2 32.641096509262496 30.152553370023995 0.657076007443 0 0 0
1002 2 36.9932427104975 30.152553370023995 0.657076007443 0 0 0
1006 2 41.3453889117325 30.152553370023995 0.657076007443 0 0 0
1010 2 45.6975351129675 30.152553370023995 0.657076007443 0 0 0
922 2 50.0496813142025 30.152553370023995 0.657076007443 -1 0 0
926 2 54.4018275154375 30.152553370023995 0.657076007443 -1 0 0
930 2 58.753973716672505 30.152553370023995 0.657076007443 -1 0 0
934 2 63.106119917907506 30.152553370023995 0.657076007443 -1 0 0
938 2 67.45826611914251 30.152553370023995 0.657076007443 -1 0 0
942 2 71.81041232037751 30.152553370023995 0.657076007443 -1 0 0
946 2 76.16255852161251 30.152553370023995 0.657076007443 -1 0 0
950 2 80.5147047228475 30.152553370023995 0.657076007443 -1 0 0
954 2 84.8668509240825 30.152553370023995 0.657076007443 -1 0 0
958 2 89.2189971253175 30.152553370023995 0.657076007443 -1 0 0
962 2 93.5711433265525 30.152553370023995 0.657076007443 -1 0 0
966 2 97.9232895277875 30.152553370023995 0.657076007443 -1 0 0
968 1 4.973799150320701e-13 31.408909760441006 0 0 0 0
972 1 4.352146201235499 31.408909760441006 0 0 0 0
976 1 8.7042924024705 31.408909760441006 0 0 0 0
980 1 13.056438603705502 31.408909760441006 0 0 0 0
984 1 17.408584804940503 31.408909760441006 0 0 0 0
988 1 21.760731006175504 31.408909760441006 0 0 0 0
992 1 26.11287720741049 31.408909760441006 0 0 0 0
996 1 30.465023408645493 31.408909760441006 0 0 0 0
1000 1 34.817169609880494 31.408909760441006 0 0 0 0
1004 1 39.169315811115496 31.408909760441006 0 0 0 0
1008 1 43.5214620123505 31.408909760441006 0 0 0 0
1012 1 47.8736082135855 31.408909760441006 0 0 0 0
924 1 52.2257544148205 31.408909760441006 0 -1 0 0
928 1 56.5779006160555 31.408909760441006 0 -1 0 0
932 1 60.9300468172905 31.408909760441006 0 -1 0 0
936 1 65.2821930185255 31.408909760441006 0 -1 0 0
940 1 69.6343392197605 31.408909760441006 0 -1 0 0
944 1 73.9864854209955 31.408909760441006 0 -1 0 0
948 1 78.33863162223051 31.408909760441006 0 -1 0 0
952 1 82.69077782346551 31.408909760441006 0 -1 0 0
956 1 87.04292402470051 31.408909760441006 0 -1 0 0
960 1 91.3950702259355 31.408909760441006 0 -1 0 0
964 1 95.7472164271705 31.408909760441006 0 -1 0 0
1061 2 4.352146201234497 33.921622541277 0.657076007443 0 0 0
1065 2 8.704292402469498 33.921622541277 0.657076007443 0 0 0
1069 2 13.0564386037045 33.921622541277 0.657076007443 0 0 0
1073 2 17.408584804939494 33.921622541277 0.657076007443 0 0 0
1077 2 21.760731006174495 33.921622541277 0.657076007443 0 0 0
1081 2 26.112877207409497 33.921622541277 0.657076007443 0 0 0
1085 2 30.465023408644498 33.921622541277 0.657076007443 0 0 0
1089 2 34.8171696098795 33.921622541277 0.657076007443 0 0 0
1093 2 39.1693158111145 33.921622541277 0.657076007443 0 0 0
1097 2 43.5214620123495 33.921622541277 0.657076007443 0 0 0
1101 2 47.873608213584504 33.921622541277 0.657076007443 0 0 0
1013 2 52.225754414819505 33.921622541277 0.657076007443 -1 0 0
1017 2 56.5779006160545 33.921622541277 0.657076007443 -1 0 0
1021 2 60.9300468172895 33.921622541277 0.657076007443 -1 0 0
1025 2 65.28219301852451 33.921622541277 0.657076007443 -1 0 0
1029 2 69.6343392197595 33.921622541277 0.657076007443 -1 0 0
1033 2 73.9864854209945 33.921622541277 0.657076007443 -1 0 0
1037 2 78.3386316222295 33.921622541277 0.657076007443 -1 0 0
1041 2 82.6907778234645 33.921622541277 0.657076007443 -1 0 0
1045 2 87.0429240246995 33.921622541277 0.657076007443 -1 0 0
1049 2 91.3950702259345 33.921622541277 0.657076007443 -1 0 0
1053 2 95.7472164271695 33.921622541277 0.657076007443 -1 0 0
1057 2 100.09936262840449 33.921622541277 0.657076007443 -1 0 0
1063 1 2.1760731006175007 35.177978931694 0 0 0 0
1067 1 6.528219301852495 35.177978931694 0 0 0 0
1071 1 10.880365503087496 35.177978931694 0 0 0 0
1075 1 15.232511704322505 35.177978931694 0 0 0 0
1079 1 19.584657905557492 35.177978931694 0 0 0 0
1083 1 23.936804106792493 35.177978931694 0 0 0 0
1087 1 28.288950308027495 35.177978931694 0 0 0 0
1091 1 32.641096509262496 35.177978931694 0 0 0 0
1095 1 36.9932427104975 35.177978931694 0 0 0 0
1099 1 41.3453889117325 35.177978931694 0 0 0 0
1103 1 45.6975351129675 35.177978931694 0 0 0 0
1015 1 50.0496813142025 35.177978931694 0 -1 0 0
1019 1 54.4018275154375 35.177978931694 0 -1 0 0
1023 1 58.753973716672505 35.177978931694 0 -1 0 0
1027 1 63.106119917907506 35.177978931694 0 -1 0 0
1031 1 67.45826611914251 35.177978931694 0 -1 0 0
1035 1 71.81041232037751 35.177978931694 0 -1 0 0
1039 1 76.16255852161251 35.177978931694 0 -1 0 0
1043 1 80.5147047228475 35.177978931694 0 -1 0 0
1047 1 84.8668509240825 35.177978931694 0 -1 0 0
1051 1 89.2189971253175 35.177978931694 0 -1 0 0
1055 1 93.5711433265525 35.177978931694 0 -1 0 0
1059 1 97.9232895277875 35.177978931694 0 -1 0 0
1062 2 2.1760731006175007 37.69069171253 0.657076007443 0 0 0
1066 2 6.528219301852495 37.69069171253 0.657076007443 0 0 0
1070 2 10.880365503087496 37.69069171253 0.657076007443 0 0 0
1074 2 15.232511704322505 37.69069171253 0.657076007443 0 0 0
1078 2 19.584657905557492 37.69069171253 0.657076007443 0 0 0
1082 2 23.936804106792493 37.69069171253 0.657076007443 0 0 0
1086 2 28.288950308027495 37.69069171253 0.657076007443 0 0 0
1090 2 32.641096509262496 37.69069171253 0.657076007443 0 0 0
1094 2 36.9932427104975 37.69069171253 0.657076007443 0 0 0
1098 2 41.3453889117325 37.69069171253 0.657076007443 0 0 0
1102 2 45.6975351129675 37.69069171253 0.657076007443 0 0 0
1014 2 50.0496813142025 37.69069171253 0.657076007443 -1 0 0
1018 2 54.4018275154375 37.69069171253 0.657076007443 -1 0 0
1022 2 58.753973716672505 37.69069171253 0.657076007443 -1 0 0
1026 2 63.106119917907506 37.69069171253 0.657076007443 -1 0 0
1030 2 67.45826611914251 37.69069171253 0.657076007443 -1 0 0
1034 2 71.81041232037751 37.69069171253 0.657076007443 -1 0 0
1038 2 76.16255852161251 37.69069171253 0.657076007443 -1 0 0
1042 2 80.5147047228475 37.69069171253 0.657076007443 -1 0 0
1046 2 84.8668509240825 37.69069171253 0.657076007443 -1 0 0
1050 2 89.2189971253175 37.69069171253 0.657076007443 -1 0 0
1054 2 93.5711433265525 37.69069171253 0.657076007443 -1 0 0
1058 2 97.9232895277875 37.69069171253 0.657076007443 -1 0 0
1060 1 4.973799150320701e-13 38.94704810294701 0 0 0 0
1064 1 4.352146201235499 38.94704810294701 0 0 0 0
1068 1 8.7042924024705 38.94704810294701 0 0 0 0
1072 1 13.056438603705502 38.94704810294701 0 0 0 0
1076 1 17.408584804940503 38.94704810294701 0 0 0 0
1080 1 21.760731006175504 38.94704810294701 0 0 0 0
1084 1 26.11287720741049 38.94704810294701 0 0 0 0
1088 1 30.465023408645493 38.94704810294701 0 0 0 0
1092 1 34.817169609880494 38.94704810294701 0 0 0 0
1096 1 39.169315811115496 38.94704810294701 0 0 0 0
1100 1 43.5214620123505 38.94704810294701 0 0 0 0
1104 1 47.8736082135855 38.94704810294701 0 0 0 0
1016 1 52.2257544148205 38.94704810294701 0 -1 0 0
1020 1 56.5779006160555 38.94704810294701 0 -1 0 0
1024 1 60.9300468172905 38.94704810294701 0 -1 0 0
1028 1 65.2821930185255 38.94704810294701 0 -1 0 0
1032 1 69.6343392197605 38.94704810294701 0 -1 0 0
1036 1 73.9864854209955 38.94704810294701 0 -1 0 0
1040 1 78.33863162223051 38.94704810294701 0 -1 0 0
1044 1 82.69077782346551 38.94704810294701 0 -1 0 0
1048 1 87.04292402470051 38.94704810294701 0 -1 0 0
1052 1 91.3950702259355 38.94704810294701 0 -1 0 0
1056 1 95.7472164271705 38.94704810294701 0 -1 0 0
1155 1 2.1760731006175007 42.7161172742 0 0 0 0
1153 2 4.352146201234497 41.459760883783005 0.657076007443 0 0 0
1159 1 6.528219301852495 42.7161172742 0 0 0 0
1157 2 8.704292402469498 41.459760883783005 0.657076007443 0 0 0
1163 1 10.880365503087496 42.7161172742 0 0 0 0
1161 2 13.0564386037045 41.459760883783005 0.657076007443 0 0 0
1167 1 15.232511704322505 42.7161172742 0 0 0 0
1165 2 17.408584804939494 41.459760883783005 0.657076007443 0 0 0
1171 1 19.584657905557492 42.7161172742 0 0 0 0
1169 2 21.760731006174495 41.459760883783005 0.657076007443 0 0 0
1175 1 23.936804106792493 42.7161172742 0 0 0 0
1173 2 26.112877207409497 41.459760883783005 0.657076007443 0 0 0
1179 1 28.288950308027495 42.7161172742 0 0 0 0
1177 2 30.465023408644498 41.459760883783005 0.657076007443 0 0 0
1183 1 32.641096509262496 42.7161172742 0 0 0 0
1181 2 34.8171696098795 41.459760883783005 0.657076007443 0 0 0
1187 1 36.9932427104975 42.7161172742 0 0 0 0
1185 2 39.1693158111145 41.459760883783005 0.657076007443 0 0 0
1191 1 41.3453889117325 42.7161172742 0 0 0 0
1189 2 43.5214620123495 41.459760883783005 0.657076007443 0 0 0
1195 1 45.6975351129675 42.7161172742 0 0 0 0
1193 2 47.873608213584504 41.459760883783005 0.657076007443 0 0 0
1107 1 50.0496813142025 42.7161172742 0 -1 0 0
1105 2 52.225754414819505 41.459760883783005 0.657076007443 -1 0 0