LAMMPS data file via write_data, version 29 Aug 2024, timestep = 3, units = metal

3588 atoms
6 atom types

0 100.099362628405 xlo xhi
0 97.995798452578 ylo yhi
-50 50 zlo zhi

Masses

1 114.818
2 114.818
3 114.818
4 74.921595
5 74.921595
6 74.921595

Atoms # atomic

604 1 4.350050992277032 1.2526547309026714 0.08157877885914082 0 0 0
693 4 4.351891823736534 3.766879449829137 0.5928565201896703 0 0 0
695 1 2.173977891659355 5.0217239021556725 0.08157877885913893 0 0 0
608 1 8.702197193512038 1.2526547309026737 0.08157877885914118 0 0 0
697 4 8.704038024971538 3.7668794498291347 0.5928565201896702 0 0 0
699 1 6.526124092894339 5.021723902155666 0.08157877885914004 0 0 0
703 1 10.87827029412934 5.021723902155667 0.08157877885914036 0 0 0
612 1 13.05434339474703 1.2526547309026783 0.08157877885914176 0 0 0
616 1 17.406489595982038 1.2526547309026708 0.08157877885913924 0 0 0
701 4 13.056184226206534 3.7668794498291316 0.5928565201896695 0 0 0
705 4 17.408330427441527 3.766879449829139 0.592856520189672 0 0 0
707 1 15.23041649536435 5.0217239021556646 0.08157877885913922 0 0 0
620 1 21.758635797217046 1.2526547309026759 0.08157877885913976 0 0 0
709 4 21.760476628676532 3.7668794498291334 0.5928565201896705 0 0 0
711 1 19.58256269659934 5.021723902155666 0.08157877885913886 0 0 0
624 1 26.110781998452023 1.2526547309026728 0.08157877885914121 0 0 0
713 4 26.112622829911537 3.7668794498291347 0.5928565201896698 0 0 0
715 1 23.934708897834337 5.021723902155667 0.08157877885913876 0 0 0
719 1 28.28685509906933 5.021723902155666 0.08157877885914049 0 0 0
628 1 30.46292819968702 1.2526547309026748 0.0815787788591406 0 0 0
632 1 34.81507440092202 1.2526547309026734 0.08157877885914155 0 0 0
717 4 30.46476903114654 3.766879449829135 0.5928565201896698 0 0 0
721 4 34.81691523238154 3.766879449829135 0.5928565201896697 0 0 0
723 1 32.639001300304336 5.021723902155667 0.08157877885914047 0 0 0
636 1 39.16722060215702 1.2526547309026734 0.0815787788591415 0 0 0
725 4 39.16906143361654 3.766879449829135 0.5928565201896698 0 0 0
727 1 36.99114750153934 5.021723902155666 0.08157877885914046 0 0 0
640 1 43.519366803392025 1.2526547309026734 0.08157877885914146 0 0 0
729 4 43.52120763485154 3.766879449829135 0.5928565201896696 0 0 0
731 1 41.34329370277434 5.021723902155666 0.08157877885914044 0 0 0
735 1 45.69543990400934 5.021723902155666 0.08157877885914053 0 0 0
644 1 47.871513004627026 1.2526547309026734 0.08157877885914157 0 0 0
556 1 52.22365920586203 1.252654730902675 0.08157877885914129 -1 0 0
733 4 47.873353836086544 3.766879449829135 0.5928565201896696 0 0 0
645 4 52.225500037321545 3.7668794498291356 0.5928565201896696 -1 0 0
647 1 50.04758610524434 5.021723902155666 0.08157877885914057 -1 0 0
560 1 56.57580540709703 1.252654730902675 0.0815787788591413 -1 0 0
649 4 56.57764623855653 3.7668794498291325 0.5928565201896713 -1 0 0
651 1 54.39973230647935 5.021723902155663 0.08157877885914079 -1 0 0
655 1 58.751878507714366 5.021723902155667 0.08157877885914046 -1 0 0
564 1 60.92795160833203 1.2526547309026745 0.08157877885914144 -1 0 0
653 4 60.929792439791534 3.766879449829137 0.5928565201896681 -1 0 0
659 1 63.10402470894935 5.021723902155671 0.08157877885914026 -1 0 0
568 1 65.28009780956704 1.2526547309026708 0.08157877885914284 -1 0 0
572 1 69.63224401080203 1.2526547309026803 0.0815787788591381 -1 0 0
657 4 65.28193864102654 3.766879449829134 0.5928565201896715 -1 0 0
661 4 69.63408484226153 3.766879449829136 0.5928565201896694 -1 0 0
663 1 67.45617091018435 5.0217239021556646 0.08157877885913785 -1 0 0
576 1 73.98439021203701 1.2526547309026752 0.081578778859142 -1 0 0
665 4 73.98623104349655 3.7668794498291343 0.5928565201896696 -1 0 0
667 1 71.80831711141936 5.021723902155667 0.08157877885914035 -1 0 0
671 1 76.16046331265436 5.0217239021556646 0.08157877885914068 -1 0 0
580 1 78.33653641327203 1.2526547309026665 0.08157877885914194 -1 0 0
669 4 78.33837724473155 3.766879449829138 0.5928565201896724 -1 0 0
675 1 80.51260951388934 5.02172390215567 0.08157877885913702 -1 0 0
584 1 82.68868261450706 1.2526547309026748 0.08157877885914187 -1 0 0
588 1 87.04082881574205 1.252654730902677 0.08157877885913864 -1 0 0
673 4 82.69052344596653 3.766879449829129 0.5928565201896727 -1 0 0
677 4 87.04266964720154 3.7668794498291405 0.5928565201896663 -1 0 0
679 1 84.86475571512435 5.021723902155668 0.08157877885914004 -1 0 0
592 1 91.39297501697703 1.2526547309026712 0.08157877885914212 -1 0 0
681 4 91.39481584843655 3.7668794498291343 0.5928565201896699 -1 0 0
683 1 89.21690191635933 5.021723902155668 0.08157877885913986 -1 0 0
687 1 93.56904811759433 5.021723902155666 0.08157877885914067 -1 0 0
600 1 100.09726741944705 1.2526547309026752 0.08157877885914143 -1 0 0
596 1 95.74512121821203 1.252654730902673 0.08157877885914105 -1 0 0
685 4 95.74696204967155 3.7668794498291316 0.5928565201896735 -1 0 0
689 4 100.09910825090653 3.7668794498291334 0.5928565201896697 -1 0 0
691 1 97.92119431882935 5.021723902155661 0.08157877885913992 -1 0 0
694 4 2.1758187231192205 7.535948621082144 0.5928565201896697 0 0 0
696 1 4.35005099227703 8.790793073408665 0.08157877885914146 0 0 0
785 4 4.351891823736534 11.305017792335141 0.5928565201896695 0 0 0
698 4 6.52796492435422 7.535948621082142 0.592856520189672 0 0 0
702 4 10.88011112558922 7.5359486210821425 0.5928565201896707 0 0 0
700 1 8.702197193512037 8.790793073408667 0.08157877885914203 0 0 0
789 4 8.70403802497154 11.30501779233514 0.5928565201896695 0 0 0
706 4 15.23225732682423 7.535948621082142 0.5928565201896719 0 0 0
704 1 13.05434339474703 8.79079307340867 0.08157877885914211 0 0 0
708 1 17.406489595982034 8.790793073408663 0.08157877885913987 0 0 0
793 4 13.056184226206534 11.305017792335136 0.5928565201896691 0 0 0
797 4 17.40833042744153 11.305017792335143 0.5928565201896715 0 0 0
710 4 19.584403528059212 7.53594862108214 0.5928565201896739 0 0 0
712 1 21.758635797217046 8.790793073408668 0.08157877885914078 0 0 0
801 4 21.760476628676535 11.305017792335137 0.5928565201896698 0 0 0
714 4 23.936549729294214 7.535948621082145 0.5928565201896728 0 0 0
718 4 28.28869593052923 7.5359486210821425 0.5928565201896713 0 0 0
716 1 26.110781998452026 8.790793073408668 0.08157877885914047 0 0 0
805 4 26.112622829911537 11.30501779233514 0.5928565201896693 0 0 0
722 4 32.64084213176423 7.535948621082141 0.5928565201896723 0 0 0
720 1 30.462928199687017 8.790793073408668 0.08157877885914079 0 0 0
724 1 34.81507440092202 8.790793073408667 0.08157877885914186 0 0 0
809 4 30.46476903114654 11.305017792335141 0.5928565201896692 0 0 0
813 4 34.81691523238154 11.305017792335141 0.5928565201896692 0 0 0
726 4 36.992988332999225 7.5359486210821425 0.5928565201896714 0 0 0
728 1 39.16722060215702 8.790793073408667 0.0815787788591418 0 0 0
817 4 39.16906143361654 11.305017792335141 0.5928565201896692 0 0 0
730 4 41.34513453423423 7.5359486210821425 0.5928565201896713 0 0 0
734 4 45.69728073546923 7.5359486210821425 0.5928565201896713 0 0 0
732 1 43.519366803392025 8.790793073408667 0.08157877885914172 0 0 0
821 4 43.52120763485154 11.305017792335141 0.592856520189669 0 0 0
646 4 50.04942693670423 7.5359486210821425 0.5928565201896712 -1 0 0
736 1 47.871513004627026 8.790793073408667 0.08157877885914183 0 0 0
648 1 52.22365920586203 8.790793073408667 0.08157877885914194 -1 0 0
825 4 47.873353836086544 11.305017792335141 0.592856520189669 0 0 0
737 4 52.225500037321545 11.305017792335141 0.5928565201896691 -1 0 0
650 4 54.40157313793923 7.535948621082143 0.5928565201896713 -1 0 0
654 4 58.75371933917423 7.5359486210821425 0.5928565201896712 -1 0 0
652 1 56.57580540709703 8.790793073408667 0.08157877885914197 -1 0 0
741 4 56.57764623855653 11.305017792335137 0.5928565201896707 -1 0 0
658 4 63.10586554040923 7.535948621082142 0.5928565201896707 -1 0 0
656 1 60.92795160833203 8.790793073408667 0.08157877885914182 -1 0 0
745 4 60.929792439791534 11.305017792335143 0.5928565201896676 -1 0 0
662 4 67.45801174164423 7.535948621082143 0.5928565201896719 -1 0 0
660 1 65.28009780956704 8.790793073408661 0.08157877885914315 -1 0 0
664 1 69.63224401080203 8.790793073408672 0.08157877885913861 -1 0 0
749 4 65.28193864102654 11.305017792335141 0.5928565201896709 -1 0 0
753 4 69.63408484226153 11.305017792335143 0.5928565201896687 -1 0 0
666 4 71.81015794287924 7.5359486210821425 0.5928565201896712 -1 0 0
670 4 76.16230414411424 7.535948621082143 0.592856520189671 -1 0 0
668 1 73.98439021203703 8.790793073408667 0.08157877885914196 -1 0 0
757 4 73.98623104349655 11.305017792335141 0.5928565201896691 -1 0 0
674 4 80.51445034534922 7.535948621082138 0.5928565201896749 -1 0 0
672 1 78.33653641327203 8.79079307340866 0.08157877885914233 -1 0 0
761 4 78.33837724473155 11.305017792335143 0.5928565201896718 -1 0 0
678 4 84.8665965465842 7.5359486210821425 0.5928565201896712 -1 0 0
676 1 82.68868261450706 8.790793073408667 0.08157877885914198 -1 0 0
680 1 87.04082881574205 8.79079307340867 0.08157877885913814 -1 0 0
765 4 82.69052344596653 11.305017792335136 0.592856520189672 -1 0 0
769 4 87.04266964720154 11.305017792335144 0.5928565201896655 -1 0 0
682 4 89.21874274781922 7.535948621082143 0.5928565201896736 -1 0 0
686 4 93.57088894905422 7.5359486210821425 0.5928565201896713 -1 0 0
684 1 91.39297501697703 8.790793073408665 0.08157877885914219 -1 0 0
773 4 91.39481584843656 11.30501779233514 0.5928565201896694 -1 0 0
692 1 100.09726741944705 8.790793073408667 0.08157877885914176 -1 0 0
690 4 97.92303515028922 7.535948621082143 0.5928565201896723 -1 0 0
688 1 95.74512121821203 8.790793073408665 0.08157877885914164 -1 0 0
777 4 95.74696204967155 11.305017792335137 0.5928565201896727 -1 0 0
781 4 100.09910825090653 11.30501779233514 0.5928565201896695 -1 0 0
787 1 2.173977891659355 12.559862244661671 0.08157877885913956 0 0 0
786 4 2.1758187231192214 15.074086963588142 0.5928565201896705 0 0 0
788 1 4.35005099227703 16.32893141591467 0.0815787788591399 0 0 0
791 1 6.526124092894338 12.559862244661668 0.08157877885913999 0 0 0
795 1 10.878270294129338 12.559862244661668 0.08157877885914123 0 0 0
790 4 6.527964924354218 15.07408696358814 0.592856520189673 0 0 0
792 1 8.702197193512038 16.328931415914674 0.08157877885914082 0 0 0
794 4 10.880111125589222 15.074086963588138 0.5928565201896713 0 0 0
799 1 15.23041649536435 12.559862244661664 0.08157877885913951 0 0 0
796 1 13.05434339474703 16.328931415914678 0.08157877885914099 0 0 0
798 4 15.232257326824229 15.074086963588138 0.5928565201896733 0 0 0
800 1 17.406489595982038 16.32893141591467 0.0815787788591395 0 0 0
803 1 19.58256269659934 12.559862244661668 0.0815787788591395 0 0 0
802 4 19.58440352805921 15.07408696358814 0.592856520189673 0 0 0
804 1 21.758635797217046 16.328931415914674 0.08157877885913957 0 0 0
807 1 23.934708897834337 12.559862244661668 0.08157877885913936 0 0 0
811 1 28.28685509906933 12.559862244661666 0.08157877885914062 0 0 0
806 4 23.936549729294217 15.074086963588146 0.5928565201896722 0 0 0
808 1 26.110781998452023 16.328931415914674 0.08157877885913947 0 0 0
810 4 28.28869593052923 15.07408696358814 0.5928565201896728 0 0 0
815 1 32.639001300304336 12.559862244661666 0.0815787788591407 0 0 0
812 1 30.46292819968702 16.328931415914678 0.08157877885913982 0 0 0
814 4 32.64084213176423 15.074086963588138 0.5928565201896737 0 0 0
816 1 34.81507440092202 16.328931415914674 0.08157877885914085 0 0 0
819 1 36.99114750153934 12.559862244661666 0.08157877885914068 0 0 0
818 4 36.992988332999225 15.07408696358814 0.5928565201896728 0 0 0
820 1 39.16722060215702 16.328931415914674 0.08157877885914082 0 0 0
823 1 41.34329370277434 12.559862244661666 0.08157877885914068 0 0 0
827 1 45.69543990400934 12.559862244661666 0.08157877885914075 0 0 0
822 4 41.34513453423423 15.07408696358814 0.5928565201896724 0 0 0
824 1 43.519366803392025 16.328931415914674 0.08157877885914074 0 0 0
826 4 45.69728073546923 15.07408696358814 0.5928565201896725 0 0 0
739 1 50.04758610524434 12.559862244661666 0.0815787788591408 -1 0 0
828 1 47.871513004627026 16.328931415914674 0.08157877885914086 0 0 0
738 4 50.04942693670423 15.07408696358814 0.5928565201896725 -1 0 0
740 1 52.22365920586203 16.328931415914674 0.08157877885914078 -1 0 0
743 1 54.39973230647935 12.559862244661662 0.08157877885914128 -1 0 0
747 1 58.751878507714366 12.559862244661666 0.08157877885914078 -1 0 0
742 4 54.40157313793923 15.074086963588138 0.5928565201896725 -1 0 0
744 1 56.57580540709703 16.328931415914674 0.0815787788591408 -1 0 0
746 4 58.75371933917423 15.074086963588138 0.5928565201896725 -1 0 0
751 1 63.10402470894935 12.55986224466167 0.0815787788591407 -1 0 0
748 1 60.92795160833203 16.328931415914674 0.08157877885914067 -1 0 0
750 4 63.10586554040923 15.074086963588137 0.5928565201896718 -1 0 0
755 1 67.45617091018435 12.559862244661662 0.08157877885913845 -1 0 0
752 1 65.28009780956704 16.32893141591467 0.08157877885914251 -1 0 0
754 4 67.45801174164423 15.07408696358814 0.5928565201896733 -1 0 0
756 1 69.63224401080203 16.32893141591468 0.08157877885913752 -1 0 0
759 1 71.80831711141936 12.559862244661666 0.08157877885914082 -1 0 0
763 1 76.16046331265436 12.559862244661664 0.08157877885914125 -1 0 0
758 4 71.81015794287924 15.074086963588138 0.5928565201896726 -1 0 0
760 1 73.98439021203701 16.328931415914674 0.08157877885914094 -1 0 0
762 4 76.16230414411424 15.07408696358814 0.5928565201896723 -1 0 0
767 1 80.51260951388934 12.559862244661668 0.0815787788591373 -1 0 0
764 1 78.33653641327203 16.32893141591467 0.08157877885914176 -1 0 0
766 4 80.51445034534922 15.074086963588135 0.5928565201896764 -1 0 0
771 1 84.86475571512435 12.559862244661666 0.08157877885914044 -1 0 0
768 1 82.68868261450706 16.328931415914674 0.08157877885914089 -1 0 0
770 4 84.8665965465842 15.074086963588142 0.5928565201896718 -1 0 0
772 1 87.04082881574205 16.328931415914674 0.08157877885913718 -1 0 0
775 1 89.21690191635933 12.559862244661668 0.08157877885914024 -1 0 0
779 1 93.56904811759433 12.559862244661664 0.08157877885914108 -1 0 0
774 4 89.21874274781922 15.07408696358814 0.5928565201896742 -1 0 0
776 1 91.39297501697703 16.328931415914674 0.08157877885914107 -1 0 0
778 4 93.57088894905422 15.07408696358814 0.5928565201896725 -1 0 0
784 1 100.09726741944705 16.328931415914674 0.0815787788591407 -1 0 0
783 1 97.92119431882936 12.559862244661659 0.0815787788591404 -1 0 0
780 1 95.74512121821203 16.32893141591467 0.08157877885914021 -1 0 0
782 4 97.92303515028922 15.07408696358814 0.5928565201896734 -1 0 0
879 1 2.1739778916593546 20.098000587167668 0.0815787788591402 0 0 0
877 4 4.351891823736533 18.843156134841138 0.59285652018967 0 0 0
878 4 2.17581872311922 22.61222530609415 0.5928565201896697 0 0 0
883 1 6.526124092894338 20.098000587167665 0.08157877885914078 0 0 0
881 4 8.70403802497154 18.843156134841134 0.592856520189669 0 0 0
887 1 10.878270294129338 20.09800058716766 0.08157877885914196 0 0 0
882 4 6.52796492435422 22.612225306094146 0.5928565201896718 0 0 0
886 4 10.880111125589222 22.612225306094146 0.5928565201896704 0 0 0
885 4 13.056184226206534 18.84315613484113 0.5928565201896692 0 0 0
891 1 15.23041649536435 20.09800058716766 0.08157877885914001 0 0 0
889 4 17.40833042744153 18.843156134841138 0.592856520189672 0 0 0
890 4 15.232257326824227 22.612225306094142 0.5928565201896722 0 0 0
895 1 19.582562696599343 20.098000587167665 0.08157877885913997 0 0 0
893 4 21.760476628676535 18.843156134841134 0.5928565201896708 0 0 0
894 4 19.58440352805921 22.612225306094142 0.5928565201896726 0 0 0
899 1 23.934708897834337 20.098000587167665 0.08157877885913954 0 0 0
897 4 26.11262282991154 18.843156134841134 0.5928565201896702 0 0 0
903 1 28.28685509906933 20.09800058716766 0.08157877885914144 0 0 0
898 4 23.936549729294214 22.612225306094146 0.5928565201896719 0 0 0
902 4 28.28869593052923 22.612225306094146 0.5928565201896709 0 0 0
901 4 30.46476903114654 18.843156134841134 0.592856520189669 0 0 0
907 1 32.639001300304336 20.09800058716766 0.08157877885914143 0 0 0
905 4 34.81691523238154 18.843156134841134 0.5928565201896688 0 0 0
906 4 32.64084213176423 22.612225306094146 0.5928565201896719 0 0 0
911 1 36.99114750153934 20.09800058716766 0.08157877885914139 0 0 0
909 4 39.16906143361654 18.843156134841134 0.592856520189669 0 0 0
910 4 36.992988332999225 22.612225306094146 0.5928565201896713 0 0 0
915 1 41.34329370277434 20.09800058716766 0.0815787788591414 0 0 0
913 4 43.52120763485154 18.843156134841134 0.5928565201896688 0 0 0
919 1 45.69543990400934 20.09800058716766 0.08157877885914146 0 0 0
914 4 41.34513453423423 22.612225306094146 0.5928565201896709 0 0 0
918 4 45.69728073546923 22.612225306094146 0.592856520189671 0 0 0
917 4 47.873353836086544 18.843156134841134 0.5928565201896688 0 0 0
831 1 50.04758610524434 20.09800058716766 0.08157877885914148 -1 0 0
829 4 52.225500037321545 18.843156134841134 0.5928565201896688 -1 0 0
830 4 50.04942693670423 22.612225306094146 0.5928565201896709 -1 0 0
835 1 54.39973230647935 20.098000587167657 0.08157877885914198 -1 0 0
833 4 56.57764623855653 18.84315613484113 0.5928565201896704 -1 0 0
839 1 58.751878507714366 20.09800058716766 0.08157877885914148 -1 0 0
834 4 54.40157313793923 22.612225306094146 0.5928565201896707 -1 0 0
838 4 58.75371933917423 22.612225306094146 0.5928565201896709 -1 0 0
837 4 60.929792439791534 18.843156134841134 0.5928565201896673 -1 0 0
843 1 63.10402470894935 20.098000587167665 0.08157877885914099 -1 0 0
842 4 63.10586554040923 22.612225306094146 0.5928565201896706 -1 0 0
841 4 65.28193864102654 18.84315613484113 0.5928565201896708 -1 0 0
847 1 67.45617091018435 20.098000587167657 0.08157877885913775 -1 0 0
845 4 69.63408484226154 18.843156134841134 0.5928565201896687 -1 0 0
846 4 67.45801174164423 22.61222530609415 0.5928565201896713 -1 0 0
851 1 71.80831711141936 20.09800058716766 0.0815787788591415 -1 0 0
849 4 73.98623104349655 18.843156134841134 0.5928565201896688 -1 0 0
855 1 76.16046331265436 20.09800058716766 0.08157877885914164 -1 0 0
850 4 71.81015794287924 22.612225306094146 0.5928565201896709 -1 0 0
854 4 76.16230414411424 22.612225306094146 0.592856520189671 -1 0 0
853 4 78.33837724473155 18.843156134841134 0.5928565201896717 -1 0 0
859 1 80.51260951388934 20.098000587167668 0.08157877885913807 -1 0 0
858 4 80.51445034534922 22.61222530609414 0.5928565201896742 -1 0 0
857 4 82.69052344596653 18.843156134841127 0.592856520189672 -1 0 0
863 1 84.86475571512435 20.098000587167665 0.08157877885914115 -1 0 0
861 4 87.04266964720154 18.84315613484114 0.5928565201896664 -1 0 0
862 4 84.8665965465842 22.612225306094146 0.5928565201896709 -1 0 0
867 1 89.21690191635933 20.098000587167665 0.0815787788591405 -1 0 0
865 4 91.39481584843656 18.84315613484113 0.5928565201896693 -1 0 0
871 1 93.56904811759433 20.09800058716766 0.08157877885914203 -1 0 0
866 4 89.21874274781922 22.612225306094146 0.5928565201896726 -1 0 0
870 4 93.57088894905422 22.612225306094146 0.592856520189671 -1 0 0
869 4 95.74696204967155 18.84315613484113 0.5928565201896727 -1 0 0
875 1 97.92119431882935 20.098000587167654 0.08157877885914017 -1 0 0
873 4 100.09910825090653 18.84315613484113 0.5928565201896692 -1 0 0
874 4 97.92303515028922 22.61222530609415 0.5928565201896716 -1 0 0
880 1 4.35005099227703 23.86706975842067 0.08157877885914024 0 0 0
969 4 4.351891823736533 26.381294477347137 0.5928565201896709 0 0 0
971 1 2.1739778916593546 27.636138929673677 0.08157877885913879 0 0 0
884 1 8.702197193512038 23.86706975842067 0.081578778859141 0 0 0
973 4 8.70403802497154 26.381294477347133 0.5928565201896706 0 0 0
975 1 6.526124092894339 27.636138929673674 0.08157877885913947 0 0 0
979 1 10.878270294129338 27.636138929673677 0.0815787788591414 0 0 0
888 1 13.05434339474703 23.867069758420673 0.08157877885914128 0 0 0
892 1 17.406489595982038 23.867069758420666 0.08157877885913849 0 0 0
977 4 13.056184226206536 26.381294477347133 0.5928565201896703 0 0 0
981 4 17.408330427441527 26.38129447734714 0.5928565201896723 0 0 0
983 1 15.230416495364352 27.636138929673674 0.08157877885914029 0 0 0
896 1 21.758635797217046 23.867069758420673 0.08157877885914004 0 0 0
985 4 21.760476628676535 26.381294477347133 0.5928565201896709 0 0 0
987 1 19.58256269659934 27.636138929673674 0.0815787788591391 0 0 0
900 1 26.110781998452026 23.867069758420673 0.08157877885913985 0 0 0
989 4 26.112622829911537 26.381294477347133 0.5928565201896706 0 0 0
991 1 23.934708897834337 27.63613892967367 0.08157877885913813 0 0 0
995 1 28.28685509906933 27.636138929673674 0.08157877885914014 0 0 0
904 1 30.46292819968702 23.867069758420673 0.08157877885914012 0 0 0
908 1 34.81507440092202 23.86706975842067 0.08157877885914108 0 0 0
993 4 30.46476903114654 26.381294477347133 0.5928565201896705 0 0 0
997 4 34.81691523238154 26.381294477347133 0.5928565201896705 0 0 0
999 1 32.639001300304336 27.636138929673674 0.08157877885914012 0 0 0
912 1 39.16722060215702 23.86706975842067 0.08157877885914105 0 0 0
1001 4 39.16906143361654 26.381294477347133 0.5928565201896705 0 0 0
1003 1 36.99114750153934 27.636138929673674 0.0815787788591401 0 0 0
916 1 43.519366803392025 23.86706975842067 0.08157877885914086 0 0 0
1005 4 43.52120763485154 26.381294477347133 0.5928565201896705 0 0 0
1007 1 41.34329370277434 27.636138929673674 0.0815787788591401 0 0 0
1011 1 45.69543990400934 27.636138929673674 0.08157877885914012 0 0 0
920 1 47.871513004627026 23.86706975842067 0.08157877885914096 0 0 0
832 1 52.22365920586203 23.86706975842067 0.08157877885914115 -1 0 0
1009 4 47.873353836086544 26.381294477347133 0.5928565201896705 0 0 0
921 4 52.225500037321545 26.381294477347133 0.5928565201896704 -1 0 0
923 1 50.04758610524434 27.636138929673674 0.08157877885914018 -1 0 0
836 1 56.57580540709703 23.86706975842067 0.0815787788591412 -1 0 0
925 4 56.57764623855653 26.38129447734713 0.5928565201896722 -1 0 0
927 1 54.39973230647935 27.63613892967367 0.08157877885914025 -1 0 0
931 1 58.751878507714366 27.636138929673674 0.0815787788591402 -1 0 0
840 1 60.92795160833203 23.86706975842067 0.08157877885914094 -1 0 0
929 4 60.929792439791534 26.381294477347137 0.5928565201896688 -1 0 0
935 1 63.10402470894935 27.636138929673677 0.08157877885913982 -1 0 0
844 1 65.28009780956704 23.867069758420666 0.08157877885914347 -1 0 0
848 1 69.63224401080203 23.867069758420676 0.08157877885913833 -1 0 0
933 4 65.28193864102654 26.381294477347133 0.5928565201896723 -1 0 0
937 4 69.63408484226154 26.381294477347133 0.5928565201896704 -1 0 0
939 1 67.45617091018435 27.636138929673674 0.08157877885913732 -1 0 0
852 1 73.98439021203701 23.86706975842067 0.08157877885914104 -1 0 0
941 4 73.98623104349655 26.381294477347133 0.5928565201896705 -1 0 0
943 1 71.80831711141936 27.636138929673674 0.08157877885914008 -1 0 0
947 1 76.16046331265436 27.63613892967367 0.08157877885914076 -1 0 0
856 1 78.33653641327203 23.867069758420662 0.08157877885914082 -1 0 0
945 4 78.33837724473155 26.38129447734714 0.592856520189673 -1 0 0
951 1 80.51260951388934 27.636138929673674 0.08157877885913707 -1 0 0
860 1 82.68868261450706 23.86706975842067 0.08157877885914117 -1 0 0
864 1 87.04082881574205 23.867069758420673 0.08157877885913764 -1 0 0
949 4 82.69052344596653 26.38129447734713 0.5928565201896732 -1 0 0
953 4 87.04266964720154 26.381294477347137 0.5928565201896672 -1 0 0
955 1 84.86475571512435 27.636138929673677 0.08157877885914086 -1 0 0
868 1 91.39297501697703 23.86706975842067 0.08157877885914173 -1 0 0
957 4 91.39481584843656 26.381294477347133 0.592856520189671 -1 0 0
959 1 89.21690191635933 27.636138929673674 0.08157877885913896 -1 0 0
963 1 93.56904811759433 27.63613892967367 0.08157877885914053 -1 0 0
876 1 100.09726741944704 23.86706975842067 0.08157877885914153 -1 0 0
872 1 95.74512121821203 23.867069758420666 0.08157877885914076 -1 0 0
961 4 95.74696204967155 26.381294477347133 0.5928565201896746 -1 0 0
965 4 100.09910825090653 26.381294477347133 0.5928565201896708 -1 0 0
967 1 97.92119431882935 27.636138929673667 0.08157877885913997 -1 0 0
970 4 2.1758187231192188 30.15036364860013 0.5928565201896698 0 0 0
972 1 4.350050992277032 31.40520810092668 0.0815787788591417 0 0 0
1061 4 4.351891823736533 33.919432819853135 0.5928565201896688 0 0 0
974 4 6.527964924354221 30.150363648600127 0.5928565201896718 0 0 0
978 4 10.880111125589218 30.150363648600123 0.5928565201896707 0 0 0
976 1 8.702197193512038 31.40520810092668 0.08157877885914169 0 0 0
1065 4 8.70403802497154 33.919432819853135 0.5928565201896691 0 0 0
982 4 15.232257326824225 30.150363648600123 0.592856520189673 0 0 0
980 1 13.054343394747033 31.405208100926686 0.08157877885914155 0 0 0
984 1 17.40648959598204 31.40520810092667 0.08157877885913807 0 0 0
1069 4 13.056184226206536 33.91943281985313 0.5928565201896692 0 0 0
1073 4 17.408330427441527 33.91943281985314 0.592856520189671 0 0 0
986 4 19.584403528059205 30.150363648600123 0.5928565201896733 0 0 0
988 1 21.758635797217046 31.40520810092668 0.08157877885914051 0 0 0
1077 4 21.760476628676535 33.919432819853135 0.59285652018967 0 0 0
990 4 23.936549729294217 30.150363648600138 0.5928565201896715 0 0 0
994 4 28.28869593052923 30.15036364860013 0.5928565201896705 0 0 0
992 1 26.110781998452023 31.405208100926675 0.08157877885914203 0 0 0
1081 4 26.112622829911537 33.919432819853135 0.5928565201896696 0 0 0
998 4 32.64084213176423 30.150363648600127 0.5928565201896715 0 0 0
996 1 30.46292819968702 31.40520810092668 0.08157877885914135 0 0 0
1000 1 34.81507440092202 31.405208100926675 0.08157877885914229 0 0 0
1085 4 30.46476903114654 33.919432819853135 0.5928565201896697 0 0 0
1089 4 34.81691523238154 33.919432819853135 0.5928565201896697 0 0 0
1002 4 36.992988332999225 30.15036364860013 0.5928565201896707 0 0 0
1004 1 39.16722060215702 31.405208100926675 0.08157877885914226 0 0 0
1093 4 39.16906143361654 33.919432819853135 0.5928565201896696 0 0 0
1006 4 41.34513453423423 30.15036364860013 0.5928565201896705 0 0 0
1010 4 45.69728073546923 30.15036364860013 0.5928565201896706 0 0 0
1008 1 43.519366803392025 31.405208100926675 0.08157877885914218 0 0 0
1097 4 43.52120763485154 33.919432819853135 0.5928565201896695 0 0 0
922 4 50.04942693670423 30.15036364860013 0.5928565201896704 -1 0 0
1012 1 47.871513004627026 31.405208100926675 0.08157877885914229 0 0 0
924 1 52.22365920586203 31.405208100926675 0.08157877885914244 -1 0 0
1101 4 47.873353836086544 33.919432819853135 0.5928565201896695 0 0 0
1013 4 52.225500037321545 33.919432819853135 0.5928565201896695 -1 0 0
926 4 54.40157313793923 30.15036364860013 0.5928565201896704 -1 0 0
930 4 58.75371933917423 30.15036364860013 0.5928565201896704 -1 0 0
928 1 56.57580540709703 31.405208100926675 0.0815787788591425 -1 0 0
1017 4 56.57764623855653 33.919432819853135 0.5928565201896712 -1 0 0
934 4 63.10586554040923 30.15036364860013 0.5928565201896703 -1 0 0
932 1 60.92795160833203 31.405208100926675 0.08157877885914226 -1 0 0
1021 4 60.929792439791534 33.91943281985314 0.5928565201896678 -1 0 0
938 4 67.45801174164423 30.15036364860013 0.5928565201896707 -1 0 0
936 1 65.28009780956704 31.40520810092667 0.0815787788591442 -1 0 0
940 1 69.63224401080203 31.405208100926682 0.0815787788591392 -1 0 0
1025 4 65.28193864102654 33.919432819853135 0.5928565201896714 -1 0 0
1029 4 69.63408484226154 33.919432819853135 0.5928565201896694 -1 0 0
942 4 71.81015794287924 30.15036364860013 0.5928565201896704 -1 0 0
946 4 76.16230414411424 30.150363648600127 0.5928565201896708 -1 0 0
944 1 73.98439021203701 31.405208100926675 0.08157877885914235 -1 0 0
1033 4 73.98623104349655 33.919432819853135 0.5928565201896694 -1 0 0
950 4 80.51445034534922 30.150363648600127 0.5928565201896748 -1 0 0
948 1 78.33653641327203 31.405208100926664 0.08157877885914135 -1 0 0
1037 4 78.33837724473155 33.91943281985314 0.5928565201896714 -1 0 0
954 4 84.8665965465842 30.150363648600127 0.59285652018967 -1 0 0
952 1 82.68868261450706 31.40520810092668 0.08157877885914226 -1 0 0
956 1 87.04082881574206 31.405208100926682 0.0815787788591387 -1 0 0
1041 4 82.69052344596653 33.919432819853135 0.5928565201896726 -1 0 0
1045 4 87.04266964720154 33.91943281985314 0.5928565201896656 -1 0 0
958 4 89.21874274781922 30.15036364860013 0.592856520189672 -1 0 0
962 4 93.57088894905422 30.15036364860013 0.5928565201896706 -1 0 0
960 1 91.39297501697703 31.405208100926675 0.08157877885914289 -1 0 0
1049 4 91.39481584843655 33.919432819853135 0.5928565201896695 -1 0 0
968 1 100.09726741944705 31.405208100926675 0.08157877885914232 -1 0 0
966 4 97.92303515028922 30.15036364860013 0.592856520189671 -1 0 0
964 1 95.74512121821203 31.40520810092668 0.08157877885914264 -1 0 0
1053 4 95.74696204967155 33.91943281985313 0.5928565201896733 -1 0 0
1057 4 100.09910825090653 33.919432819853135 0.5928565201896696 -1 0 0
1063 1 2.1739778916593537 35.17427727217967 0.0815787788591387 0 0 0
1062 4 2.1758187231192165 37.688501991106136 0.5928565201896694 0 0 0
1064 1 4.350050992277028 38.94334644343268 0.08157877885914158 0 0 0
1067 1 6.52612409289434 35.17427727217968 0.08157877885914178 0 0 0
1071 1 10.878270294129338 35.17427727217968 0.0815787788591417 0 0 0
1066 4 6.52796492435422 37.68850199110612 0.5928565201896722 0 0 0
1070 4 10.88011112558922 37.68850199110612 0.5928565201896714 0 0 0
1068 1 8.702197193512038 38.94334644343269 0.08157877885914155 0 0 0
1075 1 15.230416495364354 35.17427727217967 0.08157877885914161 0 0 0
1074 4 15.232257326824229 37.68850199110613 0.5928565201896709 0 0 0
1072 1 13.054343394747033 38.94334644343269 0.0815787788591418 0 0 0
1076 1 17.406489595982038 38.94334644343267 0.08157877885913772 0 0 0
1079 1 19.58256269659934 35.17427727217968 0.08157877885914114 0 0 0
1078 4 19.5844035280592 37.68850199110612 0.5928565201896728 0 0 0
1080 1 21.75863579721705 38.94334644343268 0.08157877885914115 0 0 0
1083 1 23.934708897834337 35.17427727217967 0.08157877885913886 0 0 0
1087 1 28.28685509906933 35.17427727217968 0.08157877885914157 0 0 0
1082 4 23.936549729294214 37.688501991106136 0.5928565201896716 0 0 0