LAMMPS data file via write_data, version 29 Aug 2024, timestep = 2, units = metal

4800 atoms
8 atom types

0 100.49515917542 xlo xhi
0 100.18456451706 ylo yhi
-50 50 zlo zhi

Masses

1 118.71
2 118.71
3 118.71
4 118.71
5 15.999
6 15.999
7 15.999
8 15.999

Atoms # atomic

1242 5 0.8550367713532881 1.6697427419510023 1.3162447647653497 0 0 0
1243 2 2.5171032679369065 1.6697427419510023 -0.01416218283166174 0 0 0
1244 6 3.3672578423136685 2.7353603831260178e-15 1.0598572218200586 0 0 0
1246 5 5.879794730124286 1.6697427419510023 1.3162447647653495 0 0 0
1324 6 3.367257842313669 3.339485483902002 1.0598572218200597 0 0 0
1322 5 0.8550367713532885 5.009228225853001 1.3162447647653484 0 0 0
1323 2 2.5171032679369065 5.009228225853001 -0.014162182831663957 0 0 0
1326 5 5.879794730124286 5.009228225853001 1.3162447647653481 0 0 0
1241 1 0.004728698159124209 2.5243237696805793e-15 2.3893481474196716 0 0 0
1245 1 5.02948665693012 2.5144881699371797e-15 2.3893481474196707 0 0 0
1321 1 0.004728698159123601 3.339485483902002 2.3893481474196734 0 0 0
1325 1 5.02948665693012 3.339485483902002 2.389348147419673 0 0 0
1247 2 7.541861226707905 1.6697427419510023 -0.014162182831661506 0 0 0
1248 6 8.392015801084666 2.7521711710748456e-15 1.0598572218200584 0 0 0
1250 5 10.904552688895285 1.669742741951002 1.3162447647653486 0 0 0
1328 6 8.392015801084668 3.3394854839020023 1.0598572218200595 0 0 0
1327 2 7.541861226707905 5.009228225853001 -0.014162182831663685 0 0 0
1330 5 10.904552688895285 5.009228225853001 1.3162447647653472 0 0 0
1249 1 10.05424461570112 2.5230702693444378e-15 2.3893481474196694 0 0 0
1329 1 10.05424461570112 3.3394854839020023 2.389348147419671 0 0 0
1251 2 12.566619185478906 1.6697427419510025 -0.014162182831659535 0 0 0
1252 6 13.416773759855667 2.7400477340441377e-15 1.0598572218200601 0 0 0
1255 2 17.591377144249904 1.6697427419510023 -0.014162182831659586 0 0 0
1254 5 15.929310647666284 1.669742741951002 1.3162447647653486 0 0 0
1332 6 13.416773759855667 3.339485483902002 1.059857221820061 0 0 0
1331 2 12.566619185478906 5.009228225853001 -0.01416218283166188 0 0 0
1335 2 17.591377144249904 5.009228225853001 -0.014162182831662075 0 0 0
1334 5 15.929310647666282 5.009228225853001 1.316244764765348 0 0 0
1253 1 15.07900257447212 2.790693982397844e-15 2.3893481474196716 0 0 0
1333 1 15.07900257447212 3.3394854839020023 2.389348147419674 0 0 0
1256 6 18.441531718626667 2.5516569143459624e-15 1.059857221820059 0 0 0
1258 5 20.954068606437286 1.6697427419510018 1.3162447647653484 0 0 0
1259 2 22.616135103020905 1.6697427419510025 -0.01416218283166325 0 0 0
1260 6 23.46628967739767 2.538875274419684e-15 1.0598572218200588 0 0 0
1336 6 18.441531718626667 3.3394854839020023 1.0598572218200613 0 0 0
1340 6 23.46628967739767 3.3394854839020023 1.0598572218200595 0 0 0
1338 5 20.954068606437286 5.009228225853001 1.3162447647653466 0 0 0
1339 2 22.616135103020905 5.0092282258530005 -0.014162182831665295 0 0 0
1257 1 20.10376053324312 2.802337507708464e-15 2.3893481474196694 0 0 0
1337 1 20.10376053324312 3.339485483902002 2.389348147419671 0 0 0
1262 5 25.97882656520829 1.6697427419510023 1.3162447647653492 0 0 0
1263 2 27.64089306179191 1.6697427419510025 -0.01416218283166009 0 0 0
1264 6 28.49104763616867 2.5148463476446973e-15 1.0598572218200597 0 0 0
1344 6 28.49104763616867 3.3394854839020023 1.0598572218200595 0 0 0
1342 5 25.97882656520829 5.009228225853001 1.3162447647653497 0 0 0
1343 2 27.640893061791907 5.009228225853001 -0.014162182831662954 0 0 0
1261 1 25.12851849201412 2.2368695042214776e-15 2.389348147419669 0 0 0
1341 1 25.128518492014123 3.339485483902002 2.3893481474196716 0 0 0
1266 5 31.003584523979285 1.6697427419510023 1.3162447647653497 0 0 0
1267 2 32.6656510205629 1.6697427419510023 -0.014162182831663594 0 0 0
1268 6 33.515805594939664 3.027691931449795e-15 1.0598572218200595 0 0 0
1348 6 33.515805594939664 3.339485483902002 1.0598572218200595 0 0 0
1346 5 31.003584523979285 5.009228225853001 1.3162447647653472 0 0 0
1347 2 32.6656510205629 5.009228225853001 -0.014162182831665438 0 0 0
1265 1 30.15327645078512 2.7516610177848684e-15 2.3893481474196716 0 0 0
1269 1 35.17803440955612 2.904013831017218e-15 2.3893481474196685 0 0 0
1345 1 30.15327645078512 3.339485483902002 2.3893481474196747 0 0 0
1349 1 35.17803440955611 3.339485483902002 2.3893481474196707 0 0 0
1270 5 36.02834248275028 1.669742741951003 1.3162447647653517 0 0 0
1271 2 37.6904089793339 1.6697427419510023 -0.01416218283166176 0 0 0
1272 6 38.54056355371067 3.027522562453251e-15 1.0598572218200595 0 0 0
1274 5 41.05310044152129 1.669742741951003 1.3162447647653517 0 0 0
1352 6 38.54056355371067 3.339485483902002 1.0598572218200595 0 0 0
1350 5 36.02834248275028 5.0092282258530005 1.3162447647653497 0 0 0
1351 2 37.6904089793339 5.009228225853001 -0.014162182831663584 0 0 0
1354 5 41.05310044152129 5.0092282258530005 1.3162447647653495 0 0 0
1273 1 40.202792368327124 2.8871077369733424e-15 2.3893481474196685 0 0 0
1353 1 40.20279236832712 3.339485483902002 2.3893481474196703 0 0 0
1275 2 42.71516693810491 1.6697427419510023 -0.014162182831661436 0 0 0
1276 6 43.565321512481674 2.8082999708382707e-15 1.0598572218200593 0 0 0
1278 5 46.077858400292286 1.6697427419510018 1.316244764765348 0 0 0
1356 6 43.565321512481674 3.339485483902002 1.0598572218200615 0 0 0
1355 2 42.71516693810491 5.009228225853001 -0.014162182831663265 0 0 0
1358 5 46.077858400292286 5.009228225853001 1.3162447647653486 0 0 0
1277 1 45.22755032709812 2.053129045168345e-15 2.389348147419672 0 0 0
1357 1 45.22755032709812 3.3394854839020027 2.389348147419674 0 0 0
1279 2 47.739924896875905 1.669742741951002 -0.014162182831660524 0 0 0
1280 6 48.590079471252665 3.173882083939576e-15 1.0598572218200588 0 0 0
1202 5 51.10261635906328 1.669742741951003 1.3162447647653497 -1 0 0
1203 2 52.7646828556469 1.669742741951002 -0.014162182831662267 -1 0 0
1360 6 48.590079471252665 3.339485483902002 1.059857221820059 0 0 0
1359 2 47.739924896875905 5.009228225853001 -0.014162182831664046 0 0 0
1282 5 51.10261635906328 5.0092282258530005 1.3162447647653475 -1 0 0
1283 2 52.7646828556469 5.009228225853001 -0.014162182831664106 -1 0 0
1201 1 50.25230828586912 2.6334796997701374e-15 2.3893481474196694 -1 0 0
1281 1 50.25230828586912 3.339485483902002 2.3893481474196716 -1 0 0
1204 6 53.61483743002367 3.2087941751664235e-15 1.0598572218200584 -1 0 0
1206 5 56.12737431783428 1.6697427419510018 1.31624476476535 -1 0 0
1207 2 57.7894408144179 1.669742741951002 -0.014162182831662087 -1 0 0
1208 6 58.63959538879467 3.1901320290739484e-15 1.0598572218200584 -1 0 0
1284 6 53.61483743002367 3.339485483902002 1.0598572218200606 -1 0 0
1288 6 58.63959538879467 3.339485483902002 1.0598572218200606 -1 0 0
1286 5 56.12737431783428 5.009228225853001 1.3162447647653477 -1 0 0
1287 2 57.7894408144179 5.009228225853001 -0.014162182831663928 -1 0 0
1205 1 55.27706624464012 2.637329812220341e-15 2.3893481474196703 -1 0 0
1285 1 55.27706624464012 3.339485483902002 2.389348147419672 -1 0 0
1210 5 61.152132276605286 1.6697427419510018 1.3162447647653512 -1 0 0
1211 2 62.814198773188906 1.669742741951002 -0.014162182831658952 -1 0 0
1212 6 63.66435334756567 3.1105869122654406e-15 1.05985722182006 -1 0 0
1292 6 63.66435334756567 3.339485483902002 1.0598572218200624 -1 0 0
1290 5 61.152132276605286 5.009228225853001 1.3162447647653486 -1 0 0
1291 2 62.814198773188906 5.009228225853001 -0.014162182831660788 -1 0 0
1209 1 60.30182420341112 2.8716073431480408e-15 2.3893481474196685 -1 0 0
1289 1 60.30182420341112 3.339485483902002 2.3893481474196703 -1 0 0
1214 5 66.17689023537629 1.6697427419510018 1.3162447647653484 -1 0 0
1215 2 67.83895673195991 1.6697427419510023 -0.014162182831663001 -1 0 0
1216 6 68.68911130633667 3.0272392855173224e-15 1.059857221820058 -1 0 0
1296 6 68.68911130633667 3.339485483902002 1.05985722182006 -1 0 0
1294 5 66.17689023537629 5.009228225853001 1.3162447647653457 -1 0 0
1295 2 67.83895673195991 5.009228225853001 -0.014162182831664826 -1 0 0
1213 1 65.32658216218212 2.8888468473314084e-15 2.38934814741967 -1 0 0
1217 1 70.35134012095313 2.830034726064716e-15 2.389348147419671 -1 0 0
1293 1 65.32658216218212 3.339485483902002 2.3893481474196716 -1 0 0
1297 1 70.35134012095313 3.339485483902002 2.3893481474196725 -1 0 0
1218 5 71.2016481941473 1.669742741951002 1.3162447647653461 -1 0 0
1219 2 72.86371469073092 1.669742741951002 -0.014162182831658253 -1 0 0
1220 6 73.71386926510768 2.9545497170718528e-15 1.0598572218200557 -1 0 0
1222 5 76.22640615291829 1.6697427419510018 1.3162447647653508 -1 0 0
1300 6 73.71386926510768 3.339485483902002 1.0598572218200581 -1 0 0
1298 5 71.2016481941473 5.009228225853001 1.3162447647653441 -1 0 0
1299 2 72.86371469073092 5.009228225853001 -0.014162182831660085 -1 0 0
1302 5 76.22640615291829 5.009228225853001 1.3162447647653484 -1 0 0
1221 1 75.37609807972412 2.868115676464949e-15 2.389348147419673 -1 0 0
1301 1 75.37609807972412 3.339485483902002 2.3893481474196747 -1 0 0
1223 2 77.8884726495019 1.6697427419510023 -0.0141621828316628 -1 0 0
1224 6 78.73862722387867 3.027332650518366e-15 1.059857221820058 -1 0 0
1226 5 81.25116411168929 1.6697427419510023 1.3162447647653464 -1 0 0
1304 6 78.73862722387867 3.339485483902002 1.05985722182006 -1 0 0
1303 2 77.8884726495019 5.009228225853001 -0.014162182831664637 -1 0 0
1306 5 81.25116411168929 5.009228225853001 1.3162447647653441 -1 0 0
1225 1 80.40085603849512 2.8372772902122855e-15 2.389348147419671 -1 0 0
1305 1 80.40085603849512 3.339485483902002 2.389348147419673 -1 0 0
1227 2 82.91323060827291 1.669742741951002 -0.014162182831658258 -1 0 0
1228 6 83.76338518264967 2.9516199035557034e-15 1.059857221820056 -1 0 0
1230 5 86.27592207046028 1.669742741951002 1.316244764765346 -1 0 0
1231 2 87.9379885670439 1.669742741951002 -0.014162182831657011 -1 0 0
1308 6 83.76338518264967 3.339485483902002 1.0598572218200584 -1 0 0
1307 2 82.91323060827291 5.009228225853001 -0.014162182831660094 -1 0 0
1310 5 86.27592207046028 5.009228225853001 1.3162447647653435 -1 0 0
1311 2 87.9379885670439 5.009228225853001 -0.014162182831659067 -1 0 0
1229 1 85.42561399726613 2.66896119057684e-15 2.3893481474196707 -1 0 0
1309 1 85.42561399726613 3.339485483902002 2.3893481474196725 -1 0 0
1232 6 88.78814314142068 3.243741199580467e-15 1.0598572218200608 -1 0 0
1234 5 91.30068002923129 1.6697427419510018 1.3162447647653484 -1 0 0
1235 2 92.96274652581491 1.6697427419510023 -0.014162182831662989 -1 0 0
1236 6 93.81290110019167 3.027247372376789e-15 1.059857221820058 -1 0 0
1312 6 88.78814314142068 3.339485483902002 1.059857221820063 -1 0 0
1316 6 93.81290110019167 3.339485483902002 1.05985722182006 -1 0 0
1314 5 91.30068002923129 5.009228225853001 1.316244764765346 -1 0 0
1315 2 92.96274652581491 5.009228225853001 -0.01416218283166483 -1 0 0
1233 1 90.45037195603713 2.8806590250355736e-15 2.389348147419672 -1 0 0
1313 1 90.45037195603713 3.339485483902002 2.389348147419674 -1 0 0
1238 5 96.32543798800229 1.6697427419510023 1.3162447647653464 -1 0 0
1239 2 97.98750448458591 1.6697427419510018 -0.014162182831658423 -1 0 0
1240 6 98.83765905896267 3.168633671516026e-15 1.0598572218200573 -1 0 0
1320 6 98.83765905896267 3.339485483902002 1.059857221820059 -1 0 0
1318 5 96.32543798800229 5.009228225853001 1.3162447647653441 -1 0 0
1319 2 97.98750448458591 5.009228225853001 -0.01416218283166026 -1 0 0
1237 1 95.47512991480812 2.8372486119044368e-15 2.389348147419671 -1 0 0
1317 1 95.47512991480812 3.339485483902002 2.389348147419673 -1 0 0
1404 6 3.3672578423136685 6.678970967804001 1.0598572218200586 0 0 0
1402 5 0.8550367713532883 8.348713709755 1.3162447647653497 0 0 0
1403 2 2.5171032679369065 8.348713709755001 -0.01416218283166174 0 0 0
1406 5 5.879794730124286 8.348713709755 1.3162447647653495 0 0 0
1484 6 3.3672578423136685 10.018456451706001 1.0598572218200593 0 0 0
1482 5 0.8550367713532881 11.688199193657002 1.3162447647653497 0 0 0
1483 2 2.5171032679369065 11.688199193657 -0.014162182831661619 0 0 0
1486 5 5.879794730124286 11.688199193657002 1.3162447647653495 0 0 0
1401 1 0.004728698159124323 6.678970967804001 2.3893481474196716 0 0 0
1405 1 5.02948665693012 6.678970967804001 2.3893481474196707 0 0 0
1481 1 0.004728698159123503 10.018456451706001 2.389348147419674 0 0 0
1485 1 5.02948665693012 10.018456451706001 2.3893481474196734 0 0 0
1408 6 8.392015801084666 6.678970967804001 1.0598572218200584 0 0 0
1407 2 7.541861226707905 8.348713709755001 -0.014162182831661516 0 0 0
1410 5 10.904552688895285 8.348713709755 1.3162447647653486 0 0 0
1488 6 8.392015801084668 10.018456451706001 1.0598572218200593 0 0 0
1487 2 7.541861226707905 11.688199193657 -0.01416218283166139 0 0 0
1490 5 10.904552688895285 11.688199193657002 1.3162447647653486 0 0 0
1409 1 10.054244615701121 6.678970967804001 2.389348147419669 0 0 0
1489 1 10.05424461570112 10.018456451706001 2.3893481474196716 0 0 0
1412 6 13.416773759855667 6.678970967804001 1.0598572218200601 0 0 0
1411 2 12.566619185478906 8.348713709755001 -0.01416218283165958 0 0 0
1415 2 17.591377144249904 8.348713709755001 -0.014162182831659584 0 0 0
1414 5 15.929310647666284 8.348713709755 1.3162447647653486 0 0 0
1492 6 13.416773759855667 10.018456451706001 1.0598572218200613 0 0 0
1491 2 12.566619185478906 11.688199193657 -0.014162182831659778 0 0 0
1495 2 17.591377144249904 11.688199193657002 -0.01416218283165937 0 0 0
1494 5 15.929310647666284 11.688199193657002 1.3162447647653486 0 0 0
1413 1 15.07900257447212 6.678970967804001 2.3893481474196716 0 0 0
1493 1 15.07900257447212 10.018456451706001 2.389348147419674 0 0 0
1416 6 18.441531718626667 6.678970967804001 1.059857221820059 0 0 0
1420 6 23.46628967739767 6.678970967804001 1.0598572218200588 0 0 0
1418 5 20.954068606437286 8.348713709755 1.3162447647653481 0 0 0
1419 2 22.616135103020905 8.348713709755001 -0.014162182831663359 0 0 0
1496 6 18.441531718626667 10.018456451706001 1.059857221820061 0 0 0
1500 6 23.46628967739767 10.018456451706001 1.0598572218200595 0 0 0
1498 5 20.954068606437286 11.688199193657002 1.3162447647653481 0 0 0
1499 2 22.61613510302091 11.688199193657 -0.014162182831663138 0 0 0
1417 1 20.10376053324312 6.678970967804001 2.3893481474196694 0 0 0
1497 1 20.10376053324312 10.018456451706001 2.389348147419671 0 0 0
1424 6 28.49104763616867 6.678970967804001 1.0598572218200597 0 0 0
1422 5 25.97882656520829 8.348713709755 1.3162447647653492 0 0 0
1423 2 27.64089306179191 8.348713709755001 -0.014162182831660179 0 0 0
1504 6 28.49104763616867 10.018456451706001 1.0598572218200597 0 0 0
1502 5 25.97882656520829 11.688199193657002 1.3162447647653492 0 0 0
1503 2 27.64089306179191 11.688199193657002 -0.014162182831659962 0 0 0
1421 1 25.12851849201412 6.678970967804 2.389348147419669 0 0 0
1501 1 25.128518492014123 10.018456451706001 2.389348147419671 0 0 0
1428 6 33.515805594939664 6.678970967804002 1.0598572218200595 0 0 0
1426 5 31.003584523979285 8.348713709755001 1.3162447647653497 0 0 0
1427 2 32.6656510205629 8.348713709755001 -0.014162182831663709 0 0 0
1508 6 33.515805594939664 10.018456451706001 1.0598572218200593 0 0 0
1506 5 31.003584523979285 11.688199193657 1.3162447647653497 0 0 0
1507 2 32.6656510205629 11.688199193657002 -0.014162182831663468 0 0 0
1425 1 30.15327645078512 6.678970967804001 2.3893481474196716 0 0 0
1429 1 35.17803440955612 6.678970967804001 2.3893481474196685 0 0 0
1505 1 30.15327645078512 10.018456451706001 2.3893481474196743 0 0 0
1509 1 35.17803440955612 10.018456451706001 2.3893481474196703 0 0 0
1432 6 38.54056355371067 6.678970967804002 1.0598572218200595 0 0 0
1430 5 36.02834248275028 8.348713709755001 1.3162447647653517 0 0 0
1431 2 37.6904089793339 8.348713709755 -0.014162182831661874 0 0 0
1434 5 41.05310044152129 8.348713709755001 1.3162447647653517 0 0 0
1512 6 38.54056355371067 10.018456451706001 1.0598572218200593 0 0 0
1510 5 36.02834248275028 11.688199193657 1.316244764765352 0 0 0
1511 2 37.6904089793339 11.688199193657002 -0.014162182831661629 0 0 0
1514 5 41.05310044152129 11.688199193657 1.3162447647653517 0 0 0
1433 1 40.202792368327124 6.678970967804001 2.3893481474196685 0 0 0
1513 1 40.202792368327124 10.018456451706001 2.3893481474196694 0 0 0
1436 6 43.565321512481674 6.678970967804001 1.0598572218200593 0 0 0
1435 2 42.71516693810491 8.348713709755 -0.01416218283166153 0 0 0
1438 5 46.077858400292286 8.348713709755 1.316244764765348 0 0 0
1516 6 43.565321512481674 10.018456451706001 1.0598572218200615 0 0 0
1515 2 42.71516693810491 11.688199193657002 -0.01416218283166132 0 0 0
1518 5 46.077858400292286 11.688199193657002 1.316244764765348 0 0 0
1437 1 45.22755032709812 6.678970967804 2.3893481474196716 0 0 0
1517 1 45.22755032709812 10.018456451706001 2.3893481474196743 0 0 0
1440 6 48.590079471252665 6.678970967804002 1.0598572218200588 0 0 0
1439 2 47.739924896875905 8.348713709755001 -0.014162182831660519 0 0 0
1362 5 51.10261635906328 8.348713709755001 1.3162447647653497 -1 0 0
1363 2 52.7646828556469 8.348713709755001 -0.014162182831662262 -1 0 0
1520 6 48.590079471252665 10.018456451706001 1.0598572218200588 0 0 0
1519 2 47.739924896875905 11.688199193657002 -0.014162182831660434 0 0 0
1442 5 51.10261635906328 11.688199193657 1.3162447647653497 -1 0 0
1443 2 52.7646828556469 11.688199193657002 -0.014162182831662165 -1 0 0
1361 1 50.25230828586912 6.678970967804001 2.3893481474196694 -1 0 0
1441 1 50.25230828586912 10.018456451706001 2.3893481474196716 -1 0 0
1364 6 53.61483743002367 6.678970967804001 1.0598572218200584 -1 0 0
1368 6 58.63959538879467 6.678970967804001 1.0598572218200581 -1 0 0
1366 5 56.12737431783428 8.348713709755 1.3162447647653501 -1 0 0
1367 2 57.7894408144179 8.348713709755001 -0.01416218283166209 -1 0 0
1444 6 53.61483743002367 10.018456451706001 1.0598572218200601 -1 0 0
1448 6 58.63959538879467 10.018456451706001 1.0598572218200601 -1 0 0
1446 5 56.12737431783428 11.688199193657002 1.3162447647653501 -1 0 0
1447 2 57.7894408144179 11.688199193657002 -0.014162182831661993 -1 0 0
1365 1 55.27706624464012 6.678970967804001 2.3893481474196703 -1 0 0
1445 1 55.27706624464012 10.018456451706001 2.389348147419672 -1 0 0
1372 6 63.66435334756567 6.678970967804002 1.0598572218200597 -1 0 0
1370 5 61.152132276605286 8.348713709755 1.316244764765351 -1 0 0
1371 2 62.814198773188906 8.348713709755 -0.014162182831658864 -1 0 0
1452 6 63.66435334756567 10.018456451706001 1.0598572218200621 -1 0 0
1450 5 61.152132276605286 11.688199193657002 1.316244764765351 -1 0 0
1451 2 62.814198773188906 11.688199193657 -0.014162182831659055 -1 0 0
1369 1 60.301824203411115 6.678970967804001 2.3893481474196685 -1 0 0
1449 1 60.30182420341112 10.018456451706001 2.3893481474196703 -1 0 0
1376 6 68.68911130633667 6.678970967804002 1.059857221820058 -1 0 0
1374 5 66.17689023537629 8.348713709755 1.3162447647653481 -1 0 0
1375 2 67.83895673195991 8.348713709755001 -0.014162182831663104 -1 0 0
1456 6 68.68911130633667 10.018456451706001 1.0598572218200597 -1 0 0
1454 5 66.17689023537629 11.688199193657002 1.3162447647653481 -1 0 0
1455 2 67.83895673195991 11.688199193657002 -0.014162182831662862 -1 0 0
1373 1 65.32658216218212 6.678970967804001 2.38934814741967 -1 0 0
1377 1 70.35134012095313 6.678970967804001 2.389348147419671 -1 0 0
1453 1 65.32658216218212 10.018456451706001 2.3893481474196716 -1 0 0
1457 1 70.35134012095313 10.018456451706001 2.389348147419672 -1 0 0
1380 6 73.71386926510768 6.678970967804001 1.0598572218200557 -1 0 0
1378 5 71.2016481941473 8.348713709755 1.3162447647653464 -1 0 0
1379 2 72.86371469073092 8.348713709755 -0.01416218283165835 -1 0 0
1382 5 76.22640615291829 8.348713709755 1.3162447647653508 -1 0 0
1460 6 73.71386926510768 10.018456451706001 1.059857221820058 -1 0 0
1458 5 71.2016481941473 11.688199193657002 1.3162447647653464 -1 0 0
1459 2 72.86371469073092 11.688199193657002 -0.014162182831658139 -1 0 0
1462 5 76.22640615291829 11.688199193657002 1.3162447647653506 -1 0 0
1381 1 75.37609807972412 6.678970967804001 2.3893481474196734 -1 0 0
1461 1 75.37609807972412 10.018456451706001 2.389348147419675 -1 0 0
1384 6 78.73862722387867 6.678970967804002 1.059857221820058 -1 0 0
1383 2 77.8884726495019 8.348713709755001 -0.014162182831662908 -1 0 0
1386 5 81.25116411168929 8.348713709755 1.3162447647653464 -1 0 0
1464 6 78.73862722387867 10.018456451706001 1.0598572218200597 -1 0 0
1463 2 77.8884726495019 11.688199193657002 -0.014162182831662666 -1 0 0
1466 5 81.25116411168929 11.688199193657002 1.3162447647653466 -1 0 0
1385 1 80.40085603849512 6.678970967804001 2.389348147419671 -1 0 0
1465 1 80.40085603849512 10.018456451706001 2.3893481474196725 -1 0 0
1388 6 83.76338518264967 6.678970967804001 1.059857221820056 -1 0 0
1387 2 82.91323060827291 8.348713709755 -0.014162182831658354 -1 0 0
1390 5 86.27592207046028 8.348713709755 1.316244764765346 -1 0 0
1391 2 87.9379885670439 8.348713709755001 -0.014162182831657115 -1 0 0
1468 6 83.76338518264967 10.018456451706001 1.0598572218200581 -1 0 0
1467 2 82.91323060827291 11.688199193657002 -0.014162182831658146 -1 0 0
1470 5 86.27592207046028 11.688199193657002 1.316244764765346 -1 0 0
1471 2 87.9379885670439 11.688199193657002 -0.0141621828316569 -1 0 0
1389 1 85.42561399726613 6.678970967804001 2.3893481474196707 -1 0 0
1469 1 85.42561399726613 10.018456451706001 2.3893481474196725 -1 0 0
1392 6 88.78814314142068 6.678970967804001 1.0598572218200606 -1 0 0
1396 6 93.81290110019167 6.678970967804002 1.059857221820058 -1 0 0
1394 5 91.30068002923129 8.348713709755 1.3162447647653484 -1 0 0
1395 2 92.96274652581491 8.348713709755001 -0.014162182831663095 -1 0 0
1472 6 88.78814314142068 10.018456451706001 1.0598572218200628 -1 0 0
1476 6 93.81290110019167 10.018456451706001 1.0598572218200597 -1 0 0
1474 5 91.30068002923129 11.688199193657002 1.3162447647653484 -1 0 0
1475 2 92.96274652581491 11.688199193657002 -0.014162182831662857 -1 0 0
1393 1 90.45037195603713 6.678970967804001 2.389348147419672 -1 0 0
1473 1 90.45037195603713 10.018456451706001 2.389348147419674 -1 0 0
1400 6 98.83765905896267 6.678970967804001 1.059857221820057 -1 0 0
1398 5 96.32543798800229 8.348713709755 1.3162447647653464 -1 0 0
1399 2 97.98750448458591 8.348713709755 -0.014162182831658418 -1 0 0
1480 6 98.83765905896267 10.018456451706001 1.0598572218200586 -1 0 0
1478 5 96.32543798800229 11.688199193657002 1.3162447647653466 -1 0 0
1479 2 97.98750448458591 11.688199193657002 -0.014162182831658323 -1 0 0
1397 1 95.47512991480812 6.678970967804001 2.389348147419671 -1 0 0
1477 1 95.47512991480812 10.018456451706001 2.3893481474196725 -1 0 0
1564 6 3.3672578423136685 13.357941935608002 1.0598572218200586 0 0 0
1562 5 0.8550367713532885 15.027684677559002 1.3162447647653484 0 0 0
1563 2 2.5171032679369065 15.027684677559002 -0.014162182831664101 0 0 0
1566 5 5.879794730124286 15.027684677559002 1.3162447647653481 0 0 0
1644 6 3.367257842313669 16.69742741951 1.05985722182006 0 0 0
1561 1 0.004728698159124322 13.357941935608002 2.3893481474196716 0 0 0
1565 1 5.02948665693012 13.357941935608002 2.3893481474196707 0 0 0
1641 1 0.004728698159123389 16.69742741951 2.389348147419674 0 0 0
1645 1 5.02948665693012 16.69742741951 2.3893481474196734 0 0 0
1568 6 8.392015801084666 13.357941935608002 1.0598572218200584 0 0 0
1567 2 7.541861226707904 15.027684677559002 -0.014162182831663914 0 0 0
1570 5 10.904552688895285 15.027684677559002 1.3162447647653472 0 0 0
1648 6 8.392015801084668 16.69742741951 1.0598572218200597 0 0 0
1569 1 10.054244615701121 13.357941935608002 2.389348147419669 0 0 0
1649 1 10.05424461570112 16.69742741951 2.3893481474196716 0 0 0
1572 6 13.416773759855667 13.357941935608 1.0598572218200601 0 0 0
1571 2 12.566619185478906 15.027684677559 -0.014162182831661669 0 0 0
1575 2 17.591377144249904 15.027684677559002 -0.014162182831662299 0 0 0
1574 5 15.929310647666282 15.027684677559002 1.316244764765348 0 0 0
1652 6 13.416773759855667 16.69742741951 1.0598572218200615 0 0 0
1573 1 15.07900257447212 13.357941935608 2.3893481474196716 0 0 0
1653 1 15.079002574472119 16.69742741951 2.3893481474196743 0 0 0
1576 6 18.441531718626667 13.357941935608002 1.059857221820059 0 0 0
1580 6 23.46628967739767 13.357941935608002 1.0598572218200586 0 0 0
1578 5 20.954068606437286 15.027684677559 1.3162447647653468 0 0 0
1579 2 22.616135103020905 15.027684677559002 -0.014162182831665399 0 0 0
1656 6 18.441531718626667 16.69742741951 1.0598572218200613 0 0 0
1660 6 23.46628967739767 16.69742741951 1.0598572218200595 0 0 0
1577 1 20.10376053324312 13.357941935608 2.3893481474196694 0 0 0
1657 1 20.10376053324312 16.69742741951 2.3893481474196716 0 0 0
1584 6 28.49104763616867 13.357941935608 1.0598572218200597 0 0 0
1582 5 25.97882656520829 15.027684677559 1.3162447647653495 0 0 0
1583 2 27.640893061791907 15.027684677559002 -0.014162182831663194 0 0 0
1664 6 28.49104763616867 16.69742741951 1.0598572218200595 0 0 0
1581 1 25.12851849201412 13.357941935608002 2.389348147419669 0 0 0
1661 1 25.128518492014123 16.69742741951 2.389348147419672 0 0 0
1588 6 33.515805594939664 13.357941935608 1.0598572218200593 0 0 0
1586 5 31.003584523979285 15.027684677559002 1.3162447647653472 0 0 0
1587 2 32.6656510205629 15.027684677559002 -0.014162182831665539 0 0 0
1668 6 33.515805594939664 16.69742741951 1.05985722182006 0 0 0
1585 1 30.15327645078512 13.357941935608 2.3893481474196716 0 0 0
1589 1 35.17803440955612 13.357941935608002 2.3893481474196685 0 0 0
1665 1 30.15327645078512 16.69742741951 2.389348147419675 0 0 0
1669 1 35.17803440955611 16.69742741951 2.389348147419671 0 0 0
1592 6 38.54056355371067 13.357941935608 1.0598572218200593 0 0 0
1590 5 36.02834248275028 15.027684677559002 1.3162447647653495 0 0 0
1591 2 37.6904089793339 15.027684677559002 -0.014162182831663686 0 0 0
1594 5 41.05310044152129 15.027684677559002 1.3162447647653492 0 0 0
1672 6 38.54056355371067 16.69742741951 1.05985722182006 0 0 0
1593 1 40.202792368327124 13.357941935608002 2.3893481474196685 0 0 0
1673 1 40.20279236832712 16.69742741951 2.3893481474196707 0 0 0
1596 6 43.565321512481674 13.357941935608 1.0598572218200593 0 0 0
1595 2 42.71516693810491 15.027684677559002 -0.014162182831663504 0 0 0
1598 5 46.077858400292286 15.027684677559 1.3162447647653486 0 0 0
1676 6 43.565321512481674 16.69742741951 1.0598572218200617 0 0 0
1597 1 45.22755032709812 13.357941935608002 2.3893481474196716 0 0 0
1677 1 45.22755032709812 16.69742741951 2.3893481474196734 0 0 0
1600 6 48.590079471252665 13.357941935608 1.0598572218200588 0 0 0
1599 2 47.739924896875905 15.027684677559002 -0.014162182831664143 0 0 0
1522 5 51.10261635906328 15.027684677559002 1.3162447647653475 -1 0 0
1523 2 52.7646828556469 15.027684677559002 -0.014162182831664347 -1 0 0
1680 6 48.590079471252665 16.69742741951 1.0598572218200593 0 0 0
1521 1 50.25230828586912 13.357941935608 2.3893481474196694 -1 0 0
1601 1 50.25230828586912 16.69742741951 2.389348147419672 -1 0 0
1524 6 53.61483743002367 13.357941935608 1.0598572218200584 -1 0 0
1528 6 58.63959538879467 13.357941935608 1.0598572218200584 -1 0 0
1526 5 56.12737431783428 15.027684677559 1.3162447647653477 -1 0 0
1527 2 57.7894408144179 15.027684677559002 -0.01416218283166417 -1 0 0
1604 6 53.61483743002367 16.69742741951 1.059857221820061 -1 0 0
1608 6 58.63959538879467 16.69742741951 1.059857221820061 -1 0 0
1525 1 55.27706624464012 13.357941935608 2.3893481474196703 -1 0 0
1605 1 55.27706624464012 16.69742741951 2.3893481474196725 -1 0 0
1532 6 63.66435334756567 13.357941935608 1.0598572218200597 -1 0 0
1530 5 61.152132276605286 15.027684677559002 1.3162447647653486 -1 0 0
1531 2 62.814198773188906 15.027684677559 -0.014162182831660566 -1 0 0
1612 6 63.66435334756567 16.69742741951 1.0598572218200626 -1 0 0
1529 1 60.301824203411115 13.357941935608 2.3893481474196685 -1 0 0
1609 1 60.301824203411115 16.69742741951 2.3893481474196707 -1 0 0
1536 6 68.68911130633667 13.357941935608 1.0598572218200577 -1 0 0
1534 5 66.17689023537629 15.027684677559 1.3162447647653457 -1 0 0
1535 2 67.83895673195991 15.027684677559002 -0.014162182831664932 -1 0 0
1616 6 68.68911130633667 16.69742741951 1.0598572218200604 -1 0 0
1533 1 65.32658216218212 13.357941935608 2.38934814741967 -1 0 0
1537 1 70.35134012095313 13.357941935608002 2.389348147419671 -1 0 0
1613 1 65.32658216218212 16.69742741951 2.389348147419672 -1 0 0
1617 1 70.35134012095313 16.69742741951 2.389348147419673 -1 0 0
1540 6 73.71386926510768 13.357941935608 1.0598572218200557 -1 0 0
1538 5 71.2016481941473 15.027684677559002 1.316244764765344 -1 0 0
1539 2 72.86371469073092 15.027684677559002 -0.014162182831660328 -1 0 0
1542 5 76.22640615291829 15.027684677559002 1.3162447647653484 -1 0 0
1620 6 73.71386926510768 16.69742741951 1.0598572218200586 -1 0 0
1541 1 75.37609807972412 13.357941935608 2.3893481474196734 -1 0 0
1621 1 75.37609807972412 16.69742741951 2.389348147419675 -1 0 0
1544 6 78.73862722387867 13.357941935608 1.0598572218200577 -1 0 0
1543 2 77.8884726495019 15.027684677559002 -0.014162182831664741 -1 0 0
1546 5 81.25116411168929 15.027684677559002 1.316244764765344 -1 0 0
1624 6 78.73862722387867 16.69742741951 1.0598572218200604 -1 0 0
1545 1 80.40085603849512 13.357941935608002 2.3893481474196716 -1 0 0
1625 1 80.40085603849512 16.69742741951 2.389348147419674 -1 0 0
1548 6 83.76338518264967 13.357941935608 1.059857221820056 -1 0 0
1547 2 82.91323060827291 15.027684677559002 -0.01416218283166033 -1 0 0
1550 5 86.27592207046028 15.027684677559 1.3162447647653435 -1 0 0
1551 2 87.9379885670439 15.027684677559002 -0.014162182831659287 -1 0 0
1628 6 83.76338518264967 16.69742741951 1.0598572218200586 -1 0 0
1549 1 85.42561399726613 13.357941935608 2.3893481474196707 -1 0 0
1629 1 85.42561399726613 16.69742741951 2.3893481474196734 -1 0 0
1552 6 88.78814314142068 13.357941935608 1.0598572218200606 -1 0 0
1556 6 93.81290110019167 13.357941935608 1.0598572218200577 -1 0 0
1554 5 91.30068002923129 15.027684677559 1.316244764765346 -1 0 0