LAMMPS data file via write_data, version 29 Aug 2024, timestep = 2, units = metal

7200 atoms
12 atom types

0 100.49515917542 xlo xhi
0 100.18456451706 ylo yhi
-50 50 zlo zhi

Masses

1 118.71
2 118.71
3 118.71
4 118.71
5 118.71
6 118.71
7 15.999
8 15.999
9 15.999
10 15.999
11 15.999
12 15.999

Atoms # atomic

1242 7 0.8549916349881961 1.6697427419510023 1.3162186367581887 0 0 0
1243 2 2.5171263245378874 1.6697427419510023 -0.014270248261101778 0 0 0
1244 8 3.367267655617747 2.9207976594564777e-15 1.0600348203429648 0 0 0
1246 7 5.879749593759194 1.6697427419510023 1.3162186367581887 0 0 0
1324 8 3.367267655617747 3.3394854839020023 1.0600348203429657 0 0 0
1322 7 0.854991634988196 5.0092282258530005 1.3162186367581876 0 0 0
1323 2 2.5171263245378874 5.009228225853001 -0.014270248261104089 0 0 0
1326 7 5.879749593759194 5.009228225853001 1.3162186367581876 0 0 0
1241 1 0.004741097863920676 2.4425253484121716e-15 2.3897905834794204 0 0 0
1245 1 5.029499056634921 2.4363235654251312e-15 2.3897905834794217 0 0 0
1321 1 0.004741097863924728 3.3394854839020023 2.3897905834794253 0 0 0
1325 1 5.02949905663492 3.3394854839020023 2.389790583479424 0 0 0
1247 2 7.541884283308885 1.6697427419510023 -0.014270248261101808 0 0 0
1248 8 8.392025614388745 2.957912280244096e-15 1.0600348203429641 0 0 0
1250 7 10.904507552530193 1.669742741951002 1.3162186367581883 0 0 0
1328 8 8.392025614388745 3.3394854839020023 1.0600348203429653 0 0 0
1327 2 7.541884283308885 5.009228225853001 -0.014270248261104106 0 0 0
1330 7 10.904507552530193 5.009228225853001 1.3162186367581872 0 0 0
1249 1 10.05425701540592 2.6553634056842694e-15 2.3897905834794204 0 0 0
1329 1 10.05425701540592 3.3394854839020023 2.389790583479422 0 0 0
1251 2 12.566642242079887 1.6697427419510025 -0.014270248261099813 0 0 0
1252 8 13.416783573159746 2.6384050168603525e-15 1.0600348203429664 0 0 0
1255 2 17.591400200850888 1.6697427419510027 -0.014270248261099343 0 0 0
1254 7 15.92926551130119 1.6697427419510023 1.3162186367581872 0 0 0
1332 8 13.416783573159746 3.3394854839020023 1.0600348203429673 0 0 0
1331 2 12.566642242079887 5.009228225853001 -0.014270248261102157 0 0 0
1335 2 17.591400200850885 5.009228225853001 -0.014270248261101804 0 0 0
1334 7 15.92926551130119 5.009228225853001 1.3162186367581865 0 0 0
1253 1 15.07901497417692 2.5754644959508427e-15 2.389790583479423 0 0 0
1333 1 15.07901497417692 3.3394854839020023 2.3897905834794253 0 0 0
1256 8 18.441541531930742 2.7349815991923995e-15 1.0600348203429664 0 0 0
1258 7 20.954023470072194 1.6697427419510025 1.3162186367581872 0 0 0
1259 2 22.616158159621886 1.6697427419510023 -0.014270248261103213 0 0 0
1260 8 23.466299490701747 2.4261154813976814e-15 1.060034820342964 0 0 0
1336 8 18.441541531930746 3.3394854839020023 1.060034820342966 0 0 0
1340 8 23.466299490701747 3.3394854839020023 1.0600348203429664 0 0 0
1338 7 20.954023470072194 5.0092282258530005 1.3162186367581856 0 0 0
1339 2 22.616158159621886 5.009228225853001 -0.014270248261105373 0 0 0
1257 1 20.10377293294792 2.7362397102128817e-15 2.38979058347942 0 0 0
1337 1 20.10377293294792 3.339485483902002 2.389790583479423 0 0 0
1262 7 25.9787814288432 1.669742741951002 1.3162186367581885 0 0 0
1263 2 27.64091611839289 1.6697427419510018 -0.014270248261100045 0 0 0
1264 8 28.49105744947275 2.557547232797435e-15 1.0600348203429646 0 0 0
1344 8 28.49105744947275 3.3394854839020023 1.060034820342966 0 0 0
1342 7 25.9787814288432 5.009228225853001 1.316218636758189 0 0 0
1343 2 27.64091611839289 5.009228225853001 -0.014270248261103008 0 0 0
1261 1 25.12853089171892 2.328850304861374e-15 2.389790583479421 0 0 0
1341 1 25.12853089171892 3.3394854839020023 2.3897905834794226 0 0 0
1266 7 31.003539387614193 1.6697427419510023 1.3162186367581878 0 0 0
1267 2 32.665674077163885 1.6697427419510023 -0.01427024826110317 0 0 0
1268 8 33.515815408243746 2.9509777883420874e-15 1.0600348203429653 0 0 0
1348 8 33.51581540824374 3.339485483902002 1.0600348203429657 0 0 0
1346 7 31.003539387614193 5.009228225853001 1.3162186367581872 0 0 0
1347 2 32.665674077163885 5.009228225853001 -0.014270248261105766 0 0 0
1265 1 30.153288850489922 2.3147228190824808e-15 2.389790583479423 0 0 0
1269 1 35.17804680926092 2.8742074841510006e-15 2.389790583479421 0 0 0
1345 1 30.153288850489922 3.3394854839020023 2.3897905834794253 0 0 0
1349 1 35.17804680926091 3.3394854839020014 2.389790583479423 0 0 0
1270 7 36.028297346385195 1.669742741951003 1.3162186367581885 0 0 0
1271 2 37.69043203593488 1.6697427419510023 -0.014270248261100274 0 0 0
1272 8 38.54057336701475 3.346919728654188e-15 1.0600348203429653 0 0 0
1274 7 41.0530553051562 1.6697427419510031 1.3162186367581883 0 0 0
1352 8 38.540573367014744 3.339485483902002 1.0600348203429657 0 0 0
1350 7 36.028297346385195 5.0092282258530005 1.3162186367581863 0 0 0
1351 2 37.69043203593488 5.009228225853001 -0.01427024826110222 0 0 0
1354 7 41.0530553051562 5.0092282258530005 1.3162186367581863 0 0 0
1273 1 40.202804768031925 2.7869640409211394e-15 2.389790583479421 0 0 0
1353 1 40.20280476803192 3.3394854839020014 2.3897905834794226 0 0 0
1275 2 42.71518999470589 1.669742741951002 -0.014270248261100058 0 0 0
1276 8 43.56533132578575 3.342725096713086e-15 1.060034820342965 0 0 0
1278 7 46.07781326392719 1.6697427419510018 1.3162186367581874 0 0 0
1356 8 43.56533132578575 3.339485483902002 1.0600348203429675 0 0 0
1355 2 42.71518999470589 5.009228225853001 -0.01427024826110189 0 0 0
1358 7 46.07781326392719 5.009228225853001 1.3162186367581854 0 0 0
1277 1 45.22756272680292 2.802454149109495e-15 2.3897905834794235 0 0 0
1357 1 45.22756272680292 3.339485483902002 2.3897905834794257 0 0 0
1279 2 47.739947953476886 1.6697427419510023 -0.014270248261100568 0 0 0
1280 8 48.59008928455675 3.132297958331446e-15 1.0600348203429646 0 0 0
1202 7 51.102571222698195 1.669742741951002 1.316218636758189 -1 0 0
1203 2 52.76470591224789 1.6697427419510023 -0.014270248261102469 -1 0 0
1360 8 48.59008928455675 3.339485483902002 1.0600348203429666 0 0 0
1359 2 47.739947953476886 5.009228225853001 -0.014270248261102557 0 0 0
1282 7 51.102571222698195 5.009228225853001 1.3162186367581865 -1 0 0
1283 2 52.76470591224789 5.009228225853001 -0.014270248261104441 -1 0 0
1201 1 50.25232068557392 2.7375806468103724e-15 2.389790583479421 -1 0 0
1281 1 50.25232068557392 3.339485483902002 2.3897905834794226 -1 0 0
1204 8 53.614847243327745 3.077689597052463e-15 1.060034820342964 -1 0 0
1206 7 56.12732918146919 1.6697427419510018 1.3162186367581898 -1 0 0
1207 2 57.78946387101889 1.6697427419510023 -0.014270248261102281 -1 0 0
1208 8 58.63960520209874 3.07762167493888e-15 1.0600348203429641 -1 0 0
1284 8 53.614847243327745 3.339485483902002 1.0600348203429664 -1 0 0
1288 8 58.63960520209874 3.339485483902002 1.0600348203429664 -1 0 0
1286 7 56.12732918146919 5.009228225853001 1.3162186367581876 -1 0 0
1287 2 57.78946387101889 5.009228225853001 -0.014270248261104406 -1 0 0
1205 1 55.27707864434492 2.84647766850515e-15 2.3897905834794217 -1 0 0
1285 1 55.27707864434492 3.339485483902002 2.3897905834794235 -1 0 0
1210 7 61.15208714024019 1.6697427419510018 1.3162186367581876 -1 0 0
1211 2 62.814221829789886 1.669742741951003 -0.014270248261097964 -1 0 0
1212 8 63.66436316086974 3.2301880695431116e-15 1.060034820342967 -1 0 0
1292 8 63.66436316086975 3.339485483902002 1.0600348203429664 -1 0 0
1290 7 61.15208714024019 5.009228225853001 1.3162186367581854 -1 0 0
1291 2 62.814221829789886 5.0092282258530005 -0.014270248261100018 -1 0 0
1209 1 60.301836603115916 2.8371047780382893e-15 2.389790583479421 -1 0 0
1289 1 60.301836603115916 3.339485483902002 2.3897905834794226 -1 0 0
1214 7 66.17684509901119 1.669742741951002 1.3162186367581883 -1 0 0
1215 2 67.83897978856089 1.669742741951004 -0.014270248261103069 -1 0 0
1216 8 68.68912111964075 3.174829836676551e-15 1.0600348203429661 -1 0 0
1296 8 68.68912111964075 3.3394854839020014 1.0600348203429624 -1 0 0
1294 7 66.17684509901119 5.009228225853001 1.3162186367581858 -1 0 0
1295 2 67.83897978856089 5.009228225853 -0.014270248261105277 -1 0 0
1213 1 65.32659456188692 3.0254086606751453e-15 2.3897905834794213 -1 0 0
1217 1 70.35135252065793 2.8513030166907307e-15 2.389790583479418 -1 0 0
1293 1 65.32659456188692 3.339485483902002 2.389790583479425 -1 0 0
1297 1 70.35135252065793 3.339485483902002 2.389790583479423 -1 0 0
1218 7 71.20160305778221 1.6697427419510023 1.3162186367581925 -1 0 0
1219 2 72.8637377473319 1.669742741951004 -0.014270248261101771 -1 0 0
1220 8 73.71387907841175 3.060281719737242e-15 1.0600348203429684 -1 0 0
1222 7 76.2263610165532 1.669742741951002 1.3162186367581874 -1 0 0
1300 8 73.71387907841175 3.339485483902002 1.0600348203429641 -1 0 0
1298 7 71.20160305778221 5.009228225853001 1.3162186367581903 -1 0 0
1299 2 72.8637377473319 5.009228225853 -0.014270248261103603 -1 0 0
1302 7 76.2263610165532 5.009228225853001 1.3162186367581852 -1 0 0
1221 1 75.37611047942892 2.828970851583224e-15 2.389790583479422 -1 0 0
1301 1 75.37611047942893 3.339485483902002 2.389790583479427 -1 0 0
1223 2 77.88849570610289 1.669742741951004 -0.014270248261103059 -1 0 0
1224 8 78.73863703718274 3.197432225408076e-15 1.0600348203429664 -1 0 0
1226 7 81.2511189753242 1.6697427419510023 1.3162186367581925 -1 0 0
1304 8 78.73863703718274 3.3394854839020014 1.0600348203429621 -1 0 0
1303 2 77.88849570610289 5.009228225853 -0.014270248261105126 -1 0 0
1306 7 81.25111897532419 5.009228225853001 1.3162186367581903 -1 0 0
1225 1 80.40086843819992 2.844060992667237e-15 2.3897905834794186 -1 0 0
1305 1 80.40086843819992 3.339485483902002 2.3897905834794235 -1 0 0
1227 2 82.91325366487389 1.669742741951004 -0.014270248261101773 -1 0 0
1228 8 83.76339499595375 3.078975019939026e-15 1.0600348203429681 -1 0 0
1230 7 86.2758769340952 1.6697427419510023 1.3162186367581892 -1 0 0
1231 2 87.93801162364488 1.669742741951004 -0.014270248261100463 -1 0 0
1308 8 83.76339499595375 3.339485483902002 1.0600348203429641 -1 0 0
1307 2 82.91325366487389 5.009228225853 -0.014270248261103602 -1 0 0
1310 7 86.2758769340952 5.009228225853001 1.316218636758187 -1 0 0
1311 2 87.9380116236449 5.009228225853 -0.01427024826110235 -1 0 0
1229 1 85.42562639697093 2.810511026720474e-15 2.3897905834794173 -1 0 0
1309 1 85.42562639697093 3.339485483902002 2.3897905834794226 -1 0 0
1232 8 88.78815295472474 2.9435907913448276e-15 1.0600348203429693 -1 0 0
1234 7 91.3006348928662 1.669742741951002 1.316218636758188 -1 0 0
1235 2 92.96276958241589 1.669742741951004 -0.01427024826110307 -1 0 0
1236 8 93.81291091349574 3.1974083246157478e-15 1.0600348203429664 -1 0 0
1312 8 88.78815295472475 3.339485483902002 1.0600348203429648 -1 0 0
1316 8 93.81291091349574 3.3394854839020014 1.0600348203429624 -1 0 0
1314 7 91.30063489286619 5.0092282258530005 1.3162186367581858 -1 0 0
1315 2 92.96276958241589 5.009228225853 -0.014270248261105288 -1 0 0
1233 1 90.45038435574192 2.8303921884185574e-15 2.3897905834794217 -1 0 0
1313 1 90.45038435574192 3.339485483902002 2.3897905834794266 -1 0 0
1238 7 96.3253928516372 1.6697427419510023 1.3162186367581925 -1 0 0
1239 2 97.98752754118689 1.6697427419510038 -0.014270248261101917 -1 0 0
1240 8 98.83766887226675 3.274768855639698e-15 1.060034820342968 -1 0 0
1320 8 98.83766887226675 3.339485483902002 1.0600348203429633 -1 0 0
1318 7 96.32539285163719 5.009228225853001 1.3162186367581903 -1 0 0
1319 2 97.98752754118689 5.009228225853 -0.014270248261103735 -1 0 0
1237 1 95.47514231451292 2.8426045478387547e-15 2.3897905834794186 -1 0 0
1317 1 95.47514231451292 3.339485483902002 2.3897905834794235 -1 0 0
1404 8 3.367267655617747 6.678970967804001 1.0600348203429646 0 0 0
1402 7 0.854991634988196 8.348713709755 1.3162186367581887 0 0 0
1403 2 2.5171263245378874 8.348713709755001 -0.014270248261101908 0 0 0
1406 7 5.879749593759194 8.348713709755 1.3162186367581887 0 0 0
1484 8 3.367267655617747 10.018456451706001 1.0600348203429655 0 0 0
1482 7 0.854991634988196 11.688199193657002 1.3162186367581887 0 0 0
1483 2 2.517126324537888 11.688199193657 -0.014270248261101692 0 0 0
1486 7 5.879749593759194 11.688199193657002 1.3162186367581887 0 0 0
1401 1 0.004741097863920662 6.678970967804001 2.3897905834794204 0 0 0
1405 1 5.029499056634921 6.678970967804001 2.3897905834794217 0 0 0
1481 1 0.004741097863924628 10.018456451706001 2.3897905834794253 0 0 0
1485 1 5.02949905663492 10.018456451706001 2.3897905834794244 0 0 0
1408 8 8.392025614388745 6.678970967804001 1.0600348203429641 0 0 0
1407 2 7.541884283308885 8.348713709755001 -0.014270248261101928 0 0 0
1410 7 10.904507552530193 8.348713709755 1.3162186367581885 0 0 0
1488 8 8.392025614388745 10.018456451706001 1.0600348203429653 0 0 0
1487 2 7.541884283308885 11.688199193657 -0.014270248261101723 0 0 0
1490 7 10.904507552530193 11.688199193657002 1.3162186367581885 0 0 0
1409 1 10.05425701540592 6.678970967804001 2.38979058347942 0 0 0
1489 1 10.05425701540592 10.018456451706001 2.389790583479422 0 0 0
1412 8 13.416783573159746 6.678970967804001 1.0600348203429664 0 0 0
1411 2 12.566642242079887 8.348713709755001 -0.014270248261099815 0 0 0
1415 2 17.591400200850885 8.348713709755001 -0.014270248261099452 0 0 0
1414 7 15.92926551130119 8.348713709755 1.3162186367581874 0 0 0
1492 8 13.416783573159746 10.018456451706001 1.0600348203429673 0 0 0
1491 2 12.566642242079887 11.688199193657 -0.014270248261100033 0 0 0
1495 2 17.591400200850885 11.688199193657 -0.014270248261099355 0 0 0
1494 7 15.92926551130119 11.688199193657002 1.3162186367581874 0 0 0
1413 1 15.07901497417692 6.678970967804001 2.3897905834794226 0 0 0
1493 1 15.07901497417692 10.018456451706001 2.3897905834794253 0 0 0
1416 8 18.441541531930742 6.678970967804001 1.0600348203429664 0 0 0
1420 8 23.466299490701747 6.678970967804001 1.060034820342964 0 0 0
1418 7 20.954023470072194 8.348713709755 1.3162186367581872 0 0 0
1419 2 22.616158159621886 8.348713709755001 -0.014270248261103215 0 0 0
1496 8 18.441541531930746 10.018456451706001 1.0600348203429661 0 0 0
1500 8 23.466299490701747 10.018456451706001 1.0600348203429664 0 0 0
1498 7 20.954023470072194 11.688199193657002 1.3162186367581872 0 0 0
1499 2 22.61615815962189 11.688199193657002 -0.01427024826110299 0 0 0
1417 1 20.10377293294792 6.678970967804002 2.38979058347942 0 0 0
1497 1 20.10377293294792 10.018456451706001 2.389790583479423 0 0 0
1424 8 28.49105744947275 6.678970967804001 1.0600348203429646 0 0 0
1422 7 25.9787814288432 8.348713709755 1.3162186367581885 0 0 0
1423 2 27.64091611839289 8.348713709755 -0.014270248261100158 0 0 0
1504 8 28.49105744947275 10.018456451706001 1.0600348203429661 0 0 0
1502 7 25.9787814288432 11.688199193657002 1.3162186367581885 0 0 0
1503 2 27.64091611839289 11.688199193657002 -0.014270248261099953 0 0 0
1421 1 25.12853089171892 6.678970967804001 2.389790583479421 0 0 0
1501 1 25.12853089171892 10.018456451706001 2.389790583479422 0 0 0
1428 8 33.515815408243746 6.678970967804002 1.0600348203429653 0 0 0
1426 7 31.003539387614193 8.348713709755001 1.316218636758188 0 0 0
1427 2 32.665674077163885 8.348713709755001 -0.014270248261103177 0 0 0
1508 8 33.51581540824374 10.018456451706001 1.0600348203429653 0 0 0
1506 7 31.003539387614193 11.688199193657 1.316218636758188 0 0 0
1507 2 32.665674077163885 11.688199193657002 -0.014270248261102948 0 0 0
1425 1 30.153288850489922 6.678970967804001 2.389790583479423 0 0 0
1429 1 35.17804680926092 6.678970967804001 2.3897905834794213 0 0 0
1505 1 30.153288850489922 10.018456451706001 2.3897905834794253 0 0 0
1509 1 35.17804680926091 10.018456451706001 2.389790583479422 0 0 0
1432 8 38.54057336701475 6.678970967804002 1.0600348203429653 0 0 0
1430 7 36.028297346385195 8.348713709755001 1.3162186367581883 0 0 0
1431 2 37.69043203593488 8.348713709755001 -0.014270248261100384 0 0 0
1434 7 41.0530553051562 8.348713709755001 1.3162186367581883 0 0 0
1512 8 38.540573367014744 10.018456451706001 1.0600348203429655 0 0 0
1510 7 36.028297346385195 11.688199193657 1.3162186367581887 0 0 0
1511 2 37.69043203593488 11.688199193657002 -0.014270248261100153 0 0 0
1514 7 41.0530553051562 11.688199193657 1.3162186367581885 0 0 0
1433 1 40.202804768031925 6.678970967804001 2.389790583479421 0 0 0
1513 1 40.20280476803192 10.018456451706001 2.389790583479422 0 0 0
1436 8 43.56533132578575 6.678970967804001 1.060034820342965 0 0 0
1435 2 42.71518999470589 8.348713709755 -0.014270248261100172 0 0 0
1438 7 46.07781326392719 8.348713709755 1.3162186367581876 0 0 0
1516 8 43.56533132578575 10.018456451706001 1.060034820342967 0 0 0
1515 2 42.71518999470589 11.688199193657002 -0.014270248261099967 0 0 0
1518 7 46.07781326392719 11.688199193657002 1.3162186367581876 0 0 0
1437 1 45.22756272680292 6.678970967804001 2.3897905834794235 0 0 0
1517 1 45.22756272680292 10.018456451706001 2.3897905834794253 0 0 0
1440 8 48.59008928455675 6.678970967804001 1.0600348203429644 0 0 0
1439 2 47.739947953476886 8.348713709755001 -0.014270248261100682 0 0 0
1362 7 51.102571222698195 8.348713709755 1.316218636758189 -1 0 0
1363 2 52.76470591224789 8.348713709755001 -0.014270248261102467 -1 0 0
1520 8 48.59008928455675 10.018456451706001 1.0600348203429664 0 0 0
1519 2 47.739947953476886 11.688199193657002 -0.014270248261100571 0 0 0
1442 7 51.102571222698195 11.688199193657002 1.316218636758189 -1 0 0
1443 2 52.76470591224789 11.688199193657002 -0.014270248261102353 -1 0 0
1361 1 50.25232068557392 6.678970967804001 2.3897905834794204 -1 0 0
1441 1 50.25232068557392 10.018456451706001 2.3897905834794226 -1 0 0
1364 8 53.614847243327745 6.678970967804002 1.060034820342964 -1 0 0
1368 8 58.63960520209874 6.678970967804002 1.0600348203429641 -1 0 0
1366 7 56.12732918146919 8.348713709755 1.31621863675819 -1 0 0
1367 2 57.78946387101889 8.348713709755001 -0.014270248261102288 -1 0 0
1444 8 53.614847243327745 10.018456451706001 1.0600348203429657 -1 0 0
1448 8 58.63960520209874 10.018456451706001 1.060034820342966 -1 0 0
1446 7 56.12732918146919 11.688199193657002 1.31621863675819 -1 0 0
1447 2 57.78946387101889 11.688199193657002 -0.014270248261102177 -1 0 0
1365 1 55.27707864434492 6.678970967804002 2.3897905834794217 -1 0 0
1445 1 55.27707864434492 10.018456451706001 2.3897905834794235 -1 0 0
1372 8 63.66436316086974 6.678970967804002 1.0600348203429668 -1 0 0
1370 7 61.15208714024019 8.348713709755 1.3162186367581878 -1 0 0
1371 2 62.814221829789886 8.348713709755001 -0.014270248261097981 -1 0 0
1452 8 63.66436316086975 10.018456451706001 1.0600348203429661 -1 0 0
1450 7 61.15208714024019 11.688199193657002 1.3162186367581878 -1 0 0
1451 2 62.814221829789886 11.688199193657 -0.014270248261098184 -1 0 0
1369 1 60.301836603115916 6.678970967804002 2.389790583479421 -1 0 0
1449 1 60.301836603115916 10.018456451706001 2.3897905834794226 -1 0 0
1376 8 68.68912111964075 6.678970967804002 1.0600348203429661 -1 0 0
1374 7 66.17684509901119 8.348713709755001 1.3162186367581883 -1 0 0
1375 2 67.83897978856089 8.348713709755003 -0.014270248261103178 -1 0 0
1456 8 68.68912111964075 10.018456451706001 1.060034820342962 -1 0 0
1454 7 66.17684509901119 11.688199193657 1.3162186367581883 -1 0 0
1455 2 67.83897978856089 11.688199193657 -0.014270248261102942 -1 0 0
1373 1 65.32659456188692 6.678970967804001 2.3897905834794213 -1 0 0
1377 1 70.35135252065793 6.678970967804001 2.3897905834794186 -1 0 0
1453 1 65.32659456188692 10.018456451706001 2.3897905834794244 -1 0 0
1457 1 70.35135252065793 10.018456451706001 2.3897905834794226 -1 0 0
1380 8 73.71387907841175 6.678970967804001 1.0600348203429681 -1 0 0
1378 7 71.20160305778221 8.348713709755001 1.3162186367581923 -1 0 0
1379 2 72.8637377473319 8.348713709755001 -0.014270248261101771 -1 0 0
1382 7 76.2263610165532 8.348713709755 1.3162186367581876 -1 0 0
1460 8 73.71387907841175 10.018456451706001 1.0600348203429637 -1 0 0
1458 7 71.20160305778221 11.688199193657002 1.3162186367581925 -1 0 0
1459 2 72.8637377473319 11.688199193657 -0.014270248261101529 -1 0 0
1462 7 76.2263610165532 11.688199193657002 1.3162186367581876 -1 0 0
1381 1 75.37611047942892 6.678970967804001 2.3897905834794217 -1 0 0
1461 1 75.37611047942893 10.018456451706001 2.389790583479427 -1 0 0
1384 8 78.73863703718274 6.678970967804002 1.0600348203429664 -1 0 0
1383 2 77.88849570610289 8.348713709755003 -0.014270248261103168 -1 0 0
1386 7 81.2511189753242 8.348713709755 1.3162186367581925 -1 0 0
1464 8 78.73863703718274 10.018456451706001 1.060034820342962 -1 0 0
1463 2 77.88849570610289 11.688199193657 -0.014270248261102928 -1 0 0
1466 7 81.2511189753242 11.688199193657002 1.3162186367581925 -1 0 0
1385 1 80.40086843819992 6.678970967804001 2.3897905834794186 -1 0 0
1465 1 80.40086843819992 10.018456451706001 2.3897905834794226 -1 0 0
1388 8 83.76339499595375 6.678970967804001 1.060034820342968 -1 0 0
1387 2 82.91325366487389 8.348713709755001 -0.014270248261101771 -1 0 0
1390 7 86.2758769340952 8.348713709755 1.3162186367581892 -1 0 0
1391 2 87.93801162364488 8.348713709755003 -0.014270248261100455 -1 0 0
1468 8 83.76339499595375 10.018456451706001 1.0600348203429637 -1 0 0
1467 2 82.91325366487389 11.688199193657 -0.014270248261101535 -1 0 0
1470 7 86.2758769340952 11.688199193657002 1.3162186367581892 -1 0 0
1471 2 87.93801162364488 11.688199193657 -0.014270248261100215 -1 0 0
1389 1 85.42562639697093 6.678970967804001 2.3897905834794178 -1 0 0
1469 1 85.42562639697093 10.018456451706001 2.389790583479422 -1 0 0
1392 8 88.78815295472474 6.678970967804001 1.060034820342969 -1 0 0
1396 8 93.81291091349574 6.678970967804002 1.0600348203429664 -1 0 0
1394 7 91.3006348928662 8.348713709755001 1.316218636758188 -1 0 0
1395 2 92.96276958241589 8.348713709755003 -0.014270248261103177 -1 0 0
1472 8 88.78815295472475 10.018456451706001 1.0600348203429644 -1 0 0
1476 8 93.81291091349574 10.018456451706001 1.060034820342962 -1 0 0
1474 7 91.3006348928662 11.688199193657 1.316218636758188 -1 0 0
1475 2 92.96276958241589 11.688199193657 -0.01427024826110294 -1 0 0
1393 1 90.45038435574192 6.678970967804001 2.3897905834794217 -1 0 0
1473 1 90.45038435574192 10.018456451706001 2.3897905834794266 -1 0 0
1400 8 98.83766887226675 6.678970967804001 1.060034820342968 -1 0 0
1398 7 96.3253928516372 8.348713709755 1.3162186367581925 -1 0 0
1399 2 97.98752754118689 8.348713709755001 -0.014270248261102004 -1 0 0
1480 8 98.83766887226675 10.018456451706001 1.060034820342963 -1 0 0
1478 7 96.3253928516372 11.688199193657002 1.3162186367581925 -1 0 0
1479 2 97.98752754118689 11.688199193657 -0.014270248261101775 -1 0 0
1397 1 95.47514231451292 6.678970967804001 2.3897905834794186 -1 0 0
1477 1 95.47514231451292 10.018456451706001 2.3897905834794226 -1 0 0
1564 8 3.367267655617747 13.357941935608 1.0600348203429648 0 0 0
1562 7 0.854991634988196 15.027684677559002 1.3162186367581876 0 0 0
1563 2 2.5171263245378874 15.027684677559002 -0.014270248261104335 0 0 0
1566 7 5.879749593759194 15.027684677559002 1.3162186367581876 0 0 0
1644 8 3.367267655617747 16.69742741951 1.060034820342966 0 0 0
1561 1 0.0047410978639206595 13.357941935608 2.3897905834794204 0 0 0
1565 1 5.029499056634921 13.357941935608 2.3897905834794217 0 0 0
1641 1 0.0047410978639246615 16.69742741951 2.3897905834794253 0 0 0
1645 1 5.02949905663492 16.69742741951 2.3897905834794244 0 0 0
1568 8 8.392025614388745 13.357941935608 1.0600348203429641 0 0 0
1567 2 7.541884283308885 15.027684677559002 -0.014270248261104353 0 0 0
1570 7 10.904507552530193 15.027684677559002 1.3162186367581872 0 0 0
1648 8 8.392025614388745 16.69742741951 1.0600348203429655 0 0 0
1569 1 10.05425701540592 13.357941935608 2.38979058347942 0 0 0
1649 1 10.05425701540592 16.69742741951 2.3897905834794226 0 0 0
1572 8 13.416783573159746 13.357941935608 1.0600348203429664 0 0 0
1571 2 12.566642242079887 15.027684677559 -0.014270248261101945 0 0 0
1575 2 17.591400200850885 15.027684677559002 -0.014270248261102013 0 0 0
1574 7 15.92926551130119 15.027684677559002 1.3162186367581865 0 0 0
1652 8 13.416783573159746 16.69742741951 1.0600348203429675 0 0 0
1573 1 15.07901497417692 13.357941935608 2.3897905834794226 0 0 0
1653 1 15.07901497417692 16.69742741951 2.3897905834794257 0 0 0
1576 8 18.441541531930742 13.357941935608002 1.0600348203429664 0 0 0
1580 8 23.466299490701747 13.357941935608002 1.060034820342964 0 0 0
1578 7 20.954023470072194 15.027684677559002 1.3162186367581856 0 0 0
1579 2 22.616158159621886 15.027684677559002 -0.014270248261105522 0 0 0
1656 8 18.441541531930742 16.69742741951 1.0600348203429661 0 0 0
1660 8 23.466299490701747 16.69742741951 1.0600348203429661 0 0 0
1577 1 20.10377293294792 13.357941935608 2.38979058347942 0 0 0
1657 1 20.10377293294792 16.69742741951 2.3897905834794235 0 0 0
1584 8 28.49105744947275 13.357941935608002 1.0600348203429646 0 0 0
1582 7 25.9787814288432 15.027684677559 1.3162186367581887 0 0 0
1583 2 27.64091611839289 15.027684677559002 -0.014270248261103107 0 0 0
1664 8 28.49105744947275 16.69742741951 1.060034820342966 0 0 0
1581 1 25.12853089171892 13.357941935608002 2.389790583479421 0 0 0
1661 1 25.12853089171892 16.69742741951 2.3897905834794226 0 0 0
1588 8 33.515815408243746 13.357941935608 1.0600348203429653 0 0 0
1586 7 31.003539387614193 15.027684677559002 1.3162186367581872 0 0 0
1587 2 32.665674077163885 15.027684677559002 -0.01427024826110601 0 0 0
1668 8 33.51581540824374 16.69742741951 1.0600348203429661 0 0 0
1585 1 30.153288850489922 13.357941935608002 2.389790583479423 0 0 0
1589 1 35.17804680926092 13.357941935608002 2.389790583479421 0 0 0
1665 1 30.153288850489922 16.69742741951 2.3897905834794253 0 0 0
1669 1 35.17804680926091 16.69742741951 2.3897905834794235 0 0 0
1592 8 38.54057336701475 13.357941935608 1.0600348203429653 0 0 0
1590 7 36.028297346385195 15.027684677559002 1.316218636758186 0 0 0
1591 2 37.69043203593488 15.027684677559002 -0.014270248261102467 0 0 0
1594 7 41.0530553051562 15.027684677559002 1.316218636758186 0 0 0
1672 8 38.540573367014744 16.69742741951 1.0600348203429664 0 0 0
1593 1 40.202804768031925 13.357941935608002 2.389790583479421 0 0 0
1673 1 40.20280476803192 16.69742741951 2.3897905834794235 0 0 0
1596 8 43.56533132578575 13.357941935608 1.0600348203429653 0 0 0
1595 2 42.71518999470589 15.027684677559002 -0.014270248261102108 0 0 0
1598 7 46.07781326392719 15.027684677559 1.3162186367581854 0 0 0
1676 8 43.56533132578575 16.69742741951 1.0600348203429677 0 0 0
1597 1 45.22756272680292 13.357941935608 2.3897905834794235 0 0 0
1677 1 45.22756272680292 16.69742741951 2.3897905834794257 0 0 0
1600 8 48.59008928455675 13.357941935608 1.0600348203429646 0 0 0
1599 2 47.739947953476886 15.027684677559002 -0.014270248261102804 0 0 0
1522 7 51.102571222698195 15.027684677559 1.3162186367581865 -1 0 0
1523 2 52.76470591224789 15.027684677559002 -0.01427024826110455 -1 0 0
1680 8 48.59008928455675 16.69742741951 1.060034820342967 0 0 0
1521 1 50.25232068557392 13.357941935608 2.3897905834794204 -1 0 0
1601 1 50.25232068557392 16.69742741951 2.389790583479423 -1 0 0
1524 8 53.614847243327745 13.357941935608 1.060034820342964 -1 0 0
1528 8 58.63960520209874 13.357941935608 1.0600348203429641 -1 0 0
1526 7 56.12732918146919 15.027684677559002 1.3162186367581876 -1 0 0
1527 2 57.78946387101889 15.027684677559002 -0.01427024826110452 -1 0 0
1604 8 53.614847243327745 16.69742741951 1.0600348203429668 -1 0 0
1608 8 58.63960520209874 16.69742741951 1.0600348203429668 -1 0 0
1525 1 55.27707864434492 13.357941935608 2.3897905834794217 -1 0 0
1605 1 55.27707864434492 16.69742741951 2.389790583479424 -1 0 0
1532 8 63.66436316086974 13.357941935608 1.0600348203429668 -1 0 0
1530 7 61.15208714024019 15.027684677559002 1.3162186367581854 -1 0 0
1531 2 62.814221829789886 15.027684677559002 -0.01427024826109978 -1 0 0
1612 8 63.66436316086975 16.69742741951 1.0600348203429668 -1 0 0
1529 1 60.301836603115916 13.357941935608 2.389790583479421 -1 0 0
1609 1 60.301836603115916 16.69742741951 2.389790583479423 -1 0 0
1536 8 68.68912111964075 13.357941935608 1.0600348203429661 -1 0 0
1534 7 66.17684509901119 15.027684677559002 1.3162186367581858 -1 0 0
1535 2 67.83897978856089 15.027684677559003 -0.014270248261105381 -1 0 0
1616 8 68.68912111964075 16.69742741951 1.0600348203429628 -1 0 0
1533 1 65.32659456188692 13.357941935608 2.3897905834794213 -1 0 0
1537 1 70.35135252065793 13.357941935608002 2.389790583479418 -1 0 0
1613 1 65.32659456188692 16.69742741951 2.3897905834794253 -1 0 0
1617 1 70.35135252065793 16.69742741951 2.3897905834794235 -1 0 0
1540 8 73.71387907841175 13.357941935608 1.0600348203429681 -1 0 0
1538 7 71.20160305778221 15.027684677559002 1.31621863675819 -1 0 0
1539 2 72.8637377473319 15.027684677559003 -0.014270248261103832 -1 0 0
1542 7 76.2263610165532 15.027684677559002 1.3162186367581852 -1 0 0
1620 8 73.71387907841175 16.69742741951 1.0600348203429646 -1 0 0
1541 1 75.37611047942892 13.357941935608 2.3897905834794217 -1 0 0
1621 1 75.37611047942893 16.69742741951 2.3897905834794275 -1 0 0
1544 8 78.73863703718274 13.357941935608 1.0600348203429661 -1 0 0
1543 2 77.88849570610289 15.027684677559003 -0.014270248261105007 -1 0 0
1546 7 81.2511189753242 15.027684677559002 1.31621863675819 -1 0 0
1624 8 78.73863703718274 16.69742741951 1.0600348203429626 -1 0 0
1545 1 80.40086843819992 13.357941935608002 2.3897905834794186 -1 0 0
1625 1 80.40086843819992 16.69742741951 2.389790583479424 -1 0 0
1548 8 83.76339499595375 13.357941935608 1.060034820342968 -1 0 0
1547 2 82.91325366487389 15.027684677559003 -0.014270248261103827 -1 0 0
1550 7 86.2758769340952 15.027684677559002 1.316218636758187 -1 0 0
1551 2 87.9380116236449 15.027684677559003 -0.01427024826110259 -1 0 0
1628 8 83.76339499595375 16.69742741951 1.0600348203429646 -1 0 0
1549 1 85.42562639697093 13.357941935608 2.3897905834794178 -1 0 0
1629 1 85.42562639697093 16.69742741951 2.3897905834794226 -1 0 0
1552 8 88.78815295472474 13.357941935608 1.060034820342969 -1 0 0
1556 8 93.81291091349574 13.357941935608 1.0600348203429661 -1 0 0