LAMMPS data file via write_data, version 29 Aug 2024, timestep = 0, units = metal

2400 atoms
4 atom types

0 100.49515917542 xlo xhi
0 100.18456451706 ylo yhi
0 32.15 zlo zhi

Masses

1 118.71
2 118.71
3 15.999
4 15.999

Atoms # atomic

1242 3 0.8596843104960001 1.669742741951005 1.3219719795929983 0 0 0
1243 2 2.512378979384998 1.669742741951005 0 0 0 0
1244 4 3.372063289882 0 1.0483773423089993 0 0 0
1246 3 5.884442269266998 1.669742741951005 1.3219719795929983 0 0 0
1247 2 7.537136938155996 1.669742741951005 0 0 0 0
1248 4 8.396821248652998 0 1.0483773423089993 0 0 0
1250 3 10.909200228037996 1.669742741951005 1.3219719795929983 0 0 0
1251 2 12.561894896927 1.669742741951005 0 0 0 0
1252 4 13.421579207423996 0 1.0483773423089993 0 0 0
1255 2 17.58665285569799 1.669742741951005 0 0 0 0
1254 3 15.933958186808994 1.669742741951005 1.3219719795929983 0 0 0
1256 4 18.446337166194994 0 1.0483773423089993 0 0 0
1258 3 20.95871614558 1.669742741951005 1.3219719795929983 0 0 0
1259 2 22.611410814468996 1.669742741951005 0 0 0 0
1260 4 23.471095124966 0 1.0483773423089993 0 0 0
1262 3 25.983474104351004 1.669742741951005 1.3219719795929983 0 0 0
1263 2 27.63616877324 1.669742741951005 0 0 0 0
1264 4 28.495853083737003 0 1.0483773423089993 0 0 0
1266 3 31.008232063121994 1.669742741951005 1.3219719795929983 0 0 0
1267 2 32.66092673201099 1.669742741951005 0 0 0 0
1268 4 33.520611042507994 0 1.0483773423089993 0 0 0
1270 3 36.032990021893 1.669742741951005 1.3219719795929983 0 0 0
1271 2 37.685684690782 1.669742741951005 0 0 0 0
1272 4 38.545369001279 0 1.0483773423089993 0 0 0
1274 3 41.057747980664004 1.669742741951005 1.3219719795929983 0 0 0
1275 2 42.710442649553 1.669742741951005 0 0 0 0
1276 4 43.570126960050004 0 1.0483773423089993 0 0 0
1278 3 46.082505939434995 1.669742741951005 1.3219719795929983 0 0 0
1279 2 47.73520060832399 1.669742741951005 0 0 0 0
1280 4 48.594884918820995 0 1.0483773423089993 0 0 0
1202 3 51.107263898206 1.669742741951005 1.3219719795929983 -1 0 0
1203 2 52.759958567095 1.669742741951005 0 -1 0 0
1204 4 53.619642877592 0 1.0483773423089993 -1 0 0
1206 3 56.132021856977 1.669742741951005 1.3219719795929983 -1 0 0
1207 2 57.784716525865996 1.669742741951005 0 -1 0 0
1208 4 58.644400836363 0 1.0483773423089993 -1 0 0
1210 3 61.156779815747996 1.669742741951005 1.3219719795929983 -1 0 0
1211 2 62.809474484637 1.669742741951005 0 -1 0 0
1212 4 63.669158795133995 0 1.0483773423089993 -1 0 0
1214 3 66.181537774519 1.669742741951005 1.3219719795929983 -1 0 0
1215 2 67.834232443408 1.669742741951005 0 -1 0 0
1216 4 68.693916753905 0 1.0483773423089993 -1 0 0
1218 3 71.20629573329 1.669742741951005 1.3219719795929983 -1 0 0
1219 2 72.858990402179 1.669742741951005 0 -1 0 0
1220 4 73.718674712676 0 1.0483773423089993 -1 0 0
1222 3 76.231053692061 1.669742741951005 1.3219719795929983 -1 0 0
1223 2 77.88374836095 1.669742741951005 0 -1 0 0
1224 4 78.743432671447 0 1.0483773423089993 -1 0 0
1226 3 81.255811650832 1.669742741951005 1.3219719795929983 -1 0 0
1227 2 82.908506319721 1.669742741951005 0 -1 0 0
1228 4 83.768190630218 0 1.0483773423089993 -1 0 0
1230 3 86.28056960960299 1.669742741951005 1.3219719795929983 -1 0 0
1231 2 87.933264278492 1.669742741951005 0 -1 0 0
1232 4 88.79294858898899 0 1.0483773423089993 -1 0 0
1234 3 91.305327568374 1.669742741951005 1.3219719795929983 -1 0 0
1235 2 92.958022237263 1.669742741951005 0 -1 0 0
1236 4 93.81770654776 0 1.0483773423089993 -1 0 0
1238 3 96.330085527145 1.669742741951005 1.3219719795929983 -1 0 0
1239 2 97.982780196034 1.669742741951005 0 -1 0 0
1240 4 98.842464506531 0 1.0483773423089993 -1 0 0
1324 4 3.372063289882 3.3394854839020027 1.0483773423089993 0 0 0
1328 4 8.396821248652998 3.3394854839020027 1.0483773423089993 0 0 0
1332 4 13.421579207423996 3.3394854839020027 1.0483773423089993 0 0 0
1336 4 18.446337166194994 3.3394854839020027 1.0483773423089993 0 0 0
1340 4 23.471095124966 3.3394854839020027 1.0483773423089993 0 0 0
1344 4 28.495853083737003 3.3394854839020027 1.0483773423089993 0 0 0
1348 4 33.520611042507994 3.3394854839020027 1.0483773423089993 0 0 0
1352 4 38.545369001279 3.3394854839020027 1.0483773423089993 0 0 0
1356 4 43.570126960050004 3.3394854839020027 1.0483773423089993 0 0 0
1360 4 48.594884918820995 3.3394854839020027 1.0483773423089993 0 0 0
1284 4 53.619642877592 3.3394854839020027 1.0483773423089993 -1 0 0
1288 4 58.644400836363 3.3394854839020027 1.0483773423089993 -1 0 0
1292 4 63.669158795133995 3.3394854839020027 1.0483773423089993 -1 0 0
1296 4 68.693916753905 3.3394854839020027 1.0483773423089993 -1 0 0
1300 4 73.718674712676 3.3394854839020027 1.0483773423089993 -1 0 0
1304 4 78.743432671447 3.3394854839020027 1.0483773423089993 -1 0 0
1308 4 83.768190630218 3.3394854839020027 1.0483773423089993 -1 0 0
1312 4 88.79294858898899 3.3394854839020027 1.0483773423089993 -1 0 0
1316 4 93.81770654776 3.3394854839020027 1.0483773423089993 -1 0 0
1320 4 98.842464506531 3.3394854839020027 1.0483773423089993 -1 0 0
1322 3 0.8596843104960001 5.0092282258530005 1.3219719795929983 0 0 0
1323 2 2.512378979384998 5.0092282258530005 0 0 0 0
1326 3 5.884442269266998 5.0092282258530005 1.3219719795929983 0 0 0
1327 2 7.537136938155996 5.0092282258530005 0 0 0 0
1330 3 10.909200228037996 5.0092282258530005 1.3219719795929983 0 0 0
1331 2 12.561894896927 5.0092282258530005 0 0 0 0
1335 2 17.58665285569799 5.0092282258530005 0 0 0 0
1334 3 15.933958186808994 5.0092282258530005 1.3219719795929983 0 0 0
1338 3 20.95871614558 5.0092282258530005 1.3219719795929983 0 0 0
1339 2 22.611410814468996 5.0092282258530005 0 0 0 0
1342 3 25.983474104351004 5.0092282258530005 1.3219719795929983 0 0 0
1343 2 27.63616877324 5.0092282258530005 0 0 0 0
1346 3 31.008232063121994 5.0092282258530005 1.3219719795929983 0 0 0
1347 2 32.66092673201099 5.0092282258530005 0 0 0 0
1350 3 36.032990021893 5.0092282258530005 1.3219719795929983 0 0 0
1351 2 37.685684690782 5.0092282258530005 0 0 0 0
1354 3 41.057747980664004 5.0092282258530005 1.3219719795929983 0 0 0
1355 2 42.710442649553 5.0092282258530005 0 0 0 0
1358 3 46.082505939434995 5.0092282258530005 1.3219719795929983 0 0 0
1359 2 47.73520060832399 5.0092282258530005 0 0 0 0
1282 3 51.107263898206 5.0092282258530005 1.3219719795929983 -1 0 0
1283 2 52.759958567095 5.0092282258530005 0 -1 0 0
1286 3 56.132021856977 5.0092282258530005 1.3219719795929983 -1 0 0
1287 2 57.784716525865996 5.0092282258530005 0 -1 0 0
1290 3 61.156779815747996 5.0092282258530005 1.3219719795929983 -1 0 0
1291 2 62.809474484637 5.0092282258530005 0 -1 0 0
1294 3 66.181537774519 5.0092282258530005 1.3219719795929983 -1 0 0
1295 2 67.834232443408 5.0092282258530005 0 -1 0 0
1298 3 71.20629573329 5.0092282258530005 1.3219719795929983 -1 0 0
1299 2 72.858990402179 5.0092282258530005 0 -1 0 0
1302 3 76.231053692061 5.0092282258530005 1.3219719795929983 -1 0 0
1303 2 77.88374836095 5.0092282258530005 0 -1 0 0
1306 3 81.255811650832 5.0092282258530005 1.3219719795929983 -1 0 0
1307 2 82.908506319721 5.0092282258530005 0 -1 0 0
1310 3 86.28056960960299 5.0092282258530005 1.3219719795929983 -1 0 0
1311 2 87.933264278492 5.0092282258530005 0 -1 0 0
1314 3 91.305327568374 5.0092282258530005 1.3219719795929983 -1 0 0
1315 2 92.958022237263 5.0092282258530005 0 -1 0 0
1318 3 96.330085527145 5.0092282258530005 1.3219719795929983 -1 0 0
1319 2 97.982780196034 5.0092282258530005 0 -1 0 0
1404 4 3.372063289882 6.678970967803998 1.0483773423089993 0 0 0
1408 4 8.396821248652998 6.678970967803998 1.0483773423089993 0 0 0
1412 4 13.421579207423996 6.678970967803998 1.0483773423089993 0 0 0
1416 4 18.446337166194994 6.678970967803998 1.0483773423089993 0 0 0
1420 4 23.471095124966 6.678970967803998 1.0483773423089993 0 0 0
1424 4 28.495853083737003 6.678970967803998 1.0483773423089993 0 0 0
1428 4 33.520611042507994 6.678970967803998 1.0483773423089993 0 0 0
1432 4 38.545369001279 6.678970967803998 1.0483773423089993 0 0 0
1436 4 43.570126960050004 6.678970967803998 1.0483773423089993 0 0 0
1440 4 48.594884918820995 6.678970967803998 1.0483773423089993 0 0 0
1364 4 53.619642877592 6.678970967803998 1.0483773423089993 -1 0 0
1368 4 58.644400836363 6.678970967803998 1.0483773423089993 -1 0 0
1372 4 63.669158795133995 6.678970967803998 1.0483773423089993 -1 0 0
1376 4 68.693916753905 6.678970967803998 1.0483773423089993 -1 0 0
1380 4 73.718674712676 6.678970967803998 1.0483773423089993 -1 0 0
1384 4 78.743432671447 6.678970967803998 1.0483773423089993 -1 0 0
1388 4 83.768190630218 6.678970967803998 1.0483773423089993 -1 0 0
1392 4 88.79294858898899 6.678970967803998 1.0483773423089993 -1 0 0
1396 4 93.81770654776 6.678970967803998 1.0483773423089993 -1 0 0
1400 4 98.842464506531 6.678970967803998 1.0483773423089993 -1 0 0
1402 3 0.8596843104960001 8.348713709755003 1.3219719795929983 0 0 0
1403 2 2.512378979384998 8.348713709755003 0 0 0 0
1406 3 5.884442269266998 8.348713709755003 1.3219719795929983 0 0 0
1407 2 7.537136938155996 8.348713709755003 0 0 0 0
1410 3 10.909200228037996 8.348713709755003 1.3219719795929983 0 0 0
1411 2 12.561894896927 8.348713709755003 0 0 0 0
1415 2 17.58665285569799 8.348713709755003 0 0 0 0
1414 3 15.933958186808994 8.348713709755003 1.3219719795929983 0 0 0
1418 3 20.95871614558 8.348713709755003 1.3219719795929983 0 0 0
1419 2 22.611410814468996 8.348713709755003 0 0 0 0
1422 3 25.983474104351004 8.348713709755003 1.3219719795929983 0 0 0
1423 2 27.63616877324 8.348713709755003 0 0 0 0
1426 3 31.008232063121994 8.348713709755003 1.3219719795929983 0 0 0
1427 2 32.66092673201099 8.348713709755003 0 0 0 0
1430 3 36.032990021893 8.348713709755003 1.3219719795929983 0 0 0
1431 2 37.685684690782 8.348713709755003 0 0 0 0
1434 3 41.057747980664004 8.348713709755003 1.3219719795929983 0 0 0
1435 2 42.710442649553 8.348713709755003 0 0 0 0
1438 3 46.082505939434995 8.348713709755003 1.3219719795929983 0 0 0
1439 2 47.73520060832399 8.348713709755003 0 0 0 0
1362 3 51.107263898206 8.348713709755003 1.3219719795929983 -1 0 0
1363 2 52.759958567095 8.348713709755003 0 -1 0 0
1366 3 56.132021856977 8.348713709755003 1.3219719795929983 -1 0 0
1367 2 57.784716525865996 8.348713709755003 0 -1 0 0
1370 3 61.156779815747996 8.348713709755003 1.3219719795929983 -1 0 0
1371 2 62.809474484637 8.348713709755003 0 -1 0 0
1374 3 66.181537774519 8.348713709755003 1.3219719795929983 -1 0 0
1375 2 67.834232443408 8.348713709755003 0 -1 0 0
1378 3 71.20629573329 8.348713709755003 1.3219719795929983 -1 0 0
1379 2 72.858990402179 8.348713709755003 0 -1 0 0
1382 3 76.231053692061 8.348713709755003 1.3219719795929983 -1 0 0
1383 2 77.88374836095 8.348713709755003 0 -1 0 0
1386 3 81.255811650832 8.348713709755003 1.3219719795929983 -1 0 0
1387 2 82.908506319721 8.348713709755003 0 -1 0 0
1390 3 86.28056960960299 8.348713709755003 1.3219719795929983 -1 0 0
1391 2 87.933264278492 8.348713709755003 0 -1 0 0
1394 3 91.305327568374 8.348713709755003 1.3219719795929983 -1 0 0
1395 2 92.958022237263 8.348713709755003 0 -1 0 0
1398 3 96.330085527145 8.348713709755003 1.3219719795929983 -1 0 0
1399 2 97.982780196034 8.348713709755003 0 -1 0 0
1484 4 3.372063289882 10.018456451706001 1.0483773423089993 0 0 0
1488 4 8.396821248652998 10.018456451706001 1.0483773423089993 0 0 0
1492 4 13.421579207423996 10.018456451706001 1.0483773423089993 0 0 0
1496 4 18.446337166194994 10.018456451706001 1.0483773423089993 0 0 0
1500 4 23.471095124966 10.018456451706001 1.0483773423089993 0 0 0
1504 4 28.495853083737003 10.018456451706001 1.0483773423089993 0 0 0
1508 4 33.520611042507994 10.018456451706001 1.0483773423089993 0 0 0
1512 4 38.545369001279 10.018456451706001 1.0483773423089993 0 0 0
1516 4 43.570126960050004 10.018456451706001 1.0483773423089993 0 0 0
1520 4 48.594884918820995 10.018456451706001 1.0483773423089993 0 0 0
1444 4 53.619642877592 10.018456451706001 1.0483773423089993 -1 0 0
1448 4 58.644400836363 10.018456451706001 1.0483773423089993 -1 0 0
1452 4 63.669158795133995 10.018456451706001 1.0483773423089993 -1 0 0
1456 4 68.693916753905 10.018456451706001 1.0483773423089993 -1 0 0
1460 4 73.718674712676 10.018456451706001 1.0483773423089993 -1 0 0
1464 4 78.743432671447 10.018456451706001 1.0483773423089993 -1 0 0
1468 4 83.768190630218 10.018456451706001 1.0483773423089993 -1 0 0
1472 4 88.79294858898899 10.018456451706001 1.0483773423089993 -1 0 0
1476 4 93.81770654776 10.018456451706001 1.0483773423089993 -1 0 0
1480 4 98.842464506531 10.018456451706001 1.0483773423089993 -1 0 0
1482 3 0.8596843104960001 11.688199193656999 1.3219719795929983 0 0 0
1483 2 2.512378979384998 11.688199193656999 0 0 0 0
1486 3 5.884442269266998 11.688199193656999 1.3219719795929983 0 0 0
1487 2 7.537136938155996 11.688199193656999 0 0 0 0
1490 3 10.909200228037996 11.688199193656999 1.3219719795929983 0 0 0
1491 2 12.561894896927 11.688199193656999 0 0 0 0
1495 2 17.58665285569799 11.688199193656999 0 0 0 0
1494 3 15.933958186808994 11.688199193656999 1.3219719795929983 0 0 0
1498 3 20.95871614558 11.688199193656999 1.3219719795929983 0 0 0
1499 2 22.611410814468996 11.688199193656999 0 0 0 0
1502 3 25.983474104351004 11.688199193656999 1.3219719795929983 0 0 0
1503 2 27.63616877324 11.688199193656999 0 0 0 0
1506 3 31.008232063121994 11.688199193656999 1.3219719795929983 0 0 0
1507 2 32.66092673201099 11.688199193656999 0 0 0 0
1510 3 36.032990021893 11.688199193656999 1.3219719795929983 0 0 0
1511 2 37.685684690782 11.688199193656999 0 0 0 0
1514 3 41.057747980664004 11.688199193656999 1.3219719795929983 0 0 0
1515 2 42.710442649553 11.688199193656999 0 0 0 0
1518 3 46.082505939434995 11.688199193656999 1.3219719795929983 0 0 0
1519 2 47.73520060832399 11.688199193656999 0 0 0 0
1442 3 51.107263898206 11.688199193656999 1.3219719795929983 -1 0 0
1443 2 52.759958567095 11.688199193656999 0 -1 0 0
1446 3 56.132021856977 11.688199193656999 1.3219719795929983 -1 0 0
1447 2 57.784716525865996 11.688199193656999 0 -1 0 0
1450 3 61.156779815747996 11.688199193656999 1.3219719795929983 -1 0 0
1451 2 62.809474484637 11.688199193656999 0 -1 0 0
1454 3 66.181537774519 11.688199193656999 1.3219719795929983 -1 0 0
1455 2 67.834232443408 11.688199193656999 0 -1 0 0
1458 3 71.20629573329 11.688199193656999 1.3219719795929983 -1 0 0
1459 2 72.858990402179 11.688199193656999 0 -1 0 0
1462 3 76.231053692061 11.688199193656999 1.3219719795929983 -1 0 0
1463 2 77.88374836095 11.688199193656999 0 -1 0 0
1466 3 81.255811650832 11.688199193656999 1.3219719795929983 -1 0 0
1467 2 82.908506319721 11.688199193656999 0 -1 0 0
1470 3 86.28056960960299 11.688199193656999 1.3219719795929983 -1 0 0
1471 2 87.933264278492 11.688199193656999 0 -1 0 0
1474 3 91.305327568374 11.688199193656999 1.3219719795929983 -1 0 0
1475 2 92.958022237263 11.688199193656999 0 -1 0 0
1478 3 96.330085527145 11.688199193656999 1.3219719795929983 -1 0 0
1479 2 97.982780196034 11.688199193656999 0 -1 0 0
1564 4 3.372063289882 13.357941935608004 1.0483773423089993 0 0 0
1568 4 8.396821248652998 13.357941935608004 1.0483773423089993 0 0 0
1572 4 13.421579207423996 13.357941935608004 1.0483773423089993 0 0 0
1576 4 18.446337166194994 13.357941935608004 1.0483773423089993 0 0 0
1580 4 23.471095124966 13.357941935608004 1.0483773423089993 0 0 0
1584 4 28.495853083737003 13.357941935608004 1.0483773423089993 0 0 0
1588 4 33.520611042507994 13.357941935608004 1.0483773423089993 0 0 0
1592 4 38.545369001279 13.357941935608004 1.0483773423089993 0 0 0
1596 4 43.570126960050004 13.357941935608004 1.0483773423089993 0 0 0
1600 4 48.594884918820995 13.357941935608004 1.0483773423089993 0 0 0
1524 4 53.619642877592 13.357941935608004 1.0483773423089993 -1 0 0
1528 4 58.644400836363 13.357941935608004 1.0483773423089993 -1 0 0
1532 4 63.669158795133995 13.357941935608004 1.0483773423089993 -1 0 0
1536 4 68.693916753905 13.357941935608004 1.0483773423089993 -1 0 0
1540 4 73.718674712676 13.357941935608004 1.0483773423089993 -1 0 0
1544 4 78.743432671447 13.357941935608004 1.0483773423089993 -1 0 0
1548 4 83.768190630218 13.357941935608004 1.0483773423089993 -1 0 0
1552 4 88.79294858898899 13.357941935608004 1.0483773423089993 -1 0 0
1556 4 93.81770654776 13.357941935608004 1.0483773423089993 -1 0 0
1560 4 98.842464506531 13.357941935608004 1.0483773423089993 -1 0 0
1562 3 0.8596843104960001 15.027684677559002 1.3219719795929983 0 0 0
1563 2 2.512378979384998 15.027684677559002 0 0 0 0
1566 3 5.884442269266998 15.027684677559002 1.3219719795929983 0 0 0
1567 2 7.537136938155996 15.027684677559002 0 0 0 0
1570 3 10.909200228037996 15.027684677559002 1.3219719795929983 0 0 0
1571 2 12.561894896927 15.027684677559002 0 0 0 0
1575 2 17.58665285569799 15.027684677559002 0 0 0 0
1574 3 15.933958186808994 15.027684677559002 1.3219719795929983 0 0 0
1578 3 20.95871614558 15.027684677559002 1.3219719795929983 0 0 0
1579 2 22.611410814468996 15.027684677559002 0 0 0 0
1582 3 25.983474104351004 15.027684677559002 1.3219719795929983 0 0 0
1583 2 27.63616877324 15.027684677559002 0 0 0 0
1586 3 31.008232063121994 15.027684677559002 1.3219719795929983 0 0 0
1587 2 32.66092673201099 15.027684677559002 0 0 0 0
1590 3 36.032990021893 15.027684677559002 1.3219719795929983 0 0 0
1591 2 37.685684690782 15.027684677559002 0 0 0 0
1594 3 41.057747980664004 15.027684677559002 1.3219719795929983 0 0 0
1595 2 42.710442649553 15.027684677559002 0 0 0 0
1598 3 46.082505939434995 15.027684677559002 1.3219719795929983 0 0 0
1599 2 47.73520060832399 15.027684677559002 0 0 0 0
1522 3 51.107263898206 15.027684677559002 1.3219719795929983 -1 0 0
1523 2 52.759958567095 15.027684677559002 0 -1 0 0
1526 3 56.132021856977 15.027684677559002 1.3219719795929983 -1 0 0
1527 2 57.784716525865996 15.027684677559002 0 -1 0 0
1530 3 61.156779815747996 15.027684677559002 1.3219719795929983 -1 0 0
1531 2 62.809474484637 15.027684677559002 0 -1 0 0
1534 3 66.181537774519 15.027684677559002 1.3219719795929983 -1 0 0
1535 2 67.834232443408 15.027684677559002 0 -1 0 0
1538 3 71.20629573329 15.027684677559002 1.3219719795929983 -1 0 0
1539 2 72.858990402179 15.027684677559002 0 -1 0 0
1542 3 76.231053692061 15.027684677559002 1.3219719795929983 -1 0 0
1543 2 77.88374836095 15.027684677559002 0 -1 0 0
1546 3 81.255811650832 15.027684677559002 1.3219719795929983 -1 0 0
1547 2 82.908506319721 15.027684677559002 0 -1 0 0
1550 3 86.28056960960299 15.027684677559002 1.3219719795929983 -1 0 0
1551 2 87.933264278492 15.027684677559002 0 -1 0 0
1554 3 91.305327568374 15.027684677559002 1.3219719795929983 -1 0 0
1555 2 92.958022237263 15.027684677559002 0 -1 0 0
1558 3 96.330085527145 15.027684677559002 1.3219719795929983 -1 0 0
1559 2 97.982780196034 15.027684677559002 0 -1 0 0
1644 4 3.372063289882 16.69742741951 1.0483773423089993 0 0 0
1648 4 8.396821248652998 16.69742741951 1.0483773423089993 0 0 0
1652 4 13.421579207423996 16.69742741951 1.0483773423089993 0 0 0
1656 4 18.446337166194994 16.69742741951 1.0483773423089993 0 0 0
1660 4 23.471095124966 16.69742741951 1.0483773423089993 0 0 0
1664 4 28.495853083737003 16.69742741951 1.0483773423089993 0 0 0
1668 4 33.520611042507994 16.69742741951 1.0483773423089993 0 0 0
1672 4 38.545369001279 16.69742741951 1.0483773423089993 0 0 0
1676 4 43.570126960050004 16.69742741951 1.0483773423089993 0 0 0
1680 4 48.594884918820995 16.69742741951 1.0483773423089993 0 0 0
1604 4 53.619642877592 16.69742741951 1.0483773423089993 -1 0 0
1608 4 58.644400836363 16.69742741951 1.0483773423089993 -1 0 0
1612 4 63.669158795133995 16.69742741951 1.0483773423089993 -1 0 0
1616 4 68.693916753905 16.69742741951 1.0483773423089993 -1 0 0
1620 4 73.718674712676 16.69742741951 1.0483773423089993 -1 0 0
1624 4 78.743432671447 16.69742741951 1.0483773423089993 -1 0 0
1628 4 83.768190630218 16.69742741951 1.0483773423089993 -1 0 0
1632 4 88.79294858898899 16.69742741951 1.0483773423089993 -1 0 0
1636 4 93.81770654776 16.69742741951 1.0483773423089993 -1 0 0
1640 4 98.842464506531 16.69742741951 1.0483773423089993 -1 0 0
1642 3 0.8596843104960001 18.367170161460997 1.3219719795929983 0 0 0
1643 2 2.512378979384998 18.367170161460997 0 0 0 0
1646 3 5.884442269266998 18.367170161460997 1.3219719795929983 0 0 0
1647 2 7.537136938155996 18.367170161460997 0 0 0 0
1650 3 10.909200228037996 18.367170161460997 1.3219719795929983 0 0 0
1651 2 12.561894896927 18.367170161460997 0 0 0 0
1655 2 17.58665285569799 18.367170161460997 0 0 0 0
1654 3 15.933958186808994 18.367170161460997 1.3219719795929983 0 0 0
1658 3 20.95871614558 18.367170161460997 1.3219719795929983 0 0 0
1659 2 22.611410814468996 18.367170161460997 0 0 0 0
1662 3 25.983474104351004 18.367170161460997 1.3219719795929983 0 0 0
1663 2 27.63616877324 18.367170161460997 0 0 0 0
1666 3 31.008232063121994 18.367170161460997 1.3219719795929983 0 0 0
1667 2 32.66092673201099 18.367170161460997 0 0 0 0
1670 3 36.032990021893 18.367170161460997 1.3219719795929983 0 0 0
1671 2 37.685684690782 18.367170161460997 0 0 0 0
1674 3 41.057747980664004 18.367170161460997 1.3219719795929983 0 0 0
1675 2 42.710442649553 18.367170161460997 0 0 0 0
1678 3 46.082505939434995 18.367170161460997 1.3219719795929983 0 0 0
1679 2 47.73520060832399 18.367170161460997 0 0 0 0
1602 3 51.107263898206 18.367170161460997 1.3219719795929983 -1 0 0
1603 2 52.759958567095 18.367170161460997 0 -1 0 0
1606 3 56.132021856977 18.367170161460997 1.3219719795929983 -1 0 0
1607 2 57.784716525865996 18.367170161460997 0 -1 0 0
1610 3 61.156779815747996 18.367170161460997 1.3219719795929983 -1 0 0
1611 2 62.809474484637 18.367170161460997 0 -1 0 0
1614 3 66.181537774519 18.367170161460997 1.3219719795929983 -1 0 0
1615 2 67.834232443408 18.367170161460997 0 -1 0 0
1618 3 71.20629573329 18.367170161460997 1.3219719795929983 -1 0 0
1619 2 72.858990402179 18.367170161460997 0 -1 0 0
1622 3 76.231053692061 18.367170161460997 1.3219719795929983 -1 0 0
1623 2 77.88374836095 18.367170161460997 0 -1 0 0
1626 3 81.255811650832 18.367170161460997 1.3219719795929983 -1 0 0
1627 2 82.908506319721 18.367170161460997 0 -1 0 0
1630 3 86.28056960960299 18.367170161460997 1.3219719795929983 -1 0 0
1631 2 87.933264278492 18.367170161460997 0 -1 0 0
1634 3 91.305327568374 18.367170161460997 1.3219719795929983 -1 0 0
1635 2 92.958022237263 18.367170161460997 0 -1 0 0
1638 3 96.330085527145 18.367170161460997 1.3219719795929983 -1 0 0
1639 2 97.982780196034 18.367170161460997 0 -1 0 0
1724 4 3.372063289882 20.036912903411995 1.0483773423089993 0 0 0
1728 4 8.396821248652998 20.036912903411995 1.0483773423089993 0 0 0
1732 4 13.421579207423996 20.036912903411995 1.0483773423089993 0 0 0
1736 4 18.446337166194994 20.036912903411995 1.0483773423089993 0 0 0
1740 4 23.471095124966 20.036912903411995 1.0483773423089993 0 0 0
1744 4 28.495853083737003 20.036912903411995 1.0483773423089993 0 0 0
1748 4 33.520611042507994 20.036912903411995 1.0483773423089993 0 0 0
1752 4 38.545369001279 20.036912903411995 1.0483773423089993 0 0 0
1756 4 43.570126960050004 20.036912903411995 1.0483773423089993 0 0 0
1760 4 48.594884918820995 20.036912903411995 1.0483773423089993 0 0 0
1684 4 53.619642877592 20.036912903411995 1.0483773423089993 -1 0 0
1688 4 58.644400836363 20.036912903411995 1.0483773423089993 -1 0 0
1692 4 63.669158795133995 20.036912903411995 1.0483773423089993 -1 0 0
1696 4 68.693916753905 20.036912903411995 1.0483773423089993 -1 0 0
1700 4 73.718674712676 20.036912903411995 1.0483773423089993 -1 0 0
1704 4 78.743432671447 20.036912903411995 1.0483773423089993 -1 0 0
1708 4 83.768190630218 20.036912903411995 1.0483773423089993 -1 0 0
1712 4 88.79294858898899 20.036912903411995 1.0483773423089993 -1 0 0
1716 4 93.81770654776 20.036912903411995 1.0483773423089993 -1 0 0
1720 4 98.842464506531 20.036912903411995 1.0483773423089993 -1 0 0
1722 3 0.8596843104960001 21.706655645363007 1.3219719795929983 0 0 0
1723 2 2.512378979384998 21.706655645363007 0 0 0 0
1726 3 5.884442269266998 21.706655645363007 1.3219719795929983 0 0 0
1727 2 7.537136938155996 21.706655645363007 0 0 0 0
1730 3 10.909200228037996 21.706655645363007 1.3219719795929983 0 0 0
1731 2 12.561894896927 21.706655645363007 0 0 0 0
1735 2 17.58665285569799 21.706655645363007 0 0 0 0
1734 3 15.933958186808994 21.706655645363007 1.3219719795929983 0 0 0
1738 3 20.95871614558 21.706655645363007 1.3219719795929983 0 0 0
1739 2 22.611410814468996 21.706655645363007 0 0 0 0
1742 3 25.983474104351004 21.706655645363007 1.3219719795929983 0 0 0
1743 2 27.63616877324 21.706655645363007 0 0 0 0
1746 3 31.008232063121994 21.706655645363007 1.3219719795929983 0 0 0
1747 2 32.66092673201099 21.706655645363007 0 0 0 0
1750 3 36.032990021893 21.706655645363007 1.3219719795929983 0 0 0
1751 2 37.685684690782 21.706655645363007 0 0 0 0
1754 3 41.057747980664004 21.706655645363007 1.3219719795929983 0 0 0
1755 2 42.710442649553 21.706655645363007 0 0 0 0
1758 3 46.082505939434995 21.706655645363007 1.3219719795929983 0 0 0
1759 2 47.73520060832399 21.706655645363007 0 0 0 0
1682 3 51.107263898206 21.706655645363007 1.3219719795929983 -1 0 0
1683 2 52.759958567095 21.706655645363007 0 -1 0 0
1686 3 56.132021856977 21.706655645363007 1.3219719795929983 -1 0 0
1687 2 57.784716525865996 21.706655645363007 0 -1 0 0
1690 3 61.156779815747996 21.706655645363007 1.3219719795929983 -1 0 0
1691 2 62.809474484637 21.706655645363007 0 -1 0 0
1694 3 66.181537774519 21.706655645363007 1.3219719795929983 -1 0 0
1695 2 67.834232443408 21.706655645363007 0 -1 0 0
1698 3 71.20629573329 21.706655645363007 1.3219719795929983 -1 0 0
1699 2 72.858990402179 21.706655645363007 0 -1 0 0
1702 3 76.231053692061 21.706655645363007 1.3219719795929983 -1 0 0
1703 2 77.88374836095 21.706655645363007 0 -1 0 0
1706 3 81.255811650832 21.706655645363007 1.3219719795929983 -1 0 0
1707 2 82.908506319721 21.706655645363007 0 -1 0 0
1710 3 86.28056960960299 21.706655645363007 1.3219719795929983 -1 0 0
1711 2 87.933264278492 21.706655645363007 0 -1 0 0
1714 3 91.305327568374 21.706655645363007 1.3219719795929983 -1 0 0
1715 2 92.958022237263 21.706655645363007 0 -1 0 0
1718 3 96.330085527145 21.706655645363007 1.3219719795929983 -1 0 0
1719 2 97.982780196034 21.706655645363007 0 -1 0 0
1804 4 3.372063289882 23.376398387314005 1.0483773423089993 0 0 0
1808 4 8.396821248652998 23.376398387314005 1.0483773423089993 0 0 0
1812 4 13.421579207423996 23.376398387314005 1.0483773423089993 0 0 0
1816 4 18.446337166194994 23.376398387314005 1.0483773423089993 0 0 0
1820 4 23.471095124966 23.376398387314005 1.0483773423089993 0 0 0
1824 4 28.495853083737003 23.376398387314005 1.0483773423089993 0 0 0
1828 4 33.520611042507994 23.376398387314005 1.0483773423089993 0 0 0
1832 4 38.545369001279 23.376398387314005 1.0483773423089993 0 0 0
1836 4 43.570126960050004 23.376398387314005 1.0483773423089993 0 0 0
1840 4 48.594884918820995 23.376398387314005 1.0483773423089993 0 0 0
1764 4 53.619642877592 23.376398387314005 1.0483773423089993 -1 0 0
1768 4 58.644400836363 23.376398387314005 1.0483773423089993 -1 0 0
1772 4 63.669158795133995 23.376398387314005 1.0483773423089993 -1 0 0
1776 4 68.693916753905 23.376398387314005 1.0483773423089993 -1 0 0
1780 4 73.718674712676 23.376398387314005 1.0483773423089993 -1 0 0
1784 4 78.743432671447 23.376398387314005 1.0483773423089993 -1 0 0
1788 4 83.768190630218 23.376398387314005 1.0483773423089993 -1 0 0
1792 4 88.79294858898899 23.376398387314005 1.0483773423089993 -1 0 0
1796 4 93.81770654776 23.376398387314005 1.0483773423089993 -1 0 0
1800 4 98.842464506531 23.376398387314005 1.0483773423089993 -1 0 0
1802 3 0.8596843104960001 25.046141129265003 1.3219719795929983 0 0 0
1803 2 2.512378979384998 25.046141129265003 0 0 0 0
1806 3 5.884442269266998 25.046141129265003 1.3219719795929983 0 0 0
1807 2 7.537136938155996 25.046141129265003 0 0 0 0
1810 3 10.909200228037996 25.046141129265003 1.3219719795929983 0 0 0
1811 2 12.561894896927 25.046141129265003 0 0 0 0
1815 2 17.58665285569799 25.046141129265003 0 0 0 0
1814 3 15.933958186808994 25.046141129265003 1.3219719795929983 0 0 0
1818 3 20.95871614558 25.046141129265003 1.3219719795929983 0 0 0
1819 2 22.611410814468996 25.046141129265003 0 0 0 0
1822 3 25.983474104351004 25.046141129265003 1.3219719795929983 0 0 0
1823 2 27.63616877324 25.046141129265003 0 0 0 0
1826 3 31.008232063121994 25.046141129265003 1.3219719795929983 0 0 0
1827 2 32.66092673201099 25.046141129265003 0 0 0 0
1830 3 36.032990021893 25.046141129265003 1.3219719795929983 0 0 0
1831 2 37.685684690782 25.046141129265003 0 0 0 0
1834 3 41.057747980664004 25.046141129265003 1.3219719795929983 0 0 0
1835 2 42.710442649553 25.046141129265003 0 0 0 0
1838 3 46.082505939434995 25.046141129265003 1.3219719795929983 0 0 0
1839 2 47.73520060832399 25.046141129265003 0 0 0 0
1762 3 51.107263898206 25.046141129265003 1.3219719795929983 -1 0 0
1763 2 52.759958567095 25.046141129265003 0 -1 0 0
1766 3 56.132021856977 25.046141129265003 1.3219719795929983 -1 0 0
1767 2 57.784716525865996 25.046141129265003 0 -1 0 0
1770 3 61.156779815747996 25.046141129265003 1.3219719795929983 -1 0 0
1771 2 62.809474484637 25.046141129265003 0 -1 0 0
1774 3 66.181537774519 25.046141129265003 1.3219719795929983 -1 0 0
1775 2 67.834232443408 25.046141129265003 0 -1 0 0
1778 3 71.20629573329 25.046141129265003 1.3219719795929983 -1 0 0
1779 2 72.858990402179 25.046141129265003 0 -1 0 0
1782 3 76.231053692061 25.046141129265003 1.3219719795929983 -1 0 0
1783 2 77.88374836095 25.046141129265003 0 -1 0 0
1786 3 81.255811650832 25.046141129265003 1.3219719795929983 -1 0 0
1787 2 82.908506319721 25.046141129265003 0 -1 0 0
1790 3 86.28056960960299 25.046141129265003 1.3219719795929983 -1 0 0
1791 2 87.933264278492 25.046141129265003 0 -1 0 0
1794 3 91.305327568374 25.046141129265003 1.3219719795929983 -1 0 0
1795 2 92.958022237263 25.046141129265003 0 -1 0 0
1798 3 96.330085527145 25.046141129265003 1.3219719795929983 -1 0 0
1799 2 97.982780196034 25.046141129265003 0 -1 0 0
1884 4 3.372063289882 26.715883871216 1.0483773423089993 0 0 0