LAMMPS data file via write_data, version 29 Aug 2024, timestep = 3, units = metal

15504 atoms
12 atom types

0 101.189186478354 xlo xhi
0 97.942100911296 ylo yhi
-50 50 zlo zhi

Masses

1 26.9815385
2 26.9815385
3 26.9815385
4 26.9815385
5 26.9815385
6 26.9815385
7 15.999
8 15.999
9 15.999
10 15.999
11 15.999
12 15.999

Atoms # atomic

2586 7 1.4880762717401554 0.8591035145005709 0.026612297504385738 0 0 0
2590 1 3.649580715562373e-13 1.7203470192148208e-05 0.6697162029988921 0 0 0
2598 1 2.9761525434813665 1.7203470191983836e-05 0.6697162029988916 0 0 0
2594 7 4.464228815221153 0.8591035145005704 0.026612297504386286 0 0 0
2861 1 1.4880762717408433 2.5774409116621992 0.6697162029988902 0 0 0
2865 7 2.9761525434806333 3.4365272226925643 0.026612297504386415 0 0 0
2869 1 4.464228815221846 2.577440911662199 0.6697162029988909 0 0 0
2873 7 5.9523050869616325 3.436527222692564 0.026612297504386897 0 0 0
2862 1 3.648104974805838e-13 5.154864619854199 0.6697162029988909 0 0 0
2870 1 2.976152543481367 5.154864619854201 0.6697162029988912 0 0 0
2606 1 5.952305086962366 1.7203470192224204e-05 0.6697162029988917 0 0 0
2878 1 5.952305086962366 5.154864619854201 0.6697162029988916 0 0 0
2602 7 7.440381358702153 0.8591035145005704 0.026612297504386106 0 0 0
2614 1 8.928457630443367 1.7203470192398896e-05 0.6697162029988918 0 0 0
2610 7 10.416533902183154 0.85910351450057 0.026612297504386494 0 0 0
2877 1 7.440381358702846 2.577440911662199 0.669716202998891 0 0 0
2881 7 8.928457630442631 3.436527222692564 0.02661229750438704 0 0 0
2885 1 10.416533902183845 2.5774409116621992 0.6697162029988907 0 0 0
2889 7 11.904610173923633 3.4365272226925634 0.026612297504387372 0 0 0
2886 1 8.928457630443365 5.154864619854201 0.6697162029988916 0 0 0
2622 1 11.904610173924366 1.7203470192331404e-05 0.6697162029988915 0 0 0
2894 1 11.904610173924366 5.154864619854201 0.6697162029988912 0 0 0
2618 7 13.392686445664156 0.8591035145005672 0.026612297504387893 0 0 0
2630 1 14.880762717405364 1.7203470198610785e-05 0.6697162029988921 0 0 0
2626 7 16.368838989145154 0.8591035145005665 0.02661229750438609 0 0 0
2893 1 13.392686445664847 2.5774409116621992 0.6697162029988919 0 0 0
2897 7 14.880762717404632 3.4365272226925643 0.026612297504387993 0 0 0
2901 1 16.368838989145843 2.5774409116621984 0.6697162029988907 0 0 0
2905 7 17.856915260885636 3.4365272226925634 0.026612297504386404 0 0 0
2902 1 14.880762717405364 5.154864619854201 0.669716202998892 0 0 0
2638 1 17.856915260886364 1.7203470196964884e-05 0.6697162029988931 0 0 0
2910 1 17.856915260886364 5.154864619854201 0.669716202998891 0 0 0
2634 7 19.34499153262616 0.8591035145005677 0.02661229750438742 0 0 0
2646 1 20.833067804367364 1.7203470199322292e-05 0.6697162029988913 0 0 0
2642 7 22.321144076107153 0.8591035145005678 0.026612297504386987 0 0 0
2909 1 19.344991532626842 2.5774409116621992 0.6697162029988922 0 0 0
2913 7 20.83306780436663 3.4365272226925647 0.026612297504387636 0 0 0
2917 1 22.321144076107842 2.5774409116621992 0.6697162029988895 0 0 0
2921 7 23.809220347847635 3.4365272226925643 0.026612297504386297 0 0 0
2918 1 20.833067804367364 5.154864619854201 0.6697162029988913 0 0 0
2654 1 23.809220347848367 1.720347019685067e-05 0.6697162029988928 0 0 0
2926 1 23.809220347848367 5.154864619854201 0.6697162029988912 0 0 0
2650 7 25.297296619588153 0.8591035145005711 0.02661229750438659 0 0 0
2662 1 26.785372891329366 1.7203470193100388e-05 0.6697162029988916 0 0 0
2658 7 28.273449163069156 0.8591035145005705 0.026612297504385776 0 0 0
2925 1 25.297296619588845 2.5774409116621992 0.6697162029988916 0 0 0
2929 7 26.78537289132863 3.4365272226925647 0.026612297504387414 0 0 0
2933 1 28.273449163069845 2.5774409116621984 0.66971620299889 0 0 0
2937 7 29.761525434809634 3.4365272226925643 0.026612297504386435 0 0 0
2934 1 26.785372891329366 5.154864619854201 0.6697162029988909 0 0 0
2670 1 29.76152543481037 1.720347019081609e-05 0.6697162029988918 0 0 0
2942 1 29.76152543481037 5.1548646198542 0.6697162029988919 0 0 0
2666 7 31.249601706550152 0.8591035145005705 0.026612297504387324 0 0 0
2674 7 34.22575425003115 0.8591035145005707 0.026612297504385804 0 0 0
2678 1 32.73767797829137 1.720347019373985e-05 0.6697162029988905 0 0 0
2941 1 31.24960170655085 2.5774409116621992 0.6697162029988926 0 0 0
2949 1 34.22575425003185 2.577440911662199 0.6697162029988889 0 0 0
2945 7 32.73767797829063 3.436527222692565 0.026612297504386387 0 0 0
2953 7 35.71383052177163 3.4365272226925634 0.026612297504387403 0 0 0
2950 1 32.73767797829137 5.154864619854202 0.6697162029988899 0 0 0
2686 1 35.71383052177237 1.7203470190385634e-05 0.6697162029988928 0 0 0
2958 1 35.71383052177237 5.154864619854199 0.6697162029988928 0 0 0
2682 7 37.20190679351215 0.8591035145005709 0.02661229750438664 0 0 0
2694 1 38.68998306525337 1.7203470193868457e-05 0.6697162029988905 0 0 0
2690 7 40.17805933699315 0.8591035145005707 0.02661229750438585 0 0 0
2957 1 37.20190679351285 2.577440911662199 0.6697162029988929 0 0 0
2961 7 38.689983065252626 3.436527222692565 0.026612297504386418 0 0 0
2965 1 40.17805933699385 2.577440911662199 0.6697162029988889 0 0 0
2969 7 41.666135608733626 3.4365272226925634 0.026612297504387403 0 0 0
2966 1 38.68998306525337 5.154864619854202 0.66971620299889 0 0 0
2702 1 41.66613560873437 1.7203470190383743e-05 0.6697162029988928 0 0 0
2974 1 41.66613560873437 5.154864619854199 0.6697162029988928 0 0 0
2698 7 43.15421188047415 0.8591035145005709 0.02661229750438664 0 0 0
2710 1 44.64228815221537 1.7203470193870016e-05 0.6697162029988905 0 0 0
2706 7 46.13036442395515 0.8591035145005707 0.026612297504385894 0 0 0
2973 1 43.15421188047485 2.577440911662199 0.6697162029988929 0 0 0
2977 7 44.642288152214626 3.436527222692565 0.026612297504386418 0 0 0
2981 1 46.13036442395585 2.577440911662199 0.6697162029988889 0 0 0
2985 7 47.618440695695625 3.4365272226925634 0.02661229750438752 0 0 0
2982 1 44.64228815221537 5.154864619854202 0.66971620299889 0 0 0
2718 1 47.61844069569637 1.720347019581168e-05 0.6697162029988944 0 0 0
2990 1 47.61844069569637 5.154864619854199 0.6697162029988927 0 0 0
2714 7 49.10651696743615 0.8591035145005672 0.02661229750438703 0 0 0
2450 7 52.08266951091715 0.8591035145005667 0.02661229750438807 -1 0 0
2454 1 50.594593239177364 1.720347019873878e-05 0.6697162029988918 -1 0 0
2989 1 49.106516967436846 2.5774409116621997 0.669716202998893 0 0 0
2725 1 52.082669510917846 2.577440911662199 0.6697162029988906 -1 0 0
2721 7 50.59459323917663 3.436527222692564 0.026612297504387795 -1 0 0
2726 1 50.594593239177364 5.154864619854202 0.6697162029988917 -1 0 0
2729 7 53.57074578265764 3.436527222692564 0.026612297504387105 -1 0 0
2462 1 53.57074578265836 1.720347019216298e-05 0.6697162029988917 -1 0 0
2458 7 55.058822054398156 0.8591035145005704 0.02661229750438627 -1 0 0
2470 1 56.54689832613936 1.7203470192205427e-05 0.6697162029988917 -1 0 0
2466 7 58.034974597879156 0.8591035145005704 0.02661229750438628 -1 0 0
2733 1 55.058822054398846 2.577440911662199 0.6697162029988909 -1 0 0
2737 7 56.54689832613864 3.436527222692564 0.026612297504386862 -1 0 0
2741 1 58.034974597879845 2.5774409116621992 0.6697162029988909 -1 0 0
2734 1 53.57074578265836 5.154864619854201 0.6697162029988916 -1 0 0
2742 1 56.54689832613936 5.154864619854201 0.6697162029988915 -1 0 0
2745 7 59.52305086961964 3.436527222692564 0.026612297504386866 -1 0 0
2478 1 59.52305086962036 1.720347019218543e-05 0.6697162029988915 -1 0 0
2474 7 61.011127141360156 0.85910351450057 0.026612297504386397 -1 0 0
2486 1 62.49920341310137 1.7203470193423196e-05 0.6697162029988916 -1 0 0
2482 7 63.98727968484116 0.8591035145005658 0.026612297504388104 -1 0 0
2749 1 61.011127141360845 2.5774409116621992 0.6697162029988905 -1 0 0
2753 7 62.49920341310064 3.4365272226925634 0.026612297504388083 -1 0 0
2757 1 63.987279684841845 2.5774409116622 0.6697162029988919 -1 0 0
2750 1 59.52305086962036 5.154864619854201 0.6697162029988913 -1 0 0
2758 1 62.49920341310137 5.154864619854201 0.6697162029988909 -1 0 0
2761 7 65.47535595658164 3.436527222692564 0.02661229750438694 -1 0 0
2494 1 65.47535595658236 1.7203470197115148e-05 0.6697162029988922 -1 0 0
2490 7 66.96343222832216 0.8591035145005685 0.026612297504384846 -1 0 0
2502 1 68.45150850006337 1.7203470193609895e-05 0.669716202998891 -1 0 0
2498 7 69.93958477180317 0.8591035145005677 0.026612297504388146 -1 0 0
2765 1 66.96343222832284 2.5774409116621984 0.6697162029988903 -1 0 0
2769 7 68.45150850006264 3.4365272226925643 0.02661229750438759 -1 0 0
2773 1 69.93958477180385 2.577440911662199 0.6697162029988916 -1 0 0
2766 1 65.47535595658236 5.154864619854201 0.6697162029988927 -1 0 0
2774 1 68.45150850006337 5.154864619854201 0.6697162029988898 -1 0 0
2777 7 71.42766104354364 3.4365272226925643 0.026612297504386304 -1 0 0
2510 1 71.42766104354436 1.7203470197091838e-05 0.6697162029988915 -1 0 0
2506 7 72.91573731528415 0.8591035145005681 0.026612297504388035 -1 0 0
2518 1 74.40381358702537 1.72034701932689e-05 0.6697162029988911 -1 0 0
2514 7 75.89188985876515 0.8591035145005685 0.02661229750438528 -1 0 0
2781 1 72.91573731528484 2.577440911662198 0.6697162029988902 -1 0 0
2789 1 75.89188985876585 2.577440911662201 0.669716202998892 -1 0 0
2785 7 74.40381358702464 3.4365272226925643 0.026612297504387414 -1 0 0
2782 1 71.42766104354436 5.154864619854201 0.6697162029988925 -1 0 0
2790 1 74.40381358702537 5.154864619854201 0.6697162029988909 -1 0 0
2793 7 77.37996613050564 3.4365272226925643 0.02661229750438644 -1 0 0
2526 1 77.37996613050636 1.7203470191679257e-05 0.6697162029988916 -1 0 0
2522 7 78.86804240224616 0.8591035145005728 0.02661229750438712 -1 0 0
2534 1 80.35611867398737 1.7203470192485178e-05 0.669716202998892 -1 0 0
2530 7 81.84419494572715 0.8591035145005677 0.026612297504385554 -1 0 0
2797 1 78.86804240224684 2.5774409116621966 0.6697162029988898 -1 0 0
2801 7 80.35611867398664 3.4365272226925643 0.0266122975043873 -1 0 0
2805 1 81.84419494572785 2.5774409116622015 0.6697162029988913 -1 0 0
2798 1 77.37996613050636 5.154864619854201 0.6697162029988916 -1 0 0
2806 1 80.35611867398737 5.1548646198542 0.6697162029988911 -1 0 0
2809 7 83.33227121746764 3.436527222692563 0.026612297504388815 -1 0 0
2538 7 84.82034748920816 0.8591035145005682 0.026612297504388576 -1 0 0
2542 1 83.33227121746837 1.7203470194266935e-05 0.6697162029988915 -1 0 0
2550 1 86.30842376094937 1.7203470196588538e-05 0.6697162029988927 -1 0 0
2546 7 87.79650003268917 0.8591035145005665 0.026612297504387285 -1 0 0
2813 1 84.82034748920886 2.577440911662199 0.6697162029988916 -1 0 0
2817 7 86.30842376094864 3.436527222692564 0.026612297504387226 -1 0 0
2821 1 87.79650003268985 2.577440911662197 0.669716202998893 -1 0 0
2814 1 83.33227121746837 5.154864619854202 0.6697162029988903 -1 0 0
2822 1 86.30842376094937 5.154864619854201 0.6697162029988936 -1 0 0
2825 7 89.28457630442965 3.4365272226925647 0.026612297504384954 -1 0 0
2558 1 89.28457630443036 1.7203470196368878e-05 0.669716202998893 -1 0 0
2554 7 90.77265257617016 0.8591035145005732 0.026612297504385048 -1 0 0
2562 7 93.74880511965115 0.8591035145005652 0.026612297504388552 -1 0 0
2566 1 92.26072884791137 1.7203470193129404e-05 0.6697162029988908 -1 0 0
2829 1 90.77265257617084 2.5774409116621984 0.6697162029988887 -1 0 0
2837 1 93.74880511965185 2.577440911662201 0.669716202998891 -1 0 0
2833 7 92.26072884791064 3.4365272226925643 0.02661229750438659 -1 0 0
2830 1 89.28457630443036 5.1548646198542 0.6697162029988909 -1 0 0
2838 1 92.26072884791137 5.1548646198542 0.6697162029988903 -1 0 0
2841 7 95.23688139139163 3.436527222692563 0.026612297504388857 -1 0 0
2857 7 101.18918647835363 3.436527222692565 0.026612297504388132 -1 0 0
2574 1 95.23688139139237 1.7203470200043924e-05 0.6697162029988919 -1 0 0
2570 7 96.72495766313216 0.8591035145005663 0.026612297504386692 -1 0 0
2582 1 98.21303393487337 1.7203470196594257e-05 0.669716202998894 -1 0 0
2578 7 99.70111020661317 0.8591035145005734 0.02661229750438686 -1 0 0
2845 1 96.72495766313286 2.577440911662201 0.669716202998892 -1 0 0
2849 7 98.21303393487264 3.436527222692564 0.02661229750438703 -1 0 0
2853 1 99.70111020661385 2.5774409116621957 0.66971620299889 -1 0 0
2846 1 95.23688139139237 5.154864619854202 0.6697162029988915 -1 0 0
2854 1 98.21303393487337 5.154864619854201 0.6697162029988921 -1 0 0
2858 7 1.4880762717401557 6.013950930884563 0.026612297504386973 0 0 0
2866 7 4.464228815221153 6.013950930884562 0.026612297504387785 0 0 0
3133 1 1.4880762717408433 7.732288328046202 0.6697162029988907 0 0 0
3137 7 2.9761525434806333 8.591374639076562 0.026612297504387872 0 0 0
3141 1 4.464228815221846 7.732288328046201 0.6697162029988915 0 0 0
3145 7 5.9523050869616325 8.59137463907656 0.02661229750438838 0 0 0
3134 1 3.6552288710130914e-13 10.309712036238201 0.6697162029988917 0 0 0
3142 1 2.976152543481367 10.309712036238203 0.6697162029988913 0 0 0
3130 7 1.4880762717401557 11.168798347268563 0.02661229750438772 0 0 0
3138 7 4.464228815221153 11.168798347268563 0.026612297504388382 0 0 0
3150 1 5.952305086962366 10.309712036238203 0.6697162029988917 0 0 0
2874 7 7.440381358702152 6.013950930884562 0.02661229750438736 0 0 0
2882 7 10.416533902183154 6.013950930884562 0.026612297504388007 0 0 0
3149 1 7.440381358702846 7.732288328046201 0.6697162029988913 0 0 0
3153 7 8.928457630442631 8.59137463907656 0.026612297504388333 0 0 0
3157 1 10.416533902183845 7.732288328046202 0.6697162029988911 0 0 0
3161 7 11.904610173923633 8.59137463907656 0.026612297504388625 0 0 0
3158 1 8.928457630443365 10.309712036238203 0.6697162029988916 0 0 0
3146 7 7.440381358702153 11.168798347268563 0.02661229750438802 0 0 0
3154 7 10.416533902183152 11.168798347268563 0.026612297504388763 0 0 0
3166 1 11.904610173924366 10.309712036238203 0.6697162029988916 0 0 0
2890 7 13.392686445664154 6.013950930884562 0.026612297504388576 0 0 0
2898 7 16.368838989145154 6.013950930884561 0.026612297504386668 0 0 0
3165 1 13.392686445664847 7.732288328046202 0.6697162029988921 0 0 0
3169 7 14.880762717404632 8.59137463907656 0.026612297504389287 0 0 0
3173 1 16.368838989145843 7.732288328046201 0.6697162029988915 0 0 0
3177 7 17.856915260885636 8.59137463907656 0.026612297504387136 0 0 0
3174 1 14.880762717405364 10.309712036238203 0.6697162029988925 0 0 0
3162 7 13.392686445664154 11.168798347268563 0.026612297504389096 0 0 0
3170 7 16.368838989145154 11.168798347268561 0.02661229750438751 0 0 0
3182 1 17.856915260886364 10.309712036238203 0.6697162029988915 0 0 0
2906 7 19.34499153262616 6.013950930884562 0.026612297504388052 0 0 0
2914 7 22.321144076107156 6.013950930884562 0.02661229750438778 0 0 0
3181 1 19.344991532626842 7.732288328046201 0.6697162029988928 0 0 0
3185 7 20.833067804366635 8.59137463907656 0.026612297504388843 0 0 0
3189 1 22.321144076107846 7.732288328046202 0.6697162029988895 0 0 0
3193 7 23.809220347847635 8.59137463907656 0.026612297504387608 0 0 0
3190 1 20.833067804367364 10.309712036238201 0.6697162029988917 0 0 0
3178 7 19.344991532626157 11.168798347268563 0.02661229750438879 0 0 0
3186 7 22.321144076107156 11.168798347268563 0.026612297504388798 0 0 0
3198 1 23.809220347848367 10.309712036238203 0.6697162029988919 0 0 0
2922 7 25.297296619588153 6.013950930884562 0.026612297504387976 0 0 0
2930 7 28.273449163069152 6.013950930884562 0.02661229750438718 0 0 0
3197 1 25.29729661958885 7.732288328046201 0.6697162029988926 0 0 0
3201 7 26.78537289132863 8.59137463907656 0.02661229750438844 0 0 0
3205 1 28.27344916306985 7.732288328046201 0.6697162029988906 0 0 0
3209 7 29.761525434809634 8.59137463907656 0.026612297504387466 0 0 0
3206 1 26.785372891329366 10.309712036238203 0.6697162029988913 0 0 0
3194 7 25.297296619588153 11.168798347268563 0.026612297504388774 0 0 0
3202 7 28.273449163069152 11.168798347268563 0.026612297504388135 0 0 0
3214 1 29.76152543481037 10.309712036238201 0.6697162029988925 0 0 0
2938 7 31.249601706550152 6.013950930884562 0.02661229750438886 0 0 0
2946 7 34.22575425003115 6.013950930884562 0.026612297504387105 0 0 0
3213 1 31.24960170655085 7.732288328046201 0.6697162029988932 0 0 0
3221 1 34.22575425003185 7.732288328046201 0.66971620299889 0 0 0
3217 7 32.73767797829063 8.59137463907656 0.026612297504387587 0 0 0
3225 7 35.71383052177163 8.591374639076559 0.02661229750438839 0 0 0
3222 1 32.73767797829137 10.309712036238203 0.6697162029988902 0 0 0
3210 7 31.249601706550152 11.168798347268563 0.026612297504389648 0 0 0
3218 7 34.22575425003115 11.168798347268563 0.026612297504388125 0 0 0
3230 1 35.71383052177237 10.309712036238201 0.6697162029988931 0 0 0
2954 7 37.20190679351215 6.013950930884562 0.026612297504388274 0 0 0
2962 7 40.17805933699315 6.013950930884562 0.02661229750438712 0 0 0
3229 1 37.20190679351285 7.732288328046202 0.6697162029988935 0 0 0
3233 7 38.689983065252626 8.59137463907656 0.026612297504387577 0 0 0
3237 1 40.17805933699385 7.732288328046201 0.66971620299889 0 0 0
3241 7 41.666135608733626 8.591374639076559 0.026612297504388392 0 0 0
3238 1 38.68998306525337 10.309712036238203 0.6697162029988903 0 0 0
3226 7 37.20190679351215 11.168798347268563 0.026612297504389 0 0 0
3234 7 40.17805933699315 11.168798347268563 0.026612297504388167 0 0 0
3246 1 41.66613560873437 10.309712036238201 0.6697162029988931 0 0 0
2970 7 43.15421188047415 6.013950930884562 0.026612297504388274 0 0 0
2978 7 46.13036442395515 6.013950930884562 0.026612297504387136 0 0 0
3245 1 43.15421188047485 7.732288328046202 0.6697162029988935 0 0 0
3249 7 44.642288152214626 8.59137463907656 0.026612297504387577 0 0 0
3253 1 46.13036442395585 7.732288328046201 0.66971620299889 0 0 0
3257 7 47.618440695695625 8.591374639076559 0.02661229750438843 0 0 0
3254 1 44.64228815221537 10.309712036238203 0.6697162029988903 0 0 0
3242 7 43.15421188047415 11.168798347268563 0.026612297504389 0 0 0
3250 7 46.13036442395515 11.168798347268561 0.026612297504388205 0 0 0
3262 1 47.61844069569637 10.309712036238201 0.6697162029988929 0 0 0
2986 7 49.10651696743615 6.013950930884562 0.026612297504388028 0 0 0
2722 7 52.08266951091716 6.013950930884562 0.026612297504388635 -1 0 0
3261 1 49.106516967436846 7.732288328046202 0.6697162029988932 0 0 0
2997 1 52.082669510917846 7.732288328046201 0.6697162029988906 -1 0 0
2993 7 50.59459323917663 8.59137463907656 0.026612297504389187 -1 0 0
2998 1 50.59459323917737 10.309712036238203 0.6697162029988921 -1 0 0
3258 7 49.10651696743615 11.168798347268563 0.026612297504389173 0 0 0
2994 7 52.08266951091716 11.168798347268563 0.0266122975043886 -1 0 0
3001 7 53.57074578265764 8.59137463907656 0.026612297504388704 -1 0 0
2730 7 55.058822054398156 6.013950930884562 0.026612297504387716 -1 0 0
2738 7 58.034974597879156 6.013950930884562 0.02661229750438772 -1 0 0
3005 1 55.058822054398846 7.732288328046201 0.6697162029988915 -1 0 0
3009 7 56.54689832613864 8.59137463907656 0.02661229750438832 -1 0 0
3013 1 58.034974597879845 7.732288328046201 0.6697162029988913 -1 0 0
3006 1 53.57074578265836 10.309712036238203 0.6697162029988916 -1 0 0
3014 1 56.54689832613936 10.309712036238203 0.6697162029988916 -1 0 0
3002 7 55.058822054398156 11.168798347268563 0.02661229750438825 -1 0 0
3010 7 58.034974597879156 11.168798347268563 0.02661229750438825 -1 0 0
3017 7 59.52305086961964 8.591374639076562 0.026612297504388267 -1 0 0
2746 7 61.011127141360156 6.013950930884562 0.026612297504387823 -1 0 0
2754 7 63.98727968484116 6.01395093088456 0.026612297504389103 -1 0 0
3021 1 61.011127141360845 7.732288328046202 0.669716202998891 -1 0 0
3025 7 62.49920341310064 8.59137463907656 0.02661229750438946 -1 0 0
3029 1 63.987279684841845 7.732288328046203 0.6697162029988921 -1 0 0
3022 1 59.52305086962036 10.309712036238203 0.6697162029988915 -1 0 0
3030 1 62.49920341310137 10.309712036238203 0.6697162029988913 -1 0 0
3018 7 61.011127141360156 11.168798347268563 0.026612297504388524 -1 0 0
3026 7 63.98727968484116 11.168798347268561 0.02661229750438968 -1 0 0
3033 7 65.47535595658164 8.59137463907656 0.026612297504388 -1 0 0
2762 7 66.96343222832216 6.013950930884563 0.026612297504385415 -1 0 0
2770 7 69.93958477180315 6.013950930884562 0.026612297504388788 -1 0 0
3037 1 66.96343222832284 7.732288328046201 0.6697162029988911 -1 0 0
3041 7 68.45150850006264 8.59137463907656 0.02661229750438839 -1 0 0
3045 1 69.93958477180385 7.732288328046202 0.6697162029988923 -1 0 0
3038 1 65.47535595658236 10.309712036238203 0.6697162029988932 -1 0 0
3046 1 68.45150850006337 10.309712036238203 0.6697162029988903 -1 0 0
3034 7 66.96343222832216 11.168798347268565 0.02661229750438628 -1 0 0
3042 7 69.93958477180317 11.168798347268563 0.026612297504391237 -1 0 0
3049 7 71.42766104354364 8.59137463907656 0.026612297504387494 -1 0 0
2778 7 72.91573731528415 6.013950930884562 0.026612297504388833 -1 0 0
2786 7 75.89188985876515 6.01395093088456 0.02661229750438696 -1 0 0
3053 1 72.91573731528484 7.7322883280462005 0.6697162029988908 -1 0 0
3061 1 75.89188985876585 7.732288328046203 0.6697162029988923 -1 0 0
3057 7 74.40381358702464 8.59137463907656 0.02661229750438867 -1 0 0
3054 1 71.42766104354436 10.309712036238203 0.6697162029988928 -1 0 0
3062 1 74.40381358702537 10.309712036238203 0.6697162029988912 -1 0 0
3050 7 72.91573731528416 11.168798347268565 0.026612297504388042 -1 0 0
3058 7 75.89188985876515 11.168798347268561 0.026612297504387518 -1 0 0
3065 7 77.37996613050564 8.59137463907656 0.026612297504387473 -1 0 0
2794 7 78.86804240224616 6.0139509308845644 0.026612297504388475 -1 0 0
2802 7 81.84419494572715 6.013950930884559 0.026612297504387004 -1 0 0
3069 1 78.86804240224684 7.7322883280462 0.6697162029988909 -1 0 0
3073 7 80.35611867398664 8.59137463907656 0.026612297504388416 -1 0 0
3077 1 81.84419494572785 7.732288328046204 0.6697162029988918 -1 0 0
3070 1 77.37996613050636 10.309712036238203 0.6697162029988919 -1 0 0
3078 1 80.35611867398737 10.309712036238201 0.6697162029988916 -1 0 0
3066 7 78.86804240224616 11.168798347268565 0.026612297504389308 -1 0 0
3074 7 81.84419494572715 11.16879834726856 0.026612297504387643 -1 0 0
3081 7 83.33227121746764 8.59137463907656 0.026612297504390075 -1 0 0
2810 7 84.82034748920816 6.013950930884563 0.02661229750438948 -1 0 0
2818 7 87.79650003268917 6.013950930884561 0.026612297504387903 -1 0 0
3085 1 84.82034748920886 7.732288328046201 0.669716202998892 -1 0 0
3089 7 86.30842376094864 8.59137463907656 0.026612297504388156 -1 0 0
3093 1 87.79650003268985 7.7322883280462 0.6697162029988939 -1 0 0
3086 1 83.33227121746837 10.309712036238203 0.6697162029988909 -1 0 0
3094 1 86.30842376094937 10.309712036238203 0.6697162029988938 -1 0 0
3082 7 84.82034748920816 11.168798347268565 0.02661229750439005 -1 0 0
3090 7 87.79650003268917 11.168798347268563 0.026612297504389086 -1 0 0
3097 7 89.28457630442965 8.591374639076562 0.026612297504385995 -1 0 0
2826 7 90.77265257617016 6.0139509308845644 0.02661229750438616 -1 0 0
2834 7 93.74880511965115 6.01395093088456 0.02661229750438938 -1 0 0
3101 1 90.77265257617084 7.732288328046201 0.6697162029988893 -1 0 0
3109 1 93.74880511965185 7.732288328046203 0.6697162029988913 -1 0 0
3105 7 92.26072884791064 8.59137463907656 0.026612297504387497 -1 0 0
3102 1 89.28457630443036 10.309712036238203 0.6697162029988915 -1 0 0
3110 1 92.26072884791137 10.309712036238201 0.6697162029988908 -1 0 0
3098 7 90.77265257617016 11.168798347268567 0.026612297504387275 -1 0 0
3106 7 93.74880511965115 11.168798347268561 0.026612297504390207 -1 0 0
3113 7 95.23688139139163 8.59137463907656 0.026612297504389915 -1 0 0
3129 7 101.18918647835363 8.591374639076562 0.026612297504389343 -1 0 0
2842 7 96.72495766313216 6.01395093088456 0.026612297504387507 -1 0 0
2850 7 99.70111020661317 6.0139509308845644 0.026612297504388448 -1 0 0
3117 1 96.72495766313286 7.732288328046204 0.6697162029988922 -1 0 0
3121 7 98.21303393487264 8.59137463907656 0.026612297504388174 -1 0 0
3125 1 99.70111020661385 7.732288328046199 0.669716202998891 -1 0 0
3118 1 95.23688139139237 10.309712036238203 0.6697162029988918 -1 0 0
3126 1 98.21303393487337 10.309712036238203 0.6697162029988923 -1 0 0
3114 7 96.72495766313216 11.168798347268563 0.026612297504388257 -1 0 0
3122 7 99.70111020661317 11.168798347268565 0.02661229750438889 -1 0 0
3405 1 1.4880762717408436 12.887135744430202 0.669716202998892 0 0 0
3409 7 2.9761525434806333 13.746222055460567 0.02661229750438812 0 0 0
3413 1 4.464228815221846 12.887135744430202 0.6697162029988927 0 0 0
3417 7 5.9523050869616325 13.746222055460565 0.026612297504388614 0 0 0
3406 1 3.6489532276945953e-13 15.464559452622195 0.6697162029988916 0 0 0
3414 1 2.976152543481367 15.464559452622199 0.669716202998892 0 0 0
3402 7 1.4880762717401552 16.323645763652568 0.026612297504386855 0 0 0
3410 7 4.464228815221153 16.323645763652568 0.026612297504387348 0 0 0
3422 1 5.952305086962366 15.464559452622199 0.6697162029988918 0 0 0
3421 1 7.440381358702846 12.887135744430202 0.6697162029988925 0 0 0
3425 7 8.928457630442631 13.746222055460565 0.026612297504388743 0 0 0
3429 1 10.416533902183845 12.887135744430202 0.6697162029988922 0 0 0
3433 7 11.904610173923633 13.746222055460565 0.02661229750438888 0 0 0
3430 1 8.928457630443365 15.464559452622199 0.6697162029988922 0 0 0
3418 7 7.440381358702153 16.323645763652568 0.026612297504387067 0 0 0
3426 7 10.416533902183154 16.323645763652568 0.026612297504387757 0 0 0
3438 1 11.904610173924366 15.464559452622197 0.6697162029988921 0 0 0
3437 1 13.392686445664847 12.8871357444302 0.6697162029988937 0 0 0
3441 7 14.880762717404632 13.746222055460567 0.02661229750439003 0 0 0
3445 1 16.368838989145843 12.8871357444302 0.669716202998892 0 0 0
3449 7 17.856915260885636 13.746222055460565 0.02661229750438782 0 0 0
3446 1 14.880762717405364 15.464559452622197 0.6697162029988925 0 0 0
3434 7 13.392686445664154 16.323645763652568 0.026612297504388326 0 0 0
3442 7 16.368838989145154 16.323645763652568 0.026612297504385873 0 0 0
3454 1 17.856915260886364 15.464559452622195 0.6697162029988922 0 0 0
3453 1 19.344991532626842 12.8871357444302 0.6697162029988938 0 0 0
3457 7 20.83306780436663 13.746222055460567 0.026612297504389745 0 0 0
3461 1 22.321144076107846 12.887135744430202 0.6697162029988908 0 0 0
3465 7 23.809220347847635 13.746222055460567 0.026612297504388035 0 0 0
3462 1 20.833067804367364 15.464559452622197 0.6697162029988925 0 0 0
3450 7 19.344991532626157 16.323645763652568 0.02661229750438781 0 0 0
3458 7 22.321144076107156 16.32364576365257 0.026612297504387688 0 0 0
3470 1 23.809220347848367 15.464559452622197 0.6697162029988922 0 0 0
3469 1 25.29729661958885 12.887135744430202 0.6697162029988936 0 0 0
3473 7 26.78537289132863 13.746222055460567 0.026612297504389617 0 0 0
3477 1 28.27344916306985 12.887135744430202 0.6697162029988915 0 0 0
3481 7 29.761525434809634 13.746222055460565 0.026612297504388312 0 0 0
3478 1 26.785372891329366 15.464559452622197 0.6697162029988921 0 0 0
3466 7 25.297296619588153 16.323645763652568 0.026612297504387452 0 0 0
3474 7 28.273449163069152 16.323645763652568 0.02661229750438691 0 0 0
3486 1 29.76152543481037 15.464559452622195 0.6697162029988927 0 0 0
3485 1 31.24960170655085 12.887135744430202 0.6697162029988943 0 0 0
3493 1 34.22575425003185 12.887135744430202 0.6697162029988908 0 0 0
3489 7 32.73767797829063 13.746222055460567 0.026612297504388698 0 0 0
3497 7 35.71383052177163 13.746222055460565 0.026612297504389412 0 0 0
3494 1 32.73767797829137 15.464559452622199 0.6697162029988911 0 0 0
3482 7 31.249601706550152 16.323645763652568 0.026612297504388555 0 0 0
3490 7 34.22575425003115 16.323645763652568 0.02661229750438579 0 0 0
3502 1 35.71383052177237 15.464559452622195 0.6697162029988937 0 0 0
3501 1 37.20190679351285 12.887135744430202 0.6697162029988942 0 0 0
3505 7 38.689983065252626 13.746222055460567 0.02661229750438877 0 0 0
3509 1 40.17805933699385 12.887135744430202 0.6697162029988908 0 0 0
3513 7 41.666135608733626 13.746222055460565 0.026612297504389412 0 0 0
3510 1 38.68998306525337 15.464559452622199 0.6697162029988913 0 0 0
3498 7 37.20190679351215 16.323645763652568 0.026612297504388427 0 0 0
3506 7 40.17805933699315 16.323645763652568 0.02661229750438582 0 0 0
3518 1 41.66613560873437 15.464559452622195 0.6697162029988937 0 0 0
3517 1 43.15421188047485 12.887135744430202 0.6697162029988942 0 0 0
3521 7 44.642288152214626 13.746222055460567 0.02661229750438877 0 0 0
3525 1 46.13036442395585 12.887135744430202 0.6697162029988908 0 0 0
3529 7 47.618440695695625 13.746222055460565 0.026612297504389197 0 0 0
3526 1 44.64228815221537 15.464559452622199 0.6697162029988913 0 0 0
3514 7 43.15421188047415 16.323645763652568 0.02661229750438843 0 0 0
3522 7 46.13036442395515 16.323645763652568 0.02661229750438596 0 0 0
3534 1 47.61844069569637 15.464559452622195 0.6697162029988933 0 0 0
3533 1 49.106516967436846 12.887135744430203 0.6697162029988944 0 0 0
3269 1 52.082669510917846 12.887135744430202 0.6697162029988922 -1 0 0
3265 7 50.59459323917663 13.746222055460565 0.026612297504389742 -1 0 0
3270 1 50.594593239177364 15.464559452622199 0.6697162029988927 -1 0 0
3530 7 49.10651696743615 16.323645763652568 0.026612297504388188 0 0 0
3266 7 52.08266951091716 16.323645763652568 0.02661229750438837 -1 0 0
3273 7 53.57074578265764 13.746222055460565 0.0266122975043888 -1 0 0
3277 1 55.058822054398846 12.887135744430202 0.6697162029988927 -1 0 0
3281 7 56.54689832613864 13.746222055460565 0.026612297504388403 -1 0 0
3285 1 58.034974597879845 12.887135744430202 0.6697162029988927 -1 0 0
3278 1 53.57074578265836 15.464559452622199 0.6697162029988918 -1 0 0
3286 1 56.54689832613936 15.464559452622199 0.669716202998892 -1 0 0
3274 7 55.058822054398156 16.323645763652568 0.026612297504387487 -1 0 0
3282 7 58.034974597879156 16.323645763652568 0.026612297504387348 -1 0 0
3289 7 59.52305086961964 13.746222055460565 0.026612297504388496 -1 0 0
3293 1 61.011127141360845 12.887135744430202 0.6697162029988926 -1 0 0