LAMMPS data file via write_data, version 29 Aug 2024, timestep = 3, units = metal

10336 atoms
8 atom types

0 101.189186478354 xlo xhi
0 97.942100911296 ylo yhi
-50 50 zlo zhi

Masses

1 26.9815385
2 26.9815385
3 26.9815385
4 26.9815385
5 15.999
6 15.999
7 15.999
8 15.999

Atoms # atomic

2586 5 1.4880762717400846 0.8590997383682997 0.02737676921179873 0 0 0
2590 1 4.1874164161359506e-13 2.05426613688047e-05 0.670175836799417 0 0 0
2598 1 2.9761525434814198 2.0542661369172082e-05 0.6701758367994173 0 0 0
2594 5 4.464228815221081 0.859099738368299 0.02737676921179953 0 0 0
2861 1 1.4880762717409175 2.5774442508533735 0.6701758367994162 0 0 0
2865 5 2.9761525434805804 3.4365234465602916 0.027376769211800205 0 0 0
2869 1 4.464228815221918 2.5774442508533735 0.6701758367994161 0 0 0
2873 5 5.952305086961579 3.436523446560291 0.02737676921180051 0 0 0
2862 1 4.189203943285123e-13 5.154867959045376 0.6701758367994162 0 0 0
2870 1 2.9761525434814198 5.154867959045375 0.6701758367994164 0 0 0
2606 1 5.9523050869624194 2.0542661368866486e-05 0.6701758367994174 0 0 0
2878 1 5.9523050869624194 5.154867959045375 0.6701758367994165 0 0 0
2602 5 7.44038135870208 0.859099738368299 0.027376769211799504 0 0 0
2614 1 8.92845763044342 2.054266136899926e-05 0.6701758367994174 0 0 0
2610 5 10.416533902183081 0.8590997383682986 0.02737676921179978 0 0 0
2877 1 7.4403813587029175 2.5774442508533735 0.6701758367994162 0 0 0
2881 5 8.928457630442578 3.436523446560291 0.02737676921180054 0 0 0
2885 1 10.416533902183918 2.577444250853374 0.6701758367994158 0 0 0
2889 5 11.904610173923581 3.4365234465602907 0.02737676921180144 0 0 0
2886 1 8.92845763044342 5.154867959045375 0.6701758367994165 0 0 0
2622 1 11.90461017392442 2.054266136913152e-05 0.6701758367994178 0 0 0
2894 1 11.90461017392442 5.154867959045376 0.6701758367994165 0 0 0
2618 5 13.392686445664085 0.8590997383682949 0.027376769211800808 0 0 0
2630 1 14.880762717405418 2.054266137026733e-05 0.6701758367994155 0 0 0
2626 5 16.368838989145083 0.8590997383682952 0.02737676921179988 0 0 0
2893 1 13.39268644566492 2.5774442508533735 0.6701758367994174 0 0 0
2897 5 14.880762717404581 3.4365234465602907 0.027376769211801363 0 0 0
2901 1 16.368838989145917 2.5774442508533726 0.6701758367994154 0 0 0
2905 5 17.856915260885582 3.436523446560291 0.02737676921180012 0 0 0
2902 1 14.880762717405418 5.154867959045377 0.6701758367994172 0 0 0
2638 1 17.856915260886417 2.0542661368831778e-05 0.6701758367994166 0 0 0
2910 1 17.856915260886417 5.154867959045375 0.6701758367994157 0 0 0
2634 5 19.344991532626086 0.8590997383682948 0.027376769211801072 0 0 0
2646 1 20.833067804367417 2.0542661375062553e-05 0.670175836799419 0 0 0
2642 5 22.321144076107082 0.8590997383682956 0.027376769211799847 0 0 0
2909 1 19.344991532626917 2.577444250853374 0.6701758367994174 0 0 0
2913 5 20.833067804366582 3.4365234465602903 0.027376769211800964 0 0 0
2917 1 22.321144076107917 2.577444250853374 0.6701758367994152 0 0 0
2921 5 23.809220347847585 3.4365234465602907 0.027376769211800007 0 0 0
2918 1 20.833067804367417 5.154867959045378 0.670175836799417 0 0 0
2654 1 23.80922034784842 2.054266136751729e-05 0.6701758367994193 0 0 0
2926 1 23.80922034784842 5.154867959045376 0.6701758367994164 0 0 0
2650 5 25.297296619588085 0.8590997383682946 0.027376769211801412 0 0 0
2662 1 26.78537289132942 2.054266137097892e-05 0.670175836799415 0 0 0
2658 5 28.27344916306908 0.859099738368295 0.02737676921179967 0 0 0
2925 1 25.29729661958892 2.577444250853374 0.6701758367994171 0 0 0
2929 5 26.78537289132858 3.436523446560291 0.027376769211800843 0 0 0
2933 1 28.273449163069916 2.577444250853373 0.6701758367994157 0 0 0
2937 5 29.761525434809585 3.4365234465602907 0.02737676921180008 0 0 0
2934 1 26.78537289132942 5.154867959045377 0.6701758367994161 0 0 0
2670 1 29.76152543481042 2.0542661367423196e-05 0.6701758367994195 0 0 0
2942 1 29.76152543481042 5.154867959045375 0.6701758367994175 0 0 0
2666 5 31.249601706550084 0.8590997383682948 0.027376769211800857 0 0 0
2674 5 34.22575425003108 0.8590997383682949 0.02737676921180016 0 0 0
2678 1 32.737677978291416 2.054266137137926e-05 0.6701758367994143 0 0 0
2941 1 31.249601706550916 2.5774442508533735 0.6701758367994175 0 0 0
2949 1 34.22575425003191 2.5774442508533735 0.6701758367994151 0 0 0
2945 5 32.73767797829058 3.4365234465602916 0.027376769211800368 0 0 0
2953 5 35.713830521771584 3.4365234465602907 0.027376769211800097 0 0 0
2950 1 32.737677978291416 5.154867959045377 0.6701758367994156 0 0 0
2686 1 35.71383052177242 2.0542661367416488e-05 0.6701758367994194 0 0 0
2958 1 35.713830521772415 5.154867959045374 0.670175836799418 0 0 0
2682 5 37.20190679351209 0.859099738368295 0.02737676921180042 0 0 0
2694 1 38.68998306525342 2.0542661371105255e-05 0.6701758367994146 0 0 0
2690 5 40.17805933699308 0.8590997383682949 0.02737676921180018 0 0 0
2957 1 37.20190679351292 2.5774442508533735 0.6701758367994176 0 0 0
2961 5 38.68998306525258 3.436523446560291 0.02737676921180083 0 0 0
2965 1 40.17805933699391 2.5774442508533735 0.6701758367994152 0 0 0
2969 5 41.66613560873358 3.4365234465602907 0.02737676921180009 0 0 0
2966 1 38.689983065253415 5.154867959045378 0.6701758367994152 0 0 0
2702 1 41.66613560873442 2.0542661367415065e-05 0.6701758367994194 0 0 0
2974 1 41.666135608734415 5.154867959045374 0.6701758367994178 0 0 0
2698 5 43.15421188047409 0.859099738368295 0.027376769211800423 0 0 0
2710 1 44.64228815221542 2.0542661371106136e-05 0.6701758367994146 0 0 0
2706 5 46.13036442395508 0.859099738368295 0.027376769211800118 0 0 0
2973 1 43.15421188047492 2.5774442508533735 0.6701758367994175 0 0 0
2977 5 44.642288152214576 3.436523446560291 0.027376769211800833 0 0 0
2981 1 46.13036442395591 2.5774442508533735 0.6701758367994152 0 0 0
2985 5 47.618440695695575 3.436523446560291 0.027376769211800035 0 0 0
2982 1 44.642288152215414 5.154867959045378 0.6701758367994152 0 0 0
2718 1 47.61844069569642 2.0542661367527375e-05 0.6701758367994191 0 0 0
2990 1 47.61844069569642 5.154867959045375 0.670175836799417 0 0 0
2714 5 49.106516967436086 0.8590997383682956 0.027376769211802366 0 0 0
2450 5 52.08266951091708 0.8590997383682946 0.027376769211800156 -1 0 0
2454 1 50.59459323917742 2.054266137021163e-05 0.6701758367994147 -1 0 0
2989 1 49.10651696743692 2.5774442508533744 0.6701758367994164 0 0 0
2725 1 52.08266951091792 2.5774442508533735 0.6701758367994166 -1 0 0
2721 5 50.59459323917658 3.4365234465602903 0.027376769211801058 -1 0 0
2726 1 50.59459323917742 5.154867959045376 0.6701758367994166 -1 0 0
2729 5 53.57074578265758 3.4365234465602907 0.027376769211800968 -1 0 0
2462 1 53.57074578265842 2.054266136881023e-05 0.6701758367994173 -1 0 0
2458 5 55.058822054398085 0.859099738368299 0.02737676921179951 -1 0 0
2470 1 56.54689832613942 2.0542661368883156e-05 0.6701758367994173 -1 0 0
2466 5 58.034974597879085 0.859099738368299 0.027376769211799514 -1 0 0
2733 1 55.05882205439892 2.5774442508533735 0.6701758367994161 -1 0 0
2737 5 56.54689832613858 3.436523446560291 0.027376769211800718 -1 0 0
2741 1 58.034974597879916 2.5774442508533735 0.6701758367994162 -1 0 0
2734 1 53.57074578265842 5.154867959045375 0.6701758367994167 -1 0 0
2742 1 56.54689832613942 5.154867959045375 0.6701758367994166 -1 0 0
2745 5 59.52305086961958 3.436523446560291 0.02737676921180068 -1 0 0
2478 1 59.52305086962042 2.0542661368922702e-05 0.6701758367994173 -1 0 0
2474 5 61.011127141360085 0.8590997383682984 0.02737676921179961 -1 0 0
2486 1 62.49920341310142 2.0542661364969633e-05 0.6701758367994148 -1 0 0
2482 5 63.987279684841084 0.859099738368295 0.02737676921179945 -1 0 0
2749 1 61.01112714136092 2.577444250853374 0.6701758367994157 -1 0 0
2753 5 62.49920341310058 3.436523446560291 0.027376769211801162 -1 0 0
2757 1 63.98727968484192 2.5774442508533744 0.6701758367994167 -1 0 0
2750 1 59.52305086962042 5.154867959045375 0.6701758367994164 -1 0 0
2758 1 62.49920341310142 5.154867959045375 0.670175836799416 -1 0 0
2761 5 65.47535595658158 3.4365234465602916 0.027376769211801107 -1 0 0
2494 1 65.47535595658242 2.054266136935233e-05 0.6701758367994166 -1 0 0
2490 5 66.96343222832208 0.8590997383682941 0.027376769211800836 -1 0 0
2502 1 68.45150850006343 2.054266136927378e-05 0.6701758367994157 -1 0 0
2498 5 69.93958477180308 0.8590997383682971 0.0273767692117998 -1 0 0
2765 1 66.96343222832292 2.577444250853372 0.6701758367994164 -1 0 0
2769 5 68.45150850006259 3.436523446560288 0.027376769211798817 -1 0 0
2773 1 69.93958477180392 2.577444250853373 0.670175836799417 -1 0 0
2766 1 65.47535595658242 5.154867959045376 0.6701758367994181 -1 0 0
2774 1 68.45150850006343 5.154867959045378 0.6701758367994154 -1 0 0
2777 5 71.42766104354358 3.4365234465602925 0.027376769211801696 -1 0 0
2510 1 71.42766104354442 2.054266137056333e-05 0.6701758367994158 -1 0 0
2506 5 72.91573731528408 0.8590997383682952 0.027376769211801842 -1 0 0
2518 1 74.40381358702543 2.0542661369226238e-05 0.6701758367994192 -1 0 0
2514 5 75.89188985876508 0.859099738368293 0.027376769211799306 -1 0 0
2781 1 72.91573731528491 2.577444250853374 0.6701758367994134 -1 0 0
2789 1 75.89188985876592 2.5774442508533757 0.6701758367994174 -1 0 0
2785 5 74.40381358702457 3.436523446560291 0.027376769211801093 -1 0 0
2782 1 71.42766104354442 5.154867959045376 0.6701758367994157 -1 0 0
2790 1 74.40381358702543 5.154867959045376 0.6701758367994178 -1 0 0
2793 5 77.37996613050558 3.4365234465602916 0.027376769211799677 -1 0 0
2526 1 77.37996613050643 2.0542661375117508e-05 0.6701758367994166 -1 0 0
2522 5 78.86804240224608 0.8590997383682972 0.027376769211801592 -1 0 0
2534 1 80.35611867398742 2.054266136864711e-05 0.6701758367994194 -1 0 0
2530 5 81.84419494572708 0.8590997383682922 0.027376769211799646 -1 0 0
2797 1 78.86804240224693 2.577444250853371 0.6701758367994152 -1 0 0
2801 5 80.35611867398657 3.4365234465602907 0.02737676921180145 -1 0 0
2805 1 81.84419494572792 2.5774442508533766 0.6701758367994168 -1 0 0
2798 1 77.37996613050643 5.154867959045377 0.670175836799415 -1 0 0
2806 1 80.35611867398742 5.154867959045375 0.6701758367994184 -1 0 0
2809 5 83.33227121746758 3.4365234465602894 0.027376769211798657 -1 0 0
2538 5 84.82034748920807 0.8590997383682925 0.027376769211802994 -1 0 0
2542 1 83.33227121746843 2.0542661374791665e-05 0.670175836799417 -1 0 0
2550 1 86.30842376094942 2.0542661368826195e-05 0.6701758367994186 -1 0 0
2546 5 87.79650003268908 0.8590997383682942 0.02737676921180017 -1 0 0
2813 1 84.82034748920893 2.5774442508533717 0.6701758367994185 -1 0 0
2817 5 86.30842376094857 3.4365234465602907 0.027376769211804323 -1 0 0
2821 1 87.79650003268992 2.577444250853373 0.6701758367994163 -1 0 0
2814 1 83.33227121746843 5.154867959045378 0.6701758367994155 -1 0 0
2822 1 86.30842376094942 5.154867959045374 0.6701758367994186 -1 0 0
2825 5 89.28457630442958 3.4365234465602907 0.027376769211799806 -1 0 0
2558 1 89.28457630443043 2.0542661369840086e-05 0.6701758367994152 -1 0 0
2554 5 90.77265257617009 0.8590997383683017 0.027376769211798536 -1 0 0
2562 5 93.74880511965107 0.8590997383682942 0.027376769211800572 -1 0 0
2566 1 92.26072884791144 2.0542661369151902e-05 0.6701758367994199 -1 0 0
2829 1 90.77265257617093 2.5774442508533726 0.6701758367994136 -1 0 0
2837 1 93.74880511965193 2.577444250853377 0.6701758367994144 -1 0 0
2833 5 92.26072884791057 3.4365234465602925 0.027376769211798938 -1 0 0
2830 1 89.28457630443043 5.154867959045378 0.6701758367994142 -1 0 0
2838 1 92.26072884791144 5.154867959045375 0.6701758367994172 -1 0 0
2841 5 95.23688139139158 3.4365234465602894 0.027376769211802546 -1 0 0
2857 5 101.18918647835358 3.436523446560289 0.027376769211800916 -1 0 0
2574 1 95.23688139139244 2.0542661370587982e-05 0.6701758367994151 -1 0 0
2570 5 96.72495766313207 0.8590997383682886 0.027376769211802283 -1 0 0
2582 1 98.21303393487344 2.054266137335984e-05 0.670175836799419 -1 0 0
2578 5 99.70111020661308 0.8590997383682957 0.027376769211800267 -1 0 0
2845 1 96.72495766313294 2.5774442508533744 0.670175836799419 -1 0 0
2849 5 98.21303393487257 3.4365234465602916 0.027376769211800517 -1 0 0
2853 1 99.70111020661392 2.5774442508533726 0.6701758367994171 -1 0 0
2846 1 95.23688139139244 5.154867959045377 0.6701758367994165 -1 0 0
2854 1 98.21303393487344 5.154867959045375 0.6701758367994172 -1 0 0
2858 5 1.488076271740085 6.013947154752289 0.02737676921180032 0 0 0
2866 5 4.464228815221081 6.013947154752288 0.027376769211801263 0 0 0
3133 1 1.4880762717409177 7.7322916672373765 0.6701758367994165 0 0 0
3137 5 2.9761525434805804 8.591370862944288 0.027376769211801148 0 0 0
3141 1 4.464228815221918 7.7322916672373765 0.6701758367994165 0 0 0
3145 5 5.952305086961578 8.591370862944288 0.02737676921180143 0 0 0
3134 1 4.1904491572163484e-13 10.309715375429377 0.6701758367994166 0 0 0
3142 1 2.9761525434814198 10.309715375429377 0.6701758367994167 0 0 0
3130 5 1.488076271740085 11.16879457113629 0.02737676921180124 0 0 0
3138 5 4.464228815221081 11.168794571136289 0.027376769211801936 0 0 0
3150 1 5.9523050869624194 10.309715375429377 0.6701758367994168 0 0 0
2874 5 7.44038135870208 6.013947154752288 0.027376769211801304 0 0 0
2882 5 10.416533902183081 6.013947154752288 0.02737676921180131 0 0 0
3149 1 7.440381358702918 7.7322916672373765 0.6701758367994171 0 0 0
3153 5 8.928457630442578 8.591370862944288 0.027376769211801488 0 0 0
3157 1 10.416533902183918 7.732291667237377 0.6701758367994164 0 0 0
3161 5 11.904610173923581 8.591370862944286 0.027376769211802335 0 0 0
3158 1 8.92845763044342 10.309715375429377 0.6701758367994167 0 0 0
3146 5 7.44038135870208 11.168794571136289 0.02737676921180205 0 0 0
3154 5 10.416533902183081 11.168794571136289 0.027376769211802144 0 0 0
3166 1 11.90461017392442 10.309715375429379 0.6701758367994168 0 0 0
2890 5 13.392686445664083 6.013947154752288 0.02737676921180196 0 0 0
2898 5 16.368838989145083 6.013947154752288 0.027376769211800565 0 0 0
3165 1 13.392686445664918 7.732291667237377 0.6701758367994178 0 0 0
3169 5 14.880762717404581 8.591370862944286 0.027376769211802474 0 0 0
3173 1 16.368838989145917 7.7322916672373765 0.670175836799416 0 0 0
3177 5 17.856915260885582 8.591370862944288 0.027376769211800885 0 0 0
3174 1 14.880762717405418 10.309715375429379 0.6701758367994177 0 0 0
3162 5 13.392686445664083 11.168794571136289 0.027376769211802803 0 0 0
3170 5 16.368838989145083 11.16879457113629 0.027376769211801526 0 0 0
3182 1 17.856915260886417 10.309715375429377 0.6701758367994162 0 0 0
2906 5 19.344991532626086 6.013947154752287 0.02737676921180154 0 0 0
2914 5 22.321144076107085 6.013947154752287 0.027376769211800663 0 0 0
3181 1 19.344991532626917 7.732291667237377 0.6701758367994185 0 0 0
3185 5 20.83306780436658 8.591370862944286 0.027376769211801946 0 0 0
3189 1 22.321144076107917 7.732291667237378 0.6701758367994158 0 0 0
3193 5 23.80922034784758 8.591370862944286 0.02737676921180097 0 0 0
3190 1 20.833067804367417 10.309715375429379 0.6701758367994171 0 0 0
3178 5 19.344991532626086 11.168794571136289 0.027376769211802807 0 0 0
3186 5 22.321144076107082 11.16879457113629 0.02737676921180136 0 0 0
3198 1 23.80922034784842 10.309715375429377 0.6701758367994174 0 0 0
2922 5 25.29729661958808 6.013947154752289 0.027376769211802706 0 0 0
2930 5 28.27344916306908 6.013947154752288 0.02737676921180015 0 0 0
3197 1 25.29729661958892 7.7322916672373765 0.6701758367994173 0 0 0
3201 5 26.785372891328578 8.591370862944288 0.027376769211801787 0 0 0
3205 1 28.27344916306992 7.732291667237377 0.6701758367994165 0 0 0
3209 5 29.76152543480958 8.591370862944286 0.027376769211801353 0 0 0
3206 1 26.78537289132942 10.309715375429379 0.6701758367994158 0 0 0
3194 5 25.297296619588078 11.16879457113629 0.02737676921180353 0 0 0
3202 5 28.273449163069085 11.168794571136289 0.027376769211800916 0 0 0
3214 1 29.76152543481042 10.309715375429377 0.6701758367994184 0 0 0
2938 5 31.24960170655008 6.013947154752289 0.027376769211802026 0 0 0
2946 5 34.22575425003109 6.013947154752288 0.02737676921180133 0 0 0
3213 1 31.249601706550916 7.7322916672373765 0.6701758367994181 0 0 0
3221 1 34.22575425003191 7.7322916672373765 0.6701758367994158 0 0 0
3217 5 32.73767797829058 8.591370862944288 0.02737676921180166 0 0 0
3225 5 35.713830521771584 8.591370862944286 0.02737676921180145 0 0 0
3222 1 32.737677978291416 10.309715375429379 0.6701758367994164 0 0 0
3210 5 31.24960170655008 11.16879457113629 0.027376769211802723 0 0 0
3218 5 34.22575425003108 11.16879457113629 0.027376769211802116 0 0 0
3230 1 35.71383052177242 10.309715375429379 0.6701758367994171 0 0 0
2954 5 37.20190679351208 6.013947154752288 0.027376769211801346 0 0 0
2962 5 40.17805933699309 6.013947154752288 0.027376769211801266 0 0 0
3229 1 37.20190679351291 7.7322916672373765 0.6701758367994182 0 0 0
3233 5 38.68998306525258 8.591370862944288 0.027376769211801686 0 0 0
3237 1 40.17805933699391 7.7322916672373765 0.6701758367994157 0 0 0
3241 5 41.66613560873358 8.591370862944286 0.02737676921180144 0 0 0
3238 1 38.689983065253415 10.309715375429377 0.6701758367994168 0 0 0
3226 5 37.20190679351208 11.16879457113629 0.02737676921180213 0 0 0
3234 5 40.17805933699308 11.16879457113629 0.027376769211802144 0 0 0
3246 1 41.66613560873442 10.309715375429379 0.6701758367994171 0 0 0
2970 5 43.15421188047408 6.013947154752288 0.027376769211801384 0 0 0
2978 5 46.130364423955086 6.013947154752288 0.027376769211801134 0 0 0
3245 1 43.15421188047491 7.7322916672373765 0.6701758367994181 0 0 0
3249 5 44.642288152214576 8.591370862944288 0.027376769211801644 0 0 0
3253 1 46.13036442395591 7.7322916672373765 0.6701758367994157 0 0 0
3257 5 47.61844069569558 8.591370862944288 0.027376769211801395 0 0 0
3254 1 44.642288152215414 10.309715375429377 0.6701758367994168 0 0 0
3242 5 43.15421188047408 11.16879457113629 0.027376769211802147 0 0 0
3250 5 46.13036442395508 11.16879457113629 0.027376769211801915 0 0 0
3262 1 47.61844069569642 10.309715375429379 0.6701758367994167 0 0 0
2986 5 49.10651696743608 6.013947154752289 0.027376769211802952 0 0 0
2722 5 52.08266951091708 6.013947154752287 0.02737676921180133 -1 0 0
3261 1 49.10651696743692 7.732291667237378 0.6701758367994168 0 0 0
2997 1 52.08266951091792 7.7322916672373765 0.6701758367994171 -1 0 0
2993 5 50.59459323917658 8.591370862944286 0.02737676921180229 -1 0 0
2998 1 50.59459323917742 10.309715375429379 0.6701758367994165 -1 0 0
3258 5 49.10651696743608 11.16879457113629 0.0273767692118038 0 0 0
2994 5 52.08266951091708 11.168794571136289 0.027376769211802026 -1 0 0
3001 5 53.57074578265758 8.591370862944286 0.027376769211801717 -1 0 0
2730 5 55.058822054398085 6.013947154752288 0.027376769211801055 -1 0 0
2738 5 58.034974597879085 6.013947154752288 0.027376769211801055 -1 0 0
3005 1 55.05882205439892 7.7322916672373765 0.6701758367994168 -1 0 0
3009 5 56.54689832613858 8.591370862944286 0.02737676921180142 -1 0 0
3013 1 58.034974597879916 7.7322916672373765 0.670175836799417 -1 0 0
3006 1 53.57074578265842 10.309715375429377 0.6701758367994168 -1 0 0
3014 1 56.54689832613942 10.309715375429379 0.6701758367994167 -1 0 0
3002 5 55.058822054398085 11.168794571136289 0.027376769211801856 -1 0 0
3010 5 58.034974597879085 11.168794571136289 0.027376769211801842 -1 0 0
3017 5 59.52305086961958 8.591370862944288 0.02737676921180136 -1 0 0
2746 5 61.011127141360085 6.013947154752287 0.0273767692118012 -1 0 0
2754 5 63.98727968484108 6.013947154752288 0.0273767692118004 -1 0 0
3021 1 61.01112714136092 7.732291667237377 0.6701758367994163 -1 0 0
3025 5 62.49920341310058 8.591370862944288 0.02737676921180211 -1 0 0
3029 1 63.98727968484192 7.732291667237377 0.6701758367994174 -1 0 0
3022 1 59.52305086962042 10.309715375429377 0.6701758367994168 -1 0 0
3030 1 62.49920341310142 10.309715375429379 0.6701758367994161 -1 0 0
3018 5 61.011127141360085 11.168794571136289 0.027376769211802134 -1 0 0
3026 5 63.98727968484108 11.168794571136289 0.027376769211801277 -1 0 0
3033 5 65.47535595658158 8.591370862944288 0.027376769211802227 -1 0 0
2762 5 66.96343222832208 6.013947154752287 0.02737676921180163 -1 0 0
2770 5 69.93958477180308 6.013947154752289 0.02737676921180032 -1 0 0
3037 1 66.96343222832292 7.732291667237375 0.6701758367994171 -1 0 0
3041 5 68.45150850006257 8.591370862944284 0.027376769211800094 -1 0 0
3045 1 69.93958477180392 7.732291667237377 0.6701758367994182 -1 0 0
3038 1 65.47535595658242 10.309715375429377 0.6701758367994184 -1 0 0
3046 1 68.45150850006341 10.309715375429379 0.670175836799416 -1 0 0
3034 5 66.96343222832208 11.16879457113629 0.027376769211800822 -1 0 0
3042 5 69.93958477180308 11.168794571136287 0.027376769211804906 -1 0 0
3049 5 71.42766104354358 8.591370862944288 0.027376769211802644 -1 0 0
2778 5 72.91573731528408 6.013947154752288 0.027376769211802616 -1 0 0
2786 5 75.89188985876508 6.0139471547522865 0.027376769211799924 -1 0 0
3053 1 72.91573731528491 7.732291667237377 0.6701758367994137 -1 0 0
3061 1 75.89188985876592 7.732291667237379 0.670175836799418 -1 0 0
3057 5 74.40381358702457 8.591370862944286 0.027376769211802612 -1 0 0
3054 1 71.42766104354442 10.309715375429379 0.6701758367994161 -1 0 0
3062 1 74.40381358702543 10.309715375429377 0.6701758367994183 -1 0 0
3050 5 72.91573731528408 11.168794571136292 0.027376769211801804 -1 0 0
3058 5 75.89188985876508 11.168794571136289 0.02737676921180098 -1 0 0
3065 5 77.37996613050558 8.591370862944288 0.02737676921180044 -1 0 0
2794 5 78.86804240224608 6.013947154752291 0.027376769211802657 -1 0 0
2802 5 81.84419494572708 6.013947154752286 0.027376769211800475 -1 0 0
3069 1 78.86804240224693 7.732291667237374 0.6701758367994156 -1 0 0
3073 5 80.35611867398657 8.591370862944286 0.027376769211802612 -1 0 0
3077 1 81.84419494572792 7.73229166723738 0.6701758367994175 -1 0 0
3070 1 77.37996613050643 10.309715375429379 0.670175836799415 -1 0 0
3078 1 80.35611867398742 10.309715375429377 0.6701758367994187 -1 0 0
3066 5 78.86804240224608 11.168794571136292 0.027376769211803476 -1 0 0
3074 5 81.84419494572708 11.168794571136287 0.027376769211801412 -1 0 0
3081 5 83.33227121746758 8.591370862944286 0.027376769211799757 -1 0 0
2810 5 84.82034748920807 6.013947154752289 0.027376769211802637 -1 0 0
2818 5 87.79650003268908 6.0139471547522865 0.027376769211801103 -1 0 0
3085 1 84.82034748920893 7.732291667237376 0.6701758367994188 -1 0 0
3089 5 86.30842376094857 8.591370862944288 0.027376769211805173 -1 0 0
3093 1 87.79650003268992 7.7322916672373765 0.6701758367994173 -1 0 0
3086 1 83.33227121746843 10.30971537542938 0.6701758367994158 -1 0 0
3094 1 86.30842376094942 10.309715375429375 0.6701758367994191 -1 0 0
3082 5 84.82034748920807 11.16879457113629 0.027376769211803917 -1 0 0
3090 5 87.79650003268908 11.168794571136289 0.02737676921180199 -1 0 0
3097 5 89.28457630442958 8.591370862944286 0.027376769211800767 -1 0 0
2826 5 90.77265257617009 6.013947154752291 0.027376769211800437 -1 0 0
2834 5 93.74880511965107 6.013947154752287 0.027376769211801346 -1 0 0
3101 1 90.77265257617093 7.7322916672373765 0.6701758367994145 -1 0 0
3109 1 93.74880511965193 7.732291667237381 0.6701758367994153 -1 0 0
3105 5 92.26072884791057 8.59137086294429 0.027376769211800066 -1 0 0
3102 1 89.28457630443043 10.309715375429379 0.6701758367994146 -1 0 0
3110 1 92.26072884791144 10.309715375429377 0.6701758367994178 -1 0 0
3098 5 90.77265257617009 11.168794571136294 0.027376769211801023 -1 0 0
3106 5 93.74880511965107 11.168794571136289 0.027376769211802415 -1 0 0
3113 5 95.23688139139156 8.591370862944286 0.02737676921180395 -1 0 0
3129 5 101.18918647835358 8.591370862944286 0.027376769211801974 -1 0 0
2842 5 96.72495766313207 6.013947154752286 0.027376769211802203 -1 0 0
2850 5 99.70111020661308 6.013947154752289 0.027376769211801218 -1 0 0
3117 1 96.72495766313294 7.732291667237377 0.6701758367994194 -1 0 0
3121 5 98.21303393487257 8.59137086294429 0.027376769211801454 -1 0 0
3125 1 99.70111020661392 7.732291667237376 0.6701758367994178 -1 0 0
3118 1 95.23688139139244 10.309715375429379 0.6701758367994172 -1 0 0
3126 1 98.21303393487344 10.309715375429377 0.6701758367994174 -1 0 0
3114 5 96.72495766313207 11.168794571136287 0.027376769211803167 -1 0 0
3122 5 99.70111020661308 11.168794571136292 0.02737676921180196 -1 0 0
3405 1 1.4880762717409177 12.887139083621376 0.6701758367994178 0 0 0
3409 5 2.9761525434805804 13.746218279328293 0.02737676921180195 0 0 0
3413 1 4.464228815221918 12.887139083621376 0.6701758367994181 0 0 0
3417 5 5.952305086961579 13.746218279328293 0.027376769211802324 0 0 0
3406 1 4.191575969999668e-13 15.464562791813371 0.6701758367994173 0 0 0
3414 1 2.9761525434814193 15.464562791813373 0.6701758367994175 0 0 0
3402 5 1.488076271740085 16.323641987520297 0.02737676921180028 0 0 0
3410 5 4.464228815221081 16.323641987520293 0.0273767692118008 0 0 0
3422 1 5.9523050869624194 15.464562791813371 0.6701758367994172 0 0 0
3421 1 7.4403813587029175 12.887139083621376 0.6701758367994181 0 0 0
3425 5 8.928457630442578 13.746218279328293 0.027376769211802442 0 0 0
3429 1 10.416533902183918 12.887139083621378 0.6701758367994178 0 0 0
3433 5 11.904610173923581 13.746218279328293 0.027376769211803625 0 0 0
3430 1 8.92845763044342 15.464562791813373 0.6701758367994175 0 0 0
3418 5 7.440381358702081 16.323641987520293 0.027376769211801433 0 0 0
3426 5 10.416533902183081 16.323641987520293 0.02737676921180101 0 0 0
3438 1 11.90461017392442 15.464562791813371 0.6701758367994175 0 0 0
3437 1 13.39268644566492 12.887139083621376 0.670175836799419 0 0 0
3441 5 14.880762717404581 13.746218279328293 0.02737676921180332 0 0 0
3445 1 16.368838989145917 12.887139083621374 0.6701758367994172 0 0 0
3449 5 17.856915260885586 13.746218279328295 0.02737676921180207 0 0 0
3446 1 14.880762717405418 15.464562791813371 0.6701758367994184 0 0 0
3434 5 13.392686445664083 16.323641987520297 0.027376769211801627 0 0 0
3442 5 16.368838989145083 16.323641987520293 0.02737676921180021 0 0 0
3454 1 17.856915260886417 15.46456279181337 0.6701758367994172 0 0 0
3453 1 19.344991532626917 12.887139083621376 0.6701758367994194 0 0 0
3457 5 20.83306780436658 13.746218279328295 0.027376769211802297 0 0 0
3461 1 22.321144076107917 12.887139083621378 0.6701758367994168 0 0 0
3465 5 23.80922034784758 13.746218279328293 0.027376769211802356 0 0 0
3462 1 20.833067804367417 15.464562791813371 0.6701758367994186 0 0 0
3450 5 19.344991532626086 16.323641987520297 0.027376769211801155 0 0 0
3458 5 22.321144076107082 16.323641987520297 0.027376769211799806 0 0 0
3470 1 23.80922034784842 15.464562791813371 0.6701758367994172 0 0 0
3469 1 25.29729661958892 12.887139083621376 0.6701758367994185 0 0 0
3473 5 26.785372891328578 13.746218279328295 0.02737676921180324 0 0 0
3477 1 28.27344916306992 12.887139083621378 0.6701758367994176 0 0 0
3481 5 29.76152543480958 13.746218279328293 0.027376769211802533 0 0 0
3478 1 26.78537289132942 15.464562791813371 0.6701758367994168 0 0 0
3466 5 25.29729661958808 16.323641987520297 0.027376769211802255 0 0 0
3474 5 28.27344916306908 16.323641987520297 0.02737676921179943 0 0 0
3486 1 29.76152543481042 15.46456279181337 0.6701758367994186 0 0 0
3485 1 31.249601706550916 12.887139083621376 0.6701758367994193 0 0 0
3493 1 34.22575425003191 12.887139083621376 0.6701758367994168 0 0 0
3489 5 32.73767797829058 13.746218279328295 0.02737676921180317 0 0 0
3497 5 35.713830521771584 13.746218279328293 0.027376769211802286 0 0 0
3494 1 32.737677978291416 15.464562791813371 0.6701758367994164 0 0 0
3482 5 31.24960170655008 16.323641987520297 0.02737676921180136 0 0 0
3490 5 34.22575425003109 16.323641987520297 0.027376769211800545 0 0 0
3502 1 35.71383052177242 15.46456279181337 0.6701758367994183 0 0 0
3501 1 37.20190679351291 12.887139083621376 0.6701758367994193 0 0 0
3505 5 38.68998306525258 13.746218279328295 0.027376769211803226 0 0 0
3509 1 40.17805933699391 12.887139083621376 0.6701758367994167 0 0 0
3513 5 41.66613560873358 13.746218279328293 0.02737676921180228 0 0 0
3510 1 38.689983065253415 15.464562791813371 0.6701758367994166 0 0 0
3498 5 37.20190679351209 16.323641987520297 0.02737676921180068 0 0 0
3506 5 40.17805933699309 16.323641987520297 0.027376769211800534 0 0 0
3518 1 41.66613560873442 15.46456279181337 0.6701758367994183 0 0 0
3517 1 43.15421188047491 12.887139083621376 0.6701758367994193 0 0 0
3521 5 44.642288152214576 13.746218279328295 0.027376769211803223 0 0 0
3525 1 46.13036442395591 12.887139083621376 0.6701758367994167 0 0 0
3529 5 47.61844069569558 13.746218279328295 0.027376769211802193 0 0 0
3526 1 44.642288152215414 15.464562791813371 0.6701758367994166 0 0 0
3514 5 43.15421188047409 16.323641987520297 0.02737676921180068 0 0 0
3522 5 46.130364423955086 16.323641987520297 0.027376769211800503 0 0 0
3534 1 47.61844069569642 15.46456279181337 0.6701758367994181 0 0 0
3533 1 49.10651696743692 12.887139083621376 0.6701758367994184 0 0 0
3269 1 52.08266951091792 12.887139083621376 0.6701758367994185 -1 0 0
3265 5 50.59459323917658 13.746218279328293 0.02737676921180305 -1 0 0
3270 1 50.59459323917742 15.464562791813371 0.6701758367994173 -1 0 0
3530 5 49.106516967436086 16.323641987520297 0.02737676921180235 0 0 0
3266 5 52.08266951091708 16.323641987520297 0.027376769211800506 -1 0 0
3273 5 53.57074578265758 13.746218279328293 0.02737676921180274 -1 0 0
3277 1 55.05882205439892 12.887139083621376 0.6701758367994181 -1 0 0
3281 5 56.54689832613858 13.746218279328293 0.027376769211802494 -1 0 0
3285 1 58.034974597879916 12.887139083621376 0.6701758367994182 -1 0 0
3278 1 53.57074578265842 15.464562791813371 0.6701758367994178 -1 0 0
3286 1 56.54689832613942 15.464562791813373 0.6701758367994175 -1 0 0
3274 5 55.058822054398085 16.323641987520293 0.02737676921180107 -1 0 0
3282 5 58.034974597879085 16.323641987520293 0.027376769211801096 -1 0 0
3289 5 59.52305086961958 13.746218279328293 0.027376769211802467 -1 0 0
3293 1 61.01112714136092 12.887139083621376 0.6701758367994174 -1 0 0