LAMMPS data file via write_data, version 29 Aug 2024, timestep = 2, units = metal

2688 atoms
4 atom types

0 101.16524164596 xlo xhi
0 102.213614119624 ylo yhi
-50 50 zlo zhi

Masses

1 114.818
2 114.818
3 30.973761998
4 30.973761998

Atoms # atomic

721 1 2.524718147530148e-11 1.2168287395026685 0.0332581113853906 0 0 0
723 3 2.107609200932103 1.621264516527393e-11 0.463057744102769 0 0 0
725 1 4.215218401940382 1.2168287395027273 0.03325811138538299 0 0 0
728 3 4.215218401889586 3.6504862185743905 0.4630577441027497 0 0 0
722 1 2.107609200982931 4.867314958060469 0.03325811138538294 0 0 0
727 3 6.322827602847077 1.6225066353229632e-11 0.4630577441027626 0 0 0
729 1 8.43043680385533 1.216828739502715 0.03325811138536956 0 0 0
731 3 10.538046004762244 1.633242268059169e-11 0.46305774410275974 0 0 0
732 3 8.430436803804726 3.6504862185744544 0.4630577441027409 0 0 0
726 1 6.3228276028979 4.867314958060477 0.03325811138537435 0 0 0
730 1 10.538046004812776 4.86731495806038 0.03325811138538245 0 0 0
733 1 12.645655205770103 1.2168287395027404 0.03325811138537604 0 0 0
735 3 14.75326440667735 1.6212621273671457e-11 0.4630577441027687 0 0 0
737 1 16.86087360768518 1.2168287395026458 0.03325811138538375 0 0 0
736 3 12.645655205719667 3.650486218574378 0.4630577441027552 0 0 0
740 3 16.860873607634744 3.6504862185744744 0.4630577441027466 0 0 0
734 1 14.75326440672786 4.867314958060477 0.033258111385376495 0 0 0
739 3 18.96848280859224 1.630889135250573e-11 0.4630577441027723 0 0 0
741 1 21.076092009600305 1.21682873950268 0.03325811138540242 0 0 0
743 3 23.1837012105069 1.6131344698330214e-11 0.46305774410278855 0 0 0
744 3 21.076092009549523 3.650486218574343 0.4630577441027687 0 0 0
738 1 18.968482808642808 4.867314958060374 0.03325811138539021 0 0 0
742 1 23.18370121055804 4.867314958060558 0.03325811138537646 0 0 0
745 1 25.291310411515777 1.2168287395026354 0.033258111385388776 0 0 0
747 3 27.398919612421686 1.633105948948818e-11 0.4630577441027587 0 0 0
749 1 29.50652881343052 1.216828739502801 0.03325811138535111 0 0 0
748 3 25.29131041146462 3.6504862185744846 0.4630577441027416 0 0 0
752 3 29.506528813379735 3.650486218574416 0.463057744102741 0 0 0
746 1 27.398919612472827 4.867314958060396 0.033258111385375225 0 0 0
751 3 31.61413801433718 1.633425857584199e-11 0.4630577441027587 0 0 0
753 1 33.72174721534522 1.2168287395026571 0.03325811138538003 0 0 0
756 3 33.72174721529476 3.650486218574459 0.4630577441027537 0 0 0
750 1 31.61413801438776 4.867314958060388 0.03325811138537904 0 0 0
755 3 35.82935641625222 1.6310128356304087e-11 0.4630577441027719 0 0 0
757 1 37.93696561726033 1.2168287395026807 0.033258111385401176 0 0 0
759 3 40.04457481816694 1.6153070142100254e-11 0.46305774410277517 0 0 0
760 3 37.9369656172095 3.650486218574343 0.46305774410276823 0 0 0
754 1 35.82935641630282 4.867314958060373 0.03325811138538972 0 0 0
758 1 40.044574818218045 4.867314958060562 0.03325811138537424 0 0 0
761 1 42.152184019175465 1.2168287395027853 0.0332581113853584 0 0 0
763 3 44.259793220082194 1.6331940301380066e-11 0.4630577441027593 0 0 0
765 1 46.36740242109021 1.216828739502653 0.033258111385381296 0 0 0
764 3 42.15218401912466 3.6504862185744376 0.4630577441027301 0 0 0
768 3 46.36740242103976 3.6504862185744607 0.46305774410275274 0 0 0
762 1 44.259793220132764 4.867314958060393 0.03325811138537602 0 0 0
767 3 48.47501162199722 1.6310016945797336e-11 0.4630577441027708 0 0 0
673 1 50.58262082300526 1.216828739502678 0.03325811138538598 -1 0 0
675 3 52.69023002391212 1.6216781662239034e-11 0.46305774410276734 -1 0 0
676 3 50.582620822954645 3.650486218574402 0.46305774410276074 -1 0 0
766 1 48.47501162204778 4.867314958060386 0.03325811138538279 0 0 0
674 1 52.69023002396289 4.867314958060473 0.03325811138537786 -1 0 0
677 1 54.79783922492032 1.2168287395027064 0.03325811138537428 -1 0 0
679 3 56.905448425827196 1.6317354276404075e-11 0.4630577441027673 -1 0 0
681 1 59.013057626835256 1.2168287395026771 0.03325811138538636 -1 0 0
680 3 54.79783922486971 3.6504862185744527 0.46305774410274186 -1 0 0
684 3 59.013057626784644 3.650486218574401 0.46305774410276085 -1 0 0
678 1 56.905448425877786 4.867314958060387 0.03325811138538147 -1 0 0
683 3 61.12066682774208 1.620206449276777e-11 0.46305774410277567 -1 0 0
685 1 63.22827602875054 1.2168287395026443 0.03325811138540057 -1 0 0
687 3 65.3358852296568 1.623086550837477e-11 0.46305774410275985 -1 0 0
688 3 63.22827602869957 3.6504862185744105 0.4630577441027569 -1 0 0
682 1 61.12066682779292 4.8673149580604695 0.03325811138538222 -1 0 0
686 1 65.33588522970793 4.867314958060481 0.03325811138537418 -1 0 0
689 1 67.44349443066547 1.2168287395028017 0.03325811138535229 -1 0 0
691 3 69.5511036315722 1.6326281603066765e-11 0.46305774410276235 -1 0 0
692 3 67.44349443061472 3.6504862185744296 0.46305774410273354 -1 0 0
690 1 69.55110363162272 4.867314958060392 0.03325811138537671 -1 0 0
693 1 71.65871283258018 1.2168287395026607 0.03325811138537767 -1 0 0
695 3 73.76632203348724 1.631074620559324e-11 0.4630577441027718 -1 0 0
697 1 75.87393123449529 1.2168287395026804 0.03325811138540127 -1 0 0
696 3 71.65871283252979 3.6504862185744584 0.46305774410275335 -1 0 0
700 3 75.8739312344445 3.650486218574343 0.46305774410276807 -1 0 0
694 1 73.7663220335378 4.867314958060365 0.03325811138539311 -1 0 0
699 3 77.98154043540195 1.6144842235407643e-11 0.46305774410277856 -1 0 0
701 1 80.08914963641047 1.2168287395027766 0.033258111385363116 -1 0 0
703 3 82.19675883731718 1.634011668762994e-11 0.46305774410275596 -1 0 0
704 3 80.08914963635969 3.650486218574439 0.46305774410273026 -1 0 0
698 1 77.98154043545301 4.86731495806057 0.03325811138537206 -1 0 0
702 1 82.19675883736772 4.867314958060392 0.03325811138537592 -1 0 0
705 1 84.30436803832518 1.2168287395026611 0.03325811138537751 -1 0 0
707 3 86.41197723923226 1.6311363030594475e-11 0.46305774410277034 -1 0 0
709 1 88.51958644024018 1.2168287395026587 0.033258111385378514 -1 0 0
708 3 84.30436803827479 3.65048621857446 0.4630577441027527 -1 0 0
712 3 88.51958644018978 3.6504862185744584 0.4630577441027531 -1 0 0
706 1 86.41197723928272 4.867314958060395 0.033258111385377875 -1 0 0
711 3 90.62719564114724 1.6310619465699155e-11 0.46305774410277184 -1 0 0
713 1 92.73480484215528 1.2168287395026807 0.03325811138540218 -1 0 0
715 3 94.84241404306195 1.6144368354805546e-11 0.4630577441027791 -1 0 0
716 3 92.7348048421045 3.650486218574343 0.4630577441027688 -1 0 0
710 1 90.6271956411978 4.867314958060365 0.03325811138539398 -1 0 0
714 1 94.84241404311301 4.86731495806057 0.033258111385370895 -1 0 0
724 3 101.16524164593461 3.6504862185744065 0.46305774410275896 -1 0 0
717 1 96.95002324407047 1.216828739502777 0.03325811138536193 -1 0 0
719 3 99.05763244497717 1.63398742774197e-11 0.463057744102756 -1 0 0
720 3 96.95002324401969 3.6504862185744384 0.46305774410272993 -1 0 0
718 1 99.05763244502778 4.867314958060367 0.03325811138538701 -1 0 0
819 3 2.1076092009320924 7.300972437132531 0.46305774410278294 0 0 0
817 1 2.5247822427349822e-11 8.517801176618612 0.03325811138542774 0 0 0
821 1 4.215218401940395 8.517801176618669 0.03325811138541888 0 0 0
824 3 4.215218401889601 10.951458655690177 0.46305774410278244 0 0 0
823 3 6.322827602847063 7.300972437132547 0.46305774410277545 0 0 0
827 3 10.538046004762245 7.300972437132644 0.4630577441027678 0 0 0
825 1 8.43043680385534 8.517801176618663 0.03325811138540632 0 0 0
828 3 8.430436803804731 10.951458655690232 0.4630577441027741 0 0 0
831 3 14.753264406677353 7.3009724371325335 0.46305774410278167 0 0 0
829 1 12.645655205770096 8.51780117661868 0.03325811138541262 0 0 0
833 1 16.860873607685182 8.517801176618581 0.03325811138541987 0 0 0
832 3 12.645655205719672 10.95145865569017 0.4630577441027871 0 0 0
836 3 16.86087360763475 10.951458655690264 0.46305774410278 0 0 0
835 3 18.968482808592235 7.300972437132618 0.46305774410278144 0 0 0
839 3 23.1837012105069 7.3009724371324305 0.46305774410279504 0 0 0
837 1 21.07609200960031 8.517801176618624 0.03325811138544009 0 0 0
840 3 21.076092009549523 10.951458655690123 0.46305774410280054 0 0 0
843 3 27.398919612421683 7.300972437132638 0.463057744102768 0 0 0
841 1 25.291310411515774 8.517801176618573 0.03325811138542535 0 0 0
845 1 29.50652881343052 8.517801176618743 0.03325811138538789 0 0 0
844 3 25.29131041146464 10.951458655690274 0.46305774410277456 0 0 0
848 3 29.506528813379738 10.951458655690201 0.4630577441027725 0 0 0
847 3 31.61413801433718 7.30097243713264 0.4630577441027672 0 0 0
849 1 33.72174721534521 8.517801176618594 0.03325811138541679 0 0 0
852 3 33.72174721529479 10.951458655690248 0.4630577441027867 0 0 0
851 3 35.82935641625222 7.30097243713262 0.4630577441027815 0 0 0
855 3 40.04457481816694 7.300972437132451 0.463057744102782 0 0 0
853 1 37.93696561726033 8.517801176618626 0.03325811138543848 0 0 0
856 3 37.9369656172095 10.951458655690123 0.4630577441028001 0 0 0
859 3 44.259793220082194 7.30097243713264 0.4630577441027674 0 0 0
857 1 42.15218401917546 8.517801176618724 0.03325811138539583 0 0 0
861 1 46.367402421090205 8.51780117661859 0.03325811138541805 0 0 0
860 3 42.1521840191247 10.951458655690224 0.4630577441027629 0 0 0
864 3 46.36740242103979 10.951458655690248 0.4630577441027863 0 0 0
863 3 48.47501162199722 7.300972437132619 0.46305774410278067 0 0 0
771 3 52.69023002391207 7.300972437132528 0.46305774410278355 -1 0 0
769 1 50.58262082300527 8.517801176618613 0.033258111385426226 -1 0 0
772 3 50.582620822954645 10.951458655690185 0.4630577441027927 -1 0 0
775 3 56.90544842582718 7.300972437132631 0.4630577441027737 -1 0 0
773 1 54.79783922492037 8.517801176618661 0.03325811138540793 -1 0 0
777 1 59.01305762683527 8.517801176618613 0.03325811138542619 -1 0 0
776 3 54.79783922486973 10.951458655690232 0.46305774410277434 -1 0 0
780 3 59.013057626784644 10.951458655690185 0.463057744102793 -1 0 0
779 3 61.12066682774205 7.300972437132523 0.463057744102788 -1 0 0
783 3 65.3358852296568 7.300972437132555 0.46305774410277123 -1 0 0
781 1 63.228276028750564 8.517801176618592 0.03325811138543366 -1 0 0
784 3 63.22827602869957 10.951458655690196 0.46305774410279016 -1 0 0
787 3 69.5511036315722 7.300972437132634 0.4630577441027708 -1 0 0
785 1 67.44349443066547 8.517801176618738 0.033258111385388825 -1 0 0
788 3 67.44349443061472 10.95145865569022 0.4630577441027671 -1 0 0
791 3 73.76632203348724 7.30097243713262 0.46305774410278117 -1 0 0
789 1 71.65871283258018 8.517801176618597 0.03325811138541444 -1 0 0
793 1 75.87393123449529 8.517801176618628 0.03325811138543837 -1 0 0
792 3 71.65871283252979 10.951458655690248 0.4630577441027864 -1 0 0
796 3 75.8739312344445 10.951458655690123 0.4630577441027999 -1 0 0
795 3 77.981540435402 7.300972437132457 0.4630577441027789 -1 0 0
799 3 82.1967588373172 7.300972437132632 0.46305774410277134 -1 0 0
797 1 80.08914963641041 8.517801176618716 0.033258111385400004 -1 0 0
800 3 80.08914963635969 10.951458655690224 0.46305774410276346 -1 0 0
803 3 86.41197723923226 7.300972437132619 0.463057744102779 -1 0 0
801 1 84.30436803832518 8.517801176618597 0.03325811138541452 -1 0 0
805 1 88.51958644024018 8.517801176618596 0.033258111385414915 -1 0 0
804 3 84.30436803827479 10.95145865569025 0.463057744102786 -1 0 0
808 3 88.51958644018978 10.951458655690248 0.46305774410278616 -1 0 0
807 3 90.62719564114724 7.300972437132619 0.4630577441027813 -1 0 0
811 3 94.84241404306195 7.300972437132442 0.46305774410278616 -1 0 0
809 1 92.73480484215528 8.517801176618626 0.033258111385439354 -1 0 0
812 3 92.7348048421045 10.951458655690123 0.46305774410280065 -1 0 0
820 3 101.16524164593466 10.951458655690177 0.4630577441027958 -1 0 0
815 3 99.05763244497717 7.300972437132648 0.4630577441027655 -1 0 0
813 1 96.95002324407047 8.517801176618716 0.03325811138539901 -1 0 0
816 3 96.95002324401969 10.951458655690224 0.46305774410276324 -1 0 0
818 1 2.107609200982915 12.168287395176888 0.033258111385388034 0 0 0
913 1 2.524936488001131e-11 15.818773613734614 0.033258111385379575 0 0 0
915 3 2.1076092009321012 14.60194487424818 0.463057744102762 0 0 0
917 1 4.215218401940382 15.818773613734676 0.03325811138537208 0 0 0
822 1 6.3228276028978865 12.168287395176899 0.03325811138538012 0 0 0
826 1 10.538046004812777 12.168287395176808 0.03325811138538876 0 0 0
919 3 6.322827602847078 14.601944874248188 0.46305774410275546 0 0 0
921 1 8.430436803855327 15.818773613734665 0.033258111385358904 0 0 0
923 3 10.538046004762242 14.601944874248273 0.4630577441027494 0 0 0
830 1 14.753264406727851 12.168287395176897 0.03325811138538163 0 0 0
925 1 12.645655205770106 15.8187736137347 0.03325811138536663 0 0 0
927 3 14.75326440667735 14.601944874248177 0.4630577441027619 0 0 0
929 1 16.86087360768518 15.818773613734598 0.03325811138537321 0 0 0
834 1 18.968482808642804 12.168287395176792 0.0332581113853959 0 0 0
838 1 23.183701210558034 12.168287395176991 0.033258111385380526 0 0 0
931 3 18.968482808592235 14.60194487424826 0.46305774410276307 0 0 0
933 1 21.076092009600305 15.818773613734642 0.033258111385392766 0 0 0
935 3 23.1837012105069 14.601944874248064 0.4630577441027761 0 0 0
842 1 27.39891961247282 12.168287395176817 0.03325811138538334 0 0 0
937 1 25.291310411515777 15.81877361373459 0.03325811138537828 0 0 0
939 3 27.398919612421686 14.601944874248275 0.46305774410274814 0 0 0
941 1 29.50652881343052 15.818773613734749 0.03325811138533974 0 0 0
846 1 31.614138014387738 12.16828739517682 0.033258111385382025 0 0 0
943 3 31.61413801433718 14.601944874248277 0.4630577441027478 0 0 0
945 1 33.72174721534522 15.818773613734606 0.033258111385368765 0 0 0
850 1 35.82935641630281 12.168287395176787 0.03325811138539809 0 0 0
854 1 40.044574818218024 12.168287395176993 0.0332581113853757 0 0 0
947 3 35.82935641625222 14.60194487424826 0.4630577441027626 0 0 0
949 1 37.93696561726033 15.818773613734642 0.033258111385391975 0 0 0
951 3 40.04457481816694 14.601944874248092 0.46305774410276324 0 0 0
858 1 44.25979322013273 12.16828739517682 0.033258111385382046 0 0 0
953 1 42.152184019175465 15.818773613734734 0.03325811138534784 0 0 0
955 3 44.259793220082194 14.601944874248275 0.46305774410274825 0 0 0
957 1 46.36740242109021 15.818773613734603 0.033258111385370465 0 0 0
862 1 48.47501162204777 12.168287395176806 0.033258111385392045 0 0 0
770 1 52.69023002396287 12.168287395176902 0.03325811138537927 -1 0 0
959 3 48.47501162199722 14.601944874248256 0.46305774410276007 0 0 0
865 1 50.58262082300526 15.818773613734622 0.03325811138537533 -1 0 0
867 3 52.69023002391212 14.601944874248185 0.4630577441027599 -1 0 0
774 1 56.905448425877765 12.168287395176804 0.033258111385390254 -1 0 0
869 1 54.7978392249203 15.818773613734663 0.03325811138536027 -1 0 0
871 3 56.905448425827224 14.601944874248263 0.46305774410275635 -1 0 0
873 1 59.013057626835234 15.818773613734617 0.03325811138537859 -1 0 0
778 1 61.12066682779291 12.168287395176895 0.03325811138538798 -1 0 0
782 1 65.33588522970793 12.168287395176902 0.033258111385378916 -1 0 0
875 3 61.12066682774208 14.601944874248161 0.4630577441027682 -1 0 0
877 1 63.22827602875055 15.818773613734594 0.03325811138538983 -1 0 0
879 3 65.33588522965677 14.60194487424818 0.4630577441027592 -1 0 0
786 1 69.55110363162272 12.168287395176819 0.03325811138538262 -1 0 0
881 1 67.44349443066552 15.818773613734749 0.03325811138534088 -1 0 0
883 3 69.55110363157218 14.601944874248284 0.46305774410274464 -1 0 0
790 1 73.7663220335378 12.168287395176787 0.03325811138539812 -1 0 0
885 1 71.65871283258018 15.81877361373461 0.03325811138536656 -1 0 0
887 3 73.76632203348724 14.601944874248261 0.4630577441027623 -1 0 0
889 1 75.87393123449529 15.818773613734642 0.03325811138539202 -1 0 0
794 1 77.98154043545301 12.168287395176993 0.033258111385376266 -1 0 0
798 1 82.19675883736772 12.16828739517682 0.033258111385382184 -1 0 0
891 3 77.98154043540195 14.601944874248083 0.4630577441027665 -1 0 0
893 1 80.08914963641047 15.818773613734727 0.03325811138535227 -1 0 0
895 3 82.19675883731718 14.601944874248282 0.4630577441027452 -1 0 0
802 1 86.41197723928272 12.168287395176819 0.03325811138538312 -1 0 0
897 1 84.30436803832518 15.81877361373461 0.03325811138536666 -1 0 0
899 3 86.41197723923226 14.601944874248257 0.4630577441027596 -1 0 0
901 1 88.51958644024018 15.818773613734608 0.03325811138536779 -1 0 0
806 1 90.6271956411978 12.168287395176787 0.03325811138539913 -1 0 0
810 1 94.84241404311301 12.168287395176993 0.033258111385375655 -1 0 0
903 3 90.62719564114724 14.601944874248261 0.46305774410276235 -1 0 0
905 1 92.73480484215528 15.818773613734642 0.03325811138539286 -1 0 0
907 3 94.84241404306195 14.601944874248083 0.46305774410276707 -1 0 0
814 1 99.05763244502775 12.168287395176813 0.03325811138538651 -1 0 0
909 1 96.95002324407047 15.818773613734727 0.03325811138535113 -1 0 0
911 3 99.05763244497717 14.601944874248282 0.4630577441027456 -1 0 0
914 1 2.1076092009829317 19.469259832292146 0.033258111385371936 0 0 0
920 3 4.215218401889586 18.252431092806557 0.4630577441027321 0 0 0
1011 3 2.1076092009320937 21.902917311364856 0.4630577441027932 0 0 0
918 1 6.322827602897898 19.469259832292156 0.03325811138536368 0 0 0
924 3 8.430436803804724 18.252431092806617 0.4630577441027246 0 0 0
922 1 10.538046004812774 19.469259832292074 0.03325811138537202 0 0 0
1015 3 6.322827602847063 21.902917311364867 0.46305774410278594 0 0 0
1019 3 10.538046004762245 21.902917311364952 0.46305774410277717 0 0 0
928 3 12.645655205719669 18.25243109280653 0.46305774410273837 0 0 0
926 1 14.75326440672786 19.469259832292156 0.033258111385364074 0 0 0
932 3 16.860873607634748 18.25243109280664 0.4630577441027294 0 0 0
1023 3 14.753264406677351 21.902917311364853 0.46305774410279327 0 0 0
930 1 18.968482808642808 19.469259832292053 0.03325811138537907 0 0 0
936 3 21.076092009549523 18.252431092806496 0.46305774410275 0 0 0
934 1 23.18370121055804 19.46925983229224 0.03325811138536554 0 0 0
1027 3 18.96848280859224 21.902917311364938 0.4630577441027937 0 0 0
1031 3 23.183701210506896 21.902917311364746 0.46305774410280715 0 0 0
940 3 25.29131041146462 18.252431092806646 0.46305774410272454 0 0 0
938 1 27.39891961247283 19.469259832292085 0.03325811138536505 0 0 0
944 3 29.506528813379738 18.25243109280658 0.46305774410272466 0 0 0
1035 3 27.39891961242169 21.90291731136495 0.4630577441027779 0 0 0
942 1 31.614138014387756 19.469259832292074 0.033258111385369764 0 0 0
948 3 33.72174721529476 18.252431092806624 0.46305774410273687 0 0 0
1039 3 31.614138014337176 21.902917311364952 0.4630577441027774 0 0 0
946 1 35.82935641630282 19.46925983229205 0.033258111385378576 0 0 0
952 3 37.9369656172095 18.2524310928065 0.46305774410274925 0 0 0
950 1 40.044574818218045 19.46925983229224 0.03325811138536412 0 0 0
1043 3 35.82935641625222 21.902917311364938 0.4630577441027932 0 0 0
1047 3 40.04457481816694 21.902917311364767 0.46305774410279404 0 0 0
956 3 42.15218401912466 18.252431092806603 0.4630577441027127 0 0 0
954 1 44.259793220132764 19.46925983229208 0.033258111385366496 0 0 0
960 3 46.36740242103976 18.25243109280662 0.4630577441027366 0 0 0
1051 3 44.25979322008219 21.90291731136495 0.463057744102778 0 0 0
958 1 48.47501162204779 19.469259832292078 0.033258111385372734 0 0 0
868 3 50.582620822954645 18.252431092806567 0.4630577441027445 -1 0 0
866 1 52.69023002396289 19.46925983229215 0.03325811138536634 -1 0 0
1055 3 48.475011621997226 21.902917311364927 0.46305774410279044 0 0 0
963 3 52.69023002391207 21.902917311364853 0.4630577441027943 -1 0 0
872 3 54.79783922486971 18.252431092806614 0.4630577441027257 -1 0 0
870 1 56.90544842587778 19.469259832292078 0.033258111385371394 -1 0 0
876 3 59.013057626784644 18.252431092806567 0.4630577441027446 -1 0 0
967 3 56.90544842582721 21.90291731136494 0.46305774410278294 -1 0 0
874 1 61.12066682779292 19.469259832292146 0.033258111385370985 -1 0 0
880 3 63.22827602869957 18.252431092806574 0.46305774410273953 -1 0 0
878 1 65.33588522970793 19.46925983229216 0.03325811138536396 -1 0 0
971 3 61.12066682774205 21.902917311364845 0.46305774410279943 -1 0 0
975 3 65.33588522965677 21.902917311364856 0.4630577441027895 -1 0 0
884 3 67.4434944306147 18.252431092806596 0.4630577441027173 -1 0 0
882 1 69.55110363162272 19.46925983229208 0.03325811138536673 -1 0 0
979 3 69.55110363157218 21.90291731136496 0.46305774410277406 -1 0 0
888 3 71.65871283252979 18.252431092806624 0.4630577441027366 -1 0 0
886 1 73.7663220335378 19.469259832292042 0.03325811138538221 -1 0 0
892 3 75.8739312344445 18.2524310928065 0.463057744102749 -1 0 0
983 3 73.76632203348724 21.902917311364938 0.4630577441027933 -1 0 0
890 1 77.98154043545303 19.46925983229225 0.0332581113853618 -1 0 0
896 3 80.08914963635968 18.252431092806603 0.46305774410271294 -1 0 0
894 1 82.19675883736772 19.46925983229208 0.03325811138536628 -1 0 0
987 3 77.98154043540195 21.90291731136476 0.4630577441027973 -1 0 0
991 3 82.19675883731718 21.902917311364956 0.46305774410277467 -1 0 0
900 3 84.30436803827479 18.252431092806624 0.46305774410273665 -1 0 0
898 1 86.41197723928272 19.46925983229208 0.03325811138536759 -1 0 0
904 3 88.51958644018978 18.252431092806624 0.4630577441027361 -1 0 0
995 3 86.41197723923226 21.902917311364927 0.4630577441027901 -1 0 0
902 1 90.6271956411978 19.469259832292042 0.033258111385383086 -1 0 0
908 3 92.7348048421045 18.2524310928065 0.4630577441027498 -1 0 0
906 1 94.84241404311302 19.46925983229225 0.03325811138536081 -1 0 0
999 3 90.62719564114724 21.902917311364938 0.4630577441027934 -1 0 0
1003 3 94.84241404306195 21.90291731136476 0.4630577441027976 -1 0 0
916 3 101.16524164593463 18.25243109280657 0.4630577441027429 -1 0 0
912 3 96.95002324401968 18.252431092806603 0.46305774410271283 -1 0 0
910 1 99.05763244502778 19.46925983229206 0.0332581113853774 -1 0 0
1007 3 99.05763244497716 21.902917311364956 0.4630577441027749 -1 0 0
1009 1 2.5251108900989218e-11 23.119746050850395 0.03325811138543526 0 0 0
1013 1 4.215218401940393 23.119746050850452 0.0332581113854276 0 0 0
1016 3 4.215218401889594 25.55340352992233 0.4630577441027873 0 0 0
1010 1 2.1076092009829197 26.77023226940877 0.03325811138539362 0 0 0
1017 1 8.430436803855338 23.11974605085045 0.033258111385413604 0 0 0
1020 3 8.430436803804726 25.553403529922388 0.46305774410277906 0 0 0
1014 1 6.322827602897892 26.770232269408783 0.03325811138538496 0 0 0
1018 1 10.538046004812777 26.770232269408698 0.03325811138539414 0 0 0
1021 1 12.645655205770097 23.119746050850466 0.03325811138542018 0 0 0
1025 1 16.86087360768518 23.11974605085038 0.03325811138542815 0 0 0
1024 3 12.645655205719674 25.55340352992232 0.46305774410279255 0 0 0
1028 3 16.86087360763475 25.55340352992241 0.4630577441027839 0 0 0
1022 1 14.75326440672785 26.77023226940878 0.03325811138538607 0 0 0
1029 1 21.07609200960031 23.119746050850406 0.033258111385446425 0 0 0
1032 3 21.076092009549523 25.55340352992229 0.4630577441028047 0 0 0
1026 1 18.96848280864281 26.770232269408673 0.03325811138540146 0 0 0
1030 1 23.183701210558038 26.77023226940886 0.033258111385387555 0 0 0
1033 1 25.291310411515777 23.119746050850374 0.03325811138543327 0 0 0
1037 1 29.50652881343052 23.119746050850527 0.03325811138539512 0 0 0
1036 3 25.29131041146462 25.553403529922416 0.4630577441027784 0 0 0
1040 3 29.506528813379738 25.55340352992236 0.4630577441027794 0 0 0
1034 1 27.39891961247283 26.770232269408712 0.03325811138538623 0 0 0
1041 1 33.72174721534522 23.119746050850388 0.03325811138542415 0 0 0
1044 3 33.72174721529476 25.553403529922395 0.46305774410279077 0 0 0
1038 1 31.614138014387756 26.7702322694087 0.03325811138539097 0 0 0
1045 1 37.93696561726032 23.11974605085041 0.03325811138544477 0 0 0
1048 3 37.9369656172095 25.55340352992229 0.4630577441028045 0 0 0
1042 1 35.82935641630283 26.770232269408673 0.033258111385400385 0 0 0
1046 1 40.044574818218045 26.770232269408865 0.033258111385385904 0 0 0
1049 1 42.152184019175465 23.119746050850512 0.03325811138540284 0 0 0
1053 1 46.36740242109021 23.119746050850384 0.03325811138542541 0 0 0
1052 3 42.15218401912466 25.55340352992238 0.4630577441027673 0 0 0
1056 3 46.36740242103976 25.553403529922395 0.4630577441027906 0 0 0
1050 1 44.259793220132764 26.77023226940871 0.03325811138538773 0 0 0
961 1 50.58262082300527 23.1197460508504 0.03325811138543377 -1 0 0
964 3 50.582620822954645 25.55340352992234 0.4630577441027984 -1 0 0
1054 1 48.47501162204779 26.770232269408705 0.033258111385393946 0 0 0
962 1 52.69023002396289 26.770232269408776 0.033258111385387895 -1 0 0
965 1 54.797839224920345 23.119746050850452 0.03325811138541223 -1 0 0
969 1 59.013057626835256 23.11974605085039 0.03325811138543732 -1 0 0
968 3 54.797839224869705 25.553403529922388 0.46305774410277994 -1 0 0
972 3 59.013057626784644 25.55340352992234 0.4630577441027984 -1 0 0
966 1 56.905448425877786 26.7702322694087 0.03325811138539235 -1 0 0
973 1 63.228276028750564 23.119746050850384 0.033258111385441685 -1 0 0
976 3 63.22827602869957 25.55340352992235 0.4630577441027941 -1 0 0
970 1 61.12066682779291 26.770232269408773 0.03325811138539196 -1 0 0
974 1 65.33588522970793 26.770232269408787 0.03325811138538489 -1 0 0
977 1 67.44349443066552 23.119746050850523 0.033258111385396735 -1 0 0
980 3 67.4434944306147 25.553403529922374 0.46305774410277173 -1 0 0
978 1 69.55110363162272 26.77023226940871 0.03325811138538796 -1 0 0
981 1 71.65871283258018 23.119746050850395 0.033258111385421577 -1 0 0
985 1 75.87393123449529 23.11974605085041 0.03325811138544478 -1 0 0
984 3 71.65871283252979 25.553403529922395 0.4630577441027905 -1 0 0
988 3 75.8739312344445 25.55340352992229 0.46305774410280426 -1 0 0
982 1 73.7663220335378 26.770232269408666 0.03325811138540404 -1 0 0
989 1 80.08914963641047 23.119746050850505 0.033258111385407296 -1 0 0
992 3 80.08914963635968 25.55340352992238 0.46305774410276784 -1 0 0
986 1 77.98154043545301 26.770232269408872 0.03325811138538325 -1 0 0
990 1 82.19675883736772 26.77023226940871 0.03325811138538749 -1 0 0
993 1 84.30436803832518 23.119746050850395 0.033258111385421674 -1 0 0
997 1 88.51958644024018 23.11974605085039 0.03325811138542244 -1 0 0
996 3 84.30436803827479 25.553403529922395 0.46305774410279044 -1 0 0
1000 3 88.51958644018978 25.553403529922395 0.46305774410279005 -1 0 0
994 1 86.41197723928272 26.77023226940871 0.03325811138538878 -1 0 0
1001 1 92.73480484215528 23.11974605085041 0.033258111385445696 -1 0 0
1004 3 92.7348048421045 25.55340352992229 0.4630577441028051 -1 0 0
998 1 90.6271956411978 26.770232269408666 0.03325811138540516 -1 0 0
1002 1 94.84241404311301 26.770232269408872 0.033258111385382275 -1 0 0
1012 3 101.16524164593463 25.55340352992235 0.4630577441027952 -1 0 0
1005 1 96.95002324407047 23.119746050850505 0.033258111385406415 -1 0 0
1008 3 96.95002324401968 25.553403529922377 0.46305774410276773 -1 0 0
1006 1 99.05763244502778 26.770232269408687 0.03325811138539886 -1 0 0
1107 3 2.107609200932103 29.20388974848022 0.4630577441027719 0 0 0
1105 1 2.5248684287229763e-11 30.420718487966717 0.033258111385400725 0 0 0
1109 1 4.2152184019403816 30.42071848796677 0.033258111385392974 0 0 0
1106 1 2.1076092009829197 34.07120470652475 0.033258111385393606 0 0 0
1112 3 4.215218401889595 32.85437596703824 0.46305774410276457 0 0 0
1111 3 6.322827602847076 29.20388974848023 0.4630577441027654 0 0 0
1115 3 10.538046004762245 29.20388974848031 0.4630577441027581 0 0 0
1113 1 8.430436803855327 30.420718487966766 0.033258111385379936 0 0 0
1110 1 6.322827602897893 34.07120470652477 0.0332581113853852 0 0 0
1116 3 8.430436803804726 32.854375967038294 0.46305774410275563 0 0 0
1114 1 10.538046004812777 34.07120470652468 0.03325811138539427 0 0 0
1119 3 14.753264406677346 29.20388974848022 0.4630577441027718 0 0 0
1117 1 12.645655205770106 30.42071848796678 0.03325811138538579 0 0 0
1121 1 16.86087360768518 30.4207184879667 0.03325811138539422 0 0 0
1120 3 12.645655205719672 32.85437596703823 0.46305774410276973 0 0 0
1118 1 14.75326440672785 34.07120470652477 0.03325811138538607 0 0 0
1124 3 16.860873607634748 32.85437596703831 0.4630577441027619 0 0 0
1123 3 18.96848280859224 29.2038897484803 0.463057744102773 0 0 0
1127 3 23.1837012105069 29.203889748480115 0.46305774410278566 0 0 0
1125 1 21.076092009600305 30.420718487966724 0.03325811138541228 0 0 0
1122 1 18.96848280864281 34.071204706524675 0.03325811138540129 0 0 0
1128 3 21.07609200954952 32.85437596703818 0.46305774410278505 0 0 0
1126 1 23.183701210558038 34.07120470652487 0.033258111385385404 0 0 0
1131 3 27.398919612421683 29.203889748480314 0.463057744102756 0 0 0
1129 1 25.291310411515777 30.420718487966678 0.03325811138539939 0 0 0
1133 1 29.50652881343052 30.42071848796684 0.03325811138536073 0 0 0
1132 3 25.29131041146463 32.85437596703832 0.46305774410275946 0 0 0
1130 1 27.398919612472827 34.0712047065247 0.033258111385386285 0 0 0
1136 3 29.506528813379738 32.854375967038266 0.4630577441027565 0 0 0
1135 3 31.614138014337176 29.20388974848031 0.4630577441027567 0 0 0
1137 1 33.72174721534522 30.42071848796671 0.03325811138539018 0 0 0
1134 1 31.614138014387756 34.07120470652469 0.03325811138539111 0 0 0
1140 3 33.72174721529476 32.854375967038294 0.46305774410276834 0 0 0
1139 3 35.82935641625222 29.2038897484803 0.4630577441027728 0 0 0
1143 3 40.04457481816694 29.203889748480133 0.4630577441027736 0 0 0
1141 1 37.93696561726032 30.420718487966727 0.03325811138541029 0 0 0
1138 1 35.82935641630283 34.071204706524675 0.033258111385400496 0 0 0
1144 3 37.9369656172095 32.85437596703818 0.4630577441027845 0 0 0
1142 1 40.04457481821804 34.07120470652487 0.03325811138538414 0 0 0
1147 3 44.25979322008219 29.20388974848031 0.46305774410275724 0 0 0
1145 1 42.152184019175465 30.42071848796683 0.033258111385368605 0 0 0
1149 1 46.36740242109021 30.420718487966706 0.033258111385391365 0 0 0
1148 3 42.15218401912467 32.85437596703828 0.4630577441027466 0 0 0
1146 1 44.259793220132764 34.071204706524696 0.03325811138538774 0 0 0