LAMMPS data file via write_data, version 29 Aug 2024, timestep = 3, units = metal

4032 atoms
6 atom types

0 101.16524164596 xlo xhi
0 102.213614119624 ylo yhi
-50 50 zlo zhi

Masses

1 114.818
2 114.818
3 114.818
4 30.973761998
5 30.973761998
6 30.973761998

Atoms # atomic

725 1 4.215218401454266 1.2168287398177198 0.03789750013773514 0 0 0
724 4 4.6094265849563544e-10 3.650486218256878 0.4702889903911238 0 0 0
728 4 4.215218402376454 3.650486218257296 0.47028899039124183 0 0 0
722 1 2.107609200496568 4.867314958379526 0.03789750013765063 0 0 0
729 1 8.430436803370274 1.2168287398180022 0.03789750013792748 0 0 0
732 4 8.43043680428944 3.6504862182563764 0.47028899039135463 0 0 0
726 1 6.322827602412039 4.867314958379328 0.03789750013778702 0 0 0
730 1 10.538046004328837 4.867314958380983 0.03789750013772778 0 0 0
733 1 12.645655205288739 1.216828739817568 0.03789750013778969 0 0 0
737 1 16.860873607202752 1.2168287398191608 0.03789750013772042 0 0 0
736 4 12.645655206204854 3.6504862182574374 0.4702889903912156 0 0 0
740 4 16.860873608118798 3.6504862182559488 0.47028899039121963 0 0 0
734 1 14.753264406243204 4.867314958379345 0.03789750013773067 0 0 0
741 1 21.076092009115186 1.2168287398184698 0.03789750013738729 0 0 0
744 4 21.07609201003752 3.650486218257945 0.4702889903909537 0 0 0
738 1 18.96848280815828 4.867314958381217 0.037897500137547564 0 0 0
742 1 23.183701210069625 4.867314958377927 0.037897500137644105 0 0 0
745 1 25.29131041102304 1.2168287398194122 0.037897500137661314 0 0 0
749 1 29.506528812942094 1.2168287398167017 0.037897500138134865 0 0 0
748 4 25.291310411951574 3.6504862182556685 0.4702889903913086 0 0 0
752 4 29.50652881386449 3.6504862182570177 0.4702889903914576 0 0 0
746 1 27.398919611987516 4.867314958380744 0.03789750013784221 0 0 0
753 1 33.72174721486199 1.2168287398189845 0.0378975001377789 0 0 0
756 4 33.721747215778564 3.650486218256113 0.4702889903911731 0 0 0
750 1 31.61413801390418 4.867314958380857 0.037897500137789676 0 0 0
757 1 37.936965616775126 1.2168287398183621 0.037897500137458975 0 0 0
760 4 37.93696561769742 3.650486218257872 0.4702889903909851 0 0 0
754 1 35.829356415818225 4.86731495838123 0.037897500137543075 0 0 0
758 1 40.04457481773025 4.867314958377966 0.0378975001377346 0 0 0
761 1 42.15218401868803 1.216828739817216 0.03789750013798572 0 0 0
765 1 46.36740242060691 1.2168287398188984 0.037897500137800674 0 0 0
764 4 42.15218401961032 3.6504862182566873 0.47028899039151645 0 0 0
768 4 46.36740242152341 3.6504862182560855 0.47028899039121885 0 0 0
762 1 44.25979321964903 4.86731495838073 0.03789750013783744 0 0 0
673 1 50.58262082252115 1.2168287398186761 0.03789750013760469 -1 0 0
676 4 50.582620823440195 3.650486218256963 0.470288990391101 -1 0 0
766 1 48.47501162156406 4.867314958380982 0.03789750013763002 0 0 0
674 1 52.6902300234775 4.867314958379424 0.037897500137700005 -1 0 0
677 1 54.797839224434846 1.2168287398181226 0.03789750013786514 -1 0 0
681 1 59.01305762635092 1.216828739818658 0.037897500137608384 -1 0 0
680 4 54.79783922535443 3.650486218256403 0.47028899039133304 -1 0 0
684 4 59.013057627270385 3.6504862182570257 0.4702889903910774 -1 0 0
678 1 56.90544842539368 4.867314958380949 0.03789750013770651 -1 0 0
685 1 63.22827602826165 1.2168287398188176 0.03789750013758988 -1 0 0
688 4 63.228276029186894 3.6504862182567024 0.4702889903911688 -1 0 0
682 1 61.120666827306515 4.867314958379688 0.037897500137581676 -1 0 0
686 1 65.33588522922173 4.86731495837917 0.037897500137804914 -1 0 0
689 1 67.44349443017715 1.2168287398169293 0.03789750013803701 -1 0 0
692 4 67.44349443109962 3.6504862182570057 0.4702889903914427 -1 0 0
690 1 69.5511036311391 4.867314958380875 0.037897500137808696 -1 0 0
693 1 71.65871283209682 1.2168287398189126 0.03789750013779993 -1 0 0
697 1 75.87393123401002 1.216828739818388 0.037897500137447755 -1 0 0
696 4 71.65871283301362 3.650486218256142 0.4702889903911759 -1 0 0
700 4 75.87393123493284 3.6504862182578575 0.47028899039099553 -1 0 0
694 1 73.76632203305294 4.867314958381363 0.03789750013751123 -1 0 0
701 1 80.0891496359226 1.2168287398172373 0.03789750013797651 -1 0 0
704 4 80.08914963684538 3.6504862182566717 0.4702889903915181 -1 0 0
698 1 77.98154043496497 4.867314958377791 0.037897500137749916 -1 0 0
702 1 82.19675883688396 4.867314958380803 0.03789750013783876 -1 0 0
705 1 84.30436803784175 1.2168287398189115 0.037897500137816634 -1 0 0
709 1 88.51958643975703 1.2168287398190374 0.037897500137746544 -1 0 0
708 4 84.3043680387584 3.6504862182560034 0.4702889903912354 -1 0 0
712 4 88.51958644067355 3.6504862182561504 0.47028899039116245 -1 0 0
706 1 86.41197723879961 4.867314958380853 0.037897500137712876 -1 0 0
713 1 92.73480484167001 1.2168287398183832 0.03789750013744214 -1 0 0
716 4 92.73480484259284 3.6504862182578597 0.47028899039098526 -1 0 0
710 1 90.62719564071294 4.867314958381361 0.037897500137507416 -1 0 0
714 1 94.84241404262498 4.867314958377798 0.037897500137751096 -1 0 0
721 1 101.1652416455009 1.216828739818521 0.03789750013770063 -1 0 0
717 1 96.95002324358258 1.2168287398172177 0.03789750013797771 -1 0 0
720 4 96.95002324450562 3.6504862182567894 0.470288990391469 -1 0 0
718 1 99.05763244454286 4.86731495838113 0.03789750013773898 -1 0 0
819 4 2.1076092014182723 7.300972436813632 0.4702889903906841 0 0 0
821 1 4.215218401454066 8.517801176934405 0.037897500137147544 0 0 0
820 4 4.602316183279534e-10 10.951458655376344 0.4702889903905441 0 0 0
824 4 4.215218402376261 10.951458655376607 0.47028899039072664 0 0 0
823 4 6.322827603333711 7.300972436813319 0.4702889903908297 0 0 0
827 4 10.538046005245839 7.300972436811666 0.4702889903908879 0 0 0
825 1 8.430436803370156 8.517801176934555 0.037897500137358334 0 0 0
828 4 8.430436804289178 10.951458655375768 0.4702889903908416 0 0 0
831 4 14.753264407159028 7.300972436813535 0.4702889903907578 0 0 0
829 1 12.6456552052888 8.517801176934187 0.03789750013722581 0 0 0
833 1 16.86087360720284 8.51780117693591 0.03789750013713938 0 0 0
832 4 12.645655206204589 10.951458655376747 0.47028899039069577 0 0 0
836 4 16.860873608118712 10.951458655375204 0.47028899039069244 0 0 0
835 4 18.96848280907606 7.300972436812258 0.47028899039061145 0 0 0
839 4 23.183701210996624 7.30097243681555 0.47028899039051647 0 0 0
837 1 21.076092009115158 8.517801176935114 0.03789750013681617 0 0 0
840 4 21.076092010037552 10.951458655377255 0.4702889903904306 0 0 0
843 4 27.398919612914465 7.300972436811584 0.47028899039094735 0 0 0
841 1 25.29131041102303 8.51780117693609 0.03789750013710582 0 0 0
845 1 29.506528812942165 8.517801176933414 0.037897500137557404 0 0 0
844 4 25.29131041195143 10.951458655374882 0.4702889903908016 0 0 0
848 4 29.50652881386408 10.951458655376303 0.47028899039093086 0 0 0
847 4 31.614138014822085 7.300972436811511 0.47028899039097216 0 0 0
849 1 33.721747214862084 8.517801176935711 0.03789750013721147 0 0 0
852 4 33.72174721577809 10.951458655375337 0.47028899039064864 0 0 0
851 4 35.82935641673641 7.300972436812211 0.47028899039062555 0 0 0
855 4 40.04457481865519 7.300972436814939 0.47028899039073746 0 0 0
853 1 37.93696561677509 8.517801176935013 0.03789750013688928 0 0 0
856 4 37.93696561769737 10.951458655377198 0.4702889903904502 0 0 0
859 4 44.259793220567175 7.300972436811633 0.4702889903909373 0 0 0
857 1 42.152184018688025 8.517801176933858 0.03789750013741389 0 0 0
861 1 46.36740242060699 8.517801176935627 0.03789750013723523 0 0 0
860 4 42.15218401961021 10.951458655375994 0.4702889903910022 0 0 0
864 4 46.36740242152301 10.95145865537532 0.4702889903906923 0 0 0
863 4 48.475011622481055 7.300972436812152 0.4702889903907091 0 0 0
771 4 52.6902300243982 7.300972436813578 0.47028899039072775 -1 0 0
769 1 50.58262082252111 8.517801176935409 0.03789750013702433 -1 0 0
772 4 50.582620823440145 10.951458655376237 0.47028899039056804 -1 0 0
775 4 56.90544842631194 7.300972436811867 0.47028899039079797 -1 0 0
773 1 54.797839224434775 8.517801176934714 0.03789750013728886 -1 0 0
777 1 59.0130576263509 8.517801176935388 0.03789750013703289 -1 0 0
776 4 54.79783922535444 10.951458655375777 0.47028899039081773 -1 0 0
780 4 59.01305762727031 10.951458655376246 0.47028899039056776 -1 0 0
779 4 61.12066682822904 7.30097243681379 0.4702889903905892 -1 0 0
783 4 65.33588523014741 7.300972436813452 0.47028899039081434 -1 0 0
781 1 63.22827602826167 8.517801176935533 0.037897500137002764 -1 0 0
784 4 63.22827602918642 10.951458655376024 0.4702889903906409 -1 0 0
787 4 69.55110363205762 7.300972436811445 0.4702889903909692 -1 0 0
785 1 67.44349443017715 8.517801176933743 0.03789750013745506 -1 0 0
788 4 67.44349443109903 10.951458655376058 0.4702889903909758 -1 0 0
791 4 73.76632203397143 7.30097243681214 0.4702889903906393 -1 0 0
789 1 71.65871283209682 8.5178011769356 0.037897500137246014 -1 0 0
793 1 75.87393123401007 8.517801176934963 0.03789750013686692 -1 0 0
792 4 71.6587128330126 10.951458655375403 0.47028899039063987 -1 0 0
796 4 75.87393123493239 10.951458655377388 0.47028899039042416 -1 0 0
795 4 77.98154043589044 7.300972436815119 0.4702889903907219 -1 0 0
799 4 82.19675883780252 7.300972436811524 0.47028899039094296 -1 0 0
797 1 80.08914963592261 8.517801176933954 0.03789750013741978 -1 0 0
800 4 80.08914963684477 10.95145865537575 0.4702889903910471 -1 0 0
803 4 86.41197723971587 7.30097243681203 0.4702889903907739 -1 0 0
801 1 84.30436803784184 8.517801176935617 0.037897500137249025 -1 0 0
805 1 88.51958643975709 8.517801176935741 0.03789750013718045 -1 0 0
804 4 84.30436803875732 10.951458655375253 0.47028899039071187 -1 0 0
808 4 88.51958644067257 10.951458655375392 0.4702889903906384 -1 0 0
807 4 90.62719564163145 7.300972436812148 0.47028899039063476 -1 0 0
811 4 94.84241404355043 7.300972436815111 0.47028899039071764 -1 0 0
809 1 92.73480484167007 8.517801176934963 0.037897500136860926 -1 0 0
812 4 92.73480484259238 10.951458655377388 0.4702889903904134 -1 0 0
817 1 101.16524164550088 8.517801176935214 0.037897500137109054 -1 0 0
815 4 99.05763244546281 7.30097243681153 0.4702889903908789 -1 0 0
813 1 96.9500232435826 8.517801176933938 0.03789750013741797 -1 0 0
816 4 96.95002324450495 10.95145865537585 0.47028899039100874 -1 0 0
818 1 2.1076092004968703 12.168287395489102 0.037897500137532236 0 0 0
915 4 2.1076092014181316 14.601944873935032 0.47028899039107713 0 0 0
917 1 4.215218401454237 15.818773614050901 0.03789750013794711 0 0 0
822 1 6.322827602412309 12.168287395488806 0.03789750013769623 0 0 0
826 1 10.538046004329102 12.168287395490468 0.037897500137629866 0 0 0
919 4 6.32282760333348 14.601944873934734 0.47028899039122335 0 0 0
921 1 8.430436803370293 15.818773614051212 0.03789750013815564 0 0 0
923 4 10.5380460052458 14.601944873933132 0.47028899039126915 0 0 0
830 1 14.753264406243368 12.168287395488928 0.037897500137618625 0 0 0
925 1 12.645655205288737 15.81877361405062 0.037897500138005316 0 0 0
927 4 14.753264407159119 14.60194487393497 0.4702889903911338 0 0 0
929 1 16.86087360720278 15.81877361405232 0.037897500137945885 0 0 0
834 1 18.968482808158313 12.168287395490756 0.037897500137439116 0 0 0
838 1 23.183701210069625 12.16828739548735 0.037897500137544365 0 0 0
931 4 18.968482809076054 14.601944873933709 0.47028899039099453 0 0 0
933 1 21.076092009115193 15.81877361405156 0.03789750013762301 0 0 0
935 4 23.183701210996606 14.601944873937098 0.47028899039089794 0 0 0
842 1 27.398919611987846 12.168287395490168 0.03789750013775466 0 0 0
937 1 25.291310411023012 15.818773614052493 0.037897500137904876 0 0 0
939 4 27.398919612914465 14.601944873933103 0.4702889903913277 0 0 0
941 1 29.506528812942115 15.818773614049796 0.03789750013835304 0 0 0
846 1 31.6141380139046 12.168287395490319 0.037897500137688354 0 0 0
943 4 31.614138014822107 14.601944873933032 0.47028899039135175 0 0 0
945 1 33.72174721486199 15.818773614052116 0.03789750013800801 0 0 0
850 1 35.82935641581854 12.16828739549088 0.03789750013741205 0 0 0
854 1 40.04457481773028 12.168287395487406 0.037897500137639206 0 0 0
947 4 35.829356416736424 14.601944873933626 0.47028899039100475 0 0 0
949 1 37.93696561677509 15.818773614051468 0.03789750013769188 0 0 0
951 4 40.044574818655185 14.60194487393643 0.4702889903911264 0 0 0
858 1 44.25979321964929 12.168287395490115 0.037897500137753996 0 0 0
953 1 42.15218401868802 15.818773614050407 0.037897500138225584 0 0 0
955 4 44.259793220567204 14.601944873933155 0.4702889903913224 0 0 0
957 1 46.36740242060692 15.818773614052036 0.03789750013803466 0 0 0
862 1 48.4750116215643 12.168287395490552 0.03789750013749245 0 0 0
770 1 52.69023002347752 12.168287395488937 0.03789750013760289 -1 0 0
959 4 48.475011622481084 14.601944873933661 0.47028899039109306 0 0 0
865 1 50.58262082252112 15.818773614051725 0.03789750013781956 -1 0 0
867 4 52.690230024398076 14.601944873934995 0.4702889903911187 -1 0 0
774 1 56.905448425393665 12.168287395490431 0.03789750013760627 -1 0 0
869 1 54.797839224434874 15.818773614051338 0.03789750013809248 -1 0 0
871 4 56.905448426311935 14.601944873933352 0.4702889903911789 -1 0 0
873 1 59.0130576263509 15.818773614051725 0.037897500137818736 -1 0 0
778 1 61.120666827306856 12.168287395489077 0.03789750013751349 -1 0 0
782 1 65.33588522922209 12.168287395488719 0.037897500137685974 -1 0 0
875 4 61.12066682822903 14.601944873935295 0.4702889903909688 -1 0 0
877 1 63.22827602826165 15.818773614051887 0.037897500137796 -1 0 0
879 4 65.3358852301474 14.601944873934954 0.47028899039118915 -1 0 0
786 1 69.55110363114008 12.168287395490342 0.037897500137719316 -1 0 0
881 1 67.44349443017718 15.818773614050018 0.03789750013825349 -1 0 0
883 4 69.55110363205743 14.601944873932942 0.47028899039134736 -1 0 0
790 1 73.76632203305384 12.168287395490921 0.037897500137390544 -1 0 0
885 1 71.65871283209682 15.818773614052047 0.037897500138029006 -1 0 0
887 4 73.76632203397139 14.6019448739336 0.4702889903910199 -1 0 0
889 1 75.87393123401004 15.818773614051485 0.037897500137680444 -1 0 0
794 1 77.98154043496521 12.168287395487214 0.037897500137660765 -1 0 0
798 1 82.19675883688497 12.168287395490257 0.03789750013775216 -1 0 0
891 4 77.98154043589042 14.601944873936612 0.4702889903911107 -1 0 0
893 1 80.08914963592264 15.818773614050395 0.03789750013823277 -1 0 0
895 4 82.19675883780236 14.601944873933007 0.47028899039132577 -1 0 0
802 1 86.41197723880063 12.168287395490353 0.03789750013758862 -1 0 0
897 1 84.3043680378419 15.818773614052017 0.03789750013804666 -1 0 0
899 4 86.4119772397157 14.601944873933562 0.47028899039115785 -1 0 0
901 1 88.51958643975709 15.81877361405217 0.0378975001379662 -1 0 0
806 1 90.62719564071382 12.168287395490918 0.037897500137387165 -1 0 0
810 1 94.84241404262522 12.168287395487216 0.037897500137662396 -1 0 0
903 4 90.62719564163139 14.601944873933613 0.47028899039101435 -1 0 0
905 1 92.73480484167004 15.818773614051484 0.03789750013767475 -1 0 0
907 4 94.84241404355042 14.601944873936606 0.47028899039110644 -1 0 0
913 1 101.16524164550093 15.81877361405162 0.037897500137894495 -1 0 0
814 1 99.05763244454388 12.168287395490607 0.0378975001376326 -1 0 0
909 1 96.95002324358263 15.818773614050391 0.03789750013823396 -1 0 0
911 4 99.05763244546264 14.60194487393303 0.47028899039126393 -1 0 0
916 4 4.6085694639223683e-10 18.252431092486034 0.47028899039139055 0 0 0
914 1 2.1076092004965195 19.46925983261673 0.03789750013780281 0 0 0
920 4 4.215218402376533 18.252431092486322 0.4702889903915194 0 0 0
1011 4 2.107609201418292 21.90291731104017 0.4702889903906016 0 0 0
918 1 6.322827602411964 19.469259832616494 0.03789750013794009 0 0 0
924 4 8.430436804289485 18.252431092485345 0.47028899039162875 0 0 0
922 1 10.538046004328871 19.469259832617983 0.03789750013786782 0 0 0
1015 4 6.322827603333701 21.90291731103989 0.4702889903907455 0 0 0
1019 4 10.538046005245949 21.902917311038436 0.47028899039080907 0 0 0
928 4 12.645655206204804 18.252431092486557 0.4702889903914981 0 0 0
926 1 14.753264406243177 19.469259832616558 0.037897500137876856 0 0 0
932 4 16.86087360811879 18.2524310924849 0.4702889903915136 0 0 0
1023 4 14.753264407158998 21.90291731104015 0.4702889903906543 0 0 0
930 1 18.968482808158296 19.469259832618487 0.03789750013769003 0 0 0
936 4 21.07609201003754 18.25243109248693 0.4702889903912417 0 0 0
934 1 23.1837012100696 19.469259832615155 0.03789750013779102 0 0 0
1027 4 18.968482809076086 21.902917311038816 0.4702889903905104 0 0 0
1031 4 23.183701210996613 21.902917311042128 0.4702889903904203 0 0 0
940 4 25.29131041195162 18.252431092484688 0.4702889903915902 0 0 0
938 1 27.39891961198754 19.46925983261772 0.03789750013798224 0 0 0
944 4 29.506528813864495 18.252431092486155 0.4702889903917201 0 0 0
1035 4 27.398919612914515 21.90291731103843 0.47028899039085026 0 0 0
942 1 31.61413801390413 19.46925983261781 0.03789750013792227 0 0 0
948 4 33.721747215778535 18.25243109248512 0.470288990391454 0 0 0
1039 4 31.614138014822117 21.902917311038387 0.47028899039088123 0 0 0
946 1 35.829356415818225 19.469259832618484 0.03789750013769162 0 0 0
952 4 37.93696561769743 18.252431092486848 0.47028899039127414 0 0 0
950 1 40.044574817730236 19.469259832615155 0.037897500137871444 0 0 0
1043 4 35.82935641673641 21.902917311038756 0.4702889903905354 0 0 0
1047 4 40.04457481865525 21.902917311041644 0.47028899039062355 0 0 0
956 4 42.15218401961034 18.252431092485622 0.47028899039178945 0 0 0
954 1 44.25979321964904 19.469259832617766 0.03789750013796769 0 0 0
960 4 46.367402421523416 18.252431092485114 0.4702889903914874 0 0 0
1051 4 44.25979322056718 21.90291731103847 0.4702889903908347 0 0 0
958 1 48.4750116215641 19.469259832617972 0.03789750013777644 0 0 0
868 4 50.5826208234401 18.25243109248608 0.4702889903913853 -1 0 0
866 1 52.69023002347751 19.46925983261667 0.03789750013785083 -1 0 0
1055 4 48.47501162248108 21.902917311038905 0.47028899039063754 0 0 0
963 4 52.69023002439809 21.90291731104007 0.4702889903906448 -1 0 0
872 4 54.79783922535444 18.252431092485356 0.47028899039161065 -1 0 0
870 1 56.9054484253938 19.46925983261792 0.03789750013785084 -1 0 0
876 4 59.013057627270285 18.2524310924862 0.47028899039134386 -1 0 0
967 4 56.90544842631192 21.90291731103865 0.470288990390719 -1 0 0
874 1 61.12066682730654 19.469259832616665 0.03789750013771937 -1 0 0
880 4 63.22827602918689 18.252431092485867 0.4702889903914458 -1 0 0
878 1 65.33588522922173 19.469259832616224 0.03789750013795714 -1 0 0
971 4 61.12066682822904 21.902917311040575 0.470288990390509 -1 0 0
975 4 65.33588523014744 21.90291731104017 0.47028899039072025 -1 0 0
884 4 67.44349443109964 18.252431092486148 0.4702889903917163 -1 0 0
882 1 69.55110363113909 19.469259832617816 0.03789750013794163 -1 0 0
979 4 69.55110363205749 21.902917311038312 0.4702889903908818 -1 0 0
888 4 71.65871283301358 18.252431092485157 0.47028899039145133 -1 0 0
886 1 73.76632203305294 19.46925983261861 0.037897500137660606 -1 0 0
892 4 75.87393123493291 18.252431092486862 0.47028899039127225 -1 0 0
983 4 73.76632203397145 21.902917311038713 0.4702889903905369 -1 0 0
890 1 77.98154043496486 19.469259832615 0.03789750013788844 -1 0 0
896 4 80.08914963684546 18.252431092485583 0.4702889903918049 -1 0 0
894 1 82.19675883688399 19.469259832617816 0.03789750013796832 -1 0 0
987 4 77.98154043589048 21.90291731104178 0.470288990390615 -1 0 0
991 4 82.19675883780239 21.902917311038358 0.47028899039084915 -1 0 0
900 4 84.30436803875838 18.252431092485057 0.4702889903915082 -1 0 0
898 1 86.4119772387996 19.4692598326179 0.037897500137850246 -1 0 0
904 4 88.5195864406735 18.252431092485164 0.47028899039144545 -1 0 0
995 4 86.41197723971587 21.902917311038784 0.47028899039068756 -1 0 0
902 1 90.62719564071294 19.46925983261861 0.03789750013765624 -1 0 0
908 4 92.73480484259291 18.252431092486862 0.47028899039126215 -1 0 0
906 1 94.84241404262485 19.46925983261501 0.03789750013788927 -1 0 0
999 4 90.62719564163146 21.902917311038713 0.4702889903905351 -1 0 0
1003 4 94.84241404355048 21.902917311041772 0.4702889903906098 -1 0 0
912 4 96.95002324450564 18.252431092485665 0.4702889903917661 -1 0 0
910 1 99.057632444543 19.46925983261811 0.03789750013787052 -1 0 0
1007 4 99.05763244546277 21.902917311038365 0.4702889903907941 -1 0 0
1013 1 4.21521840145408 23.119746051170452 0.037897500136969096 0 0 0
1012 4 4.607645045605946e-10 25.55340352960503 0.47028899039049543 0 0 0
1016 4 4.215218402376272 25.553403529605628 0.47028899039060645 0 0 0
1010 1 2.1076092004968223 26.770232269722936 0.037897500137414775 0 0 0
1017 1 8.43043680337013 23.119746051170708 0.03789750013719463 0 0 0
1020 4 8.430436804289382 25.553403529604655 0.47028899039071714 0 0 0
1014 1 6.3228276024121675 26.770232269722722 0.03789750013754766 0 0 0
1018 1 10.538046004328992 26.77023226972428 0.03789750013751028 0 0 0
1021 1 12.645655205288751 23.119746051169976 0.037897500137052176 0 0 0
1025 1 16.860873607202826 23.119746051171898 0.03789750013696043 0 0 0
1024 4 12.645655206204646 25.553403529605934 0.47028899039060545 0 0 0
1028 4 16.860873608118762 25.553403529604264 0.4702889903905819 0 0 0
1022 1 14.753264406243312 26.770232269722737 0.03789750013748983 0 0 0
1029 1 21.07609200911514 23.11974605117109 0.03789750013664217 0 0 0
1032 4 21.076092010037563 25.553403529606303 0.47028899039032424 0 0 0
1026 1 18.96848280815827 26.770232269724602 0.037897500137315326 0 0 0
1030 1 23.183701210069607 26.77023226972126 0.03789750013742048 0 0 0
1033 1 25.291310411023062 23.119746051171994 0.03789750013692938 0 0 0
1037 1 29.506528812942097 23.11974605116916 0.037897500137393444 0 0 0
1036 4 25.291310411951578 25.553403529604033 0.47028899039067773 0 0 0
1040 4 29.506528813864506 25.5534035296055 0.47028899039083405 0 0 0
1034 1 27.398919611987523 26.770232269724026 0.03789750013761285 0 0 0
1041 1 33.72174721486196 23.11974605117162 0.03789750013704248 0 0 0
1044 4 33.72174721577857 25.553403529604427 0.4702889903905462 0 0 0
1038 1 31.614138013904128 26.77023226972417 0.037897500137559756 0 0 0
1045 1 37.93696561677513 23.11974605117097 0.03789750013670873 0 0 0
1048 4 37.93696561769743 25.553403529606257 0.47028899039035493 0 0 0
1042 1 35.829356415818246 26.770232269724605 0.03789750013731604 0 0 0
1046 1 40.04457481773027 26.770232269721213 0.037897500137510934 0 0 0
1049 1 42.152184018688 23.119746051169557 0.037897500137241205 0 0 0
1053 1 46.3674024206069 23.11974605117153 0.03789750013707192 0 0 0
1052 4 42.152184019610345 25.553403529605298 0.47028899039089517 0 0 0
1056 4 46.36740242152342 25.55340352960437 0.47028899039059496 0 0 0
1050 1 44.259793219648934 26.770232269724005 0.0378975001376108 0 0 0
961 1 50.58262082252111 23.119746051171468 0.03789750013686818 -1 0 0
964 4 50.582620823440124 25.55340352960513 0.47028899039046873 -1 0 0
1054 1 48.475011621564065 26.770232269724406 0.03789750013740138 0 0 0
962 1 52.69023002347755 26.77023226972287 0.037897500137452314 -1 0 0
965 1 54.7978392244349 23.119746051170868 0.03789750013712304 -1 0 0
969 1 59.01305762635091 23.11974605117137 0.03789750013687686 -1 0 0
968 4 54.79783922535444 25.553403529604637 0.4702889903907034 -1 0 0
972 4 59.013057627270236 25.553403529605202 0.4702889903904654 -1 0 0
966 1 56.9054484253937 26.770232269724332 0.03789750013747171 -1 0 0
973 1 63.22827602826165 23.119746051171557 0.037897500136850955 -1 0 0
976 4 63.228276029186425 25.553403529604914 0.47028899039054683 -1 0 0
970 1 61.12066682730684 26.77023226972303 0.037897500137356536 -1 0 0
974 1 65.33588522922213 26.770232269722573 0.037897500137540896 -1 0 0
977 1 67.44349443017721 23.119746051169393 0.03789750013727974 -1 0 0
980 4 67.44349443109952 25.55340352960558 0.4702889903908044 -1 0 0
978 1 69.55110363113907 26.770232269724154 0.037897500137575514 -1 0 0
981 1 71.65871283209678 23.119746051171553 0.037897500137064444 -1 0 0
985 1 75.87393123401006 23.11974605117098 0.03789750013670324 -1 0 0
984 4 71.65871283301362 25.55340352960446 0.4702889903905439 -1 0 0
988 4 75.87393123493287 25.55340352960625 0.47028899039036376 -1 0 0
982 1 73.76632203305296 26.770232269724733 0.03789750013728508 -1 0 0
989 1 80.08914963592265 23.119746051169606 0.03789750013724444 -1 0 0
992 4 80.08914963684542 25.553403529605255 0.47028899039088545 -1 0 0
986 1 77.981540434965 26.77023226972102 0.03789750013752412 -1 0 0
990 1 82.19675883688383 26.77023226972407 0.03789750013760804 -1 0 0
993 1 84.30436803784181 23.11974605117155 0.03789750013707462 -1 0 0
997 1 88.519586439757 23.119746051171695 0.03789750013700725 -1 0 0
996 4 84.30436803875844 25.553403529604292 0.4702889903906174 -1 0 0
1000 4 88.51958644067354 25.553403529604456 0.4702889903905325 -1 0 0
994 1 86.41197723879961 26.770232269724243 0.03789750013748314 -1 0 0
1001 1 92.73480484167004 23.11974605117098 0.03789750013669688 -1 0 0
1004 4 92.73480484259287 25.55340352960625 0.47028899039035327 -1 0 0
998 1 90.62719564071296 26.770232269724733 0.03789750013728061 -1 0 0
1002 1 94.84241404262501 26.77023226972102 0.03789750013752567 -1 0 0
1009 1 101.1652416455008 23.11974605117134 0.037897500136955316 -1 0 0
1005 1 96.95002324358258 23.11974605116961 0.03789750013722897 -1 0 0
1008 4 96.95002324450562 25.55340352960536 0.470288990390851 -1 0 0
1006 1 99.05763244454288 26.770232269724406 0.037897500137519254 -1 0 0
1107 4 2.1076092014181156 29.203889748166457 0.47028899039086136 0 0 0
1109 1 4.21521840145427 30.42071848828048 0.03789750013754222 0 0 0
1108 4 4.607780147153325e-10 32.854375966723836 0.4702889903908519 0 0 0
1112 4 4.215218402376265 32.85437596672422 0.4702889903909719 0 0 0
1111 4 6.322827603333479 29.20388974816615 0.4702889903910016 0 0 0
1115 4 10.538046005245784 29.20388974816453 0.4702889903910633 0 0 0
1113 1 8.43043680337029 30.42071848828071 0.03789750013773524 0 0 0
1116 4 8.430436804289398 32.8543759667234 0.4702889903910698 0 0 0
1119 4 14.753264407159191 29.20388974816639 0.47028899039092403 0 0 0
1117 1 12.64565520528874 30.42071848828036 0.0378975001376025 0 0 0
1121 1 16.86087360720273 30.42071848828179 0.03789750013752174 0 0 0
1120 4 12.64565520620463 32.854375966724334 0.470288990390938 0 0 0
1124 4 16.860873608118776 32.854375966723076 0.4702889903909323 0 0 0
1123 4 18.96848280907606 29.20388974816509 0.4702889903907847 0 0 0
1127 4 23.183701210996635 29.203889748168404 0.47028899039069005 0 0 0
1125 1 21.076092009115154 30.42071848828123 0.03789750013720666 0 0 0
1128 4 21.076092010037485 32.854375966724824 0.470288990390682 0 0 0
1131 4 27.398919612914504 29.203889748164542 0.4702889903911059 0 0 0
1129 1 25.291310411023044 30.420718488282002 0.03789750013747848 0 0 0
1133 1 29.50652881294209 30.420718488279327 0.03789750013794564 0 0 0
1132 4 25.291310411951656 32.85437596672274 0.4702889903910333 0 0 0
1136 4 29.5065288138645 32.854375966724106 0.4702889903911752 0 0 0
1135 4 31.61413801482213 29.20388974816444 0.47028899039113425 0 0 0
1137 1 33.72174721486201 30.420718488281594 0.03789750013758517 0 0 0
1140 4 33.721747215778564 32.85437596672325 0.470288990390889 0 0 0
1139 4 35.82935641673633 29.203889748165015 0.4702889903908092 0 0 0
1143 4 40.044574818655256 29.20388974816787 0.47028899039090716 0 0 0
1141 1 37.936965616775154 30.420718488281175 0.037897500137270466 0 0 0
1144 4 37.93696561769737 32.85437596672474 0.47028899039070565 0 0 0
1147 4 44.259793220567204 29.20388974816458 0.47028899039109867 0 0 0
1145 1 42.15218401868799 30.42071848827975 0.03789750013780103 0 0 0
1149 1 46.36740242060689 30.42071848828154 0.03789750013760358 0 0 0
1148 4 42.15218401961038 32.854375966723794 0.47028899039125094 0 0 0
1152 4 46.3674024215234 32.85437596672322 0.4702889903909288 0 0 0
1151 4 48.47501162248108 29.20388974816496 0.4702889903908815 0 0 0
1059 4 52.69023002439813 29.20388974816641 0.47028899039089445 -1 0 0
1057 1 50.58262082252115 30.42071848828141 0.03789750013740969 -1 0 0
1060 4 50.5826208234401 32.85437596672396 0.47028899039081834 -1 0 0
1063 4 56.90544842631194 29.203889748164727 0.4702889903909677 -1 0 0
1061 1 54.79783922443481 30.420718488280812 0.03789750013767351 -1 0 0
1065 1 59.01305762635091 30.42071848828139 0.03789750013741686 -1 0 0
1064 4 54.79783922535447 32.854375966723424 0.47028899039105604 -1 0 0
1068 4 59.013057627270214 32.854375966723985 0.4702889903908107 -1 0 0
1067 4 61.120666828229 29.203889748166667 0.4702889903907611 -1 0 0
1071 4 65.33588523014737 29.203889748166393 0.47028899039096705 -1 0 0
1069 1 63.22827602826174 30.420718488281498 0.037897500137392515 -1 0 0
1072 4 63.228276029186354 32.8543759667237 0.4702889903909059 -1 0 0
1075 4 69.55110363205749 29.203889748164396 0.47028899039113464 -1 0 0
1073 1 67.44349443017718 30.420718488279515 0.037897500137839095 -1 0 0
1076 4 67.44349443109948 32.85437596672414 0.4702889903911594 -1 0 0
1079 4 73.76632203397142 29.203889748164972 0.4702889903908107 -1 0 0
1077 1 71.65871283209681 30.420718488281533 0.03789750013760296 -1 0 0
1081 1 75.87393123401004 30.420718488281164 0.03789750013727424 -1 0 0
1080 4 71.65871283301357 32.8543759667233 0.4702889903908779 -1 0 0
1084 4 75.87393123493281 32.85437596672474 0.4702889903907121 -1 0 0
1083 4 77.98154043589048 29.20388974816806 0.47028899039089955 -1 0 0
1087 4 82.1967588378024 29.203889748164475 0.4702889903911109 -1 0 0
1085 1 80.08914963592264 30.42071848827974 0.03789750013780115 -1 0 0
1088 4 80.0891496368454 32.85437596672378 0.470288990391253 -1 0 0
1091 4 86.41197723971588 29.203889748164876 0.47028899039094013 -1 0 0
1089 1 84.30436803784181 30.42071848828158 0.037897500137611624 -1 0 0
1093 1 88.51958643975703 30.420718488281654 0.03789750013754384 -1 0 0
1092 4 84.30436803875838 32.85437596672309 0.4702889903909528 -1 0 0
1096 4 88.51958644067355 32.85437596672329 0.47028899039088157 -1 0 0
1095 4 90.62719564163143 29.20388974816498 0.47028899039080746 -1 0 0
1099 4 94.84241404355048 29.203889748168056 0.4702889903908956 -1 0 0
1097 1 92.73480484167004 30.420718488281164 0.037897500137267934 -1 0 0
1100 4 92.7348048425928 32.85437596672474 0.4702889903907016 -1 0 0