LAMMPS data file via write_data, version 29 Aug 2024, timestep = 1, units = metal

7168 atoms
8 atom types

0 99.68 xlo xhi
0 98.657613999136 ylo yhi
-50 114.10239718126202 zlo zhi

Masses

1 10.81
2 10.81
3 10.81
4 10.81
5 127.6
6 127.6
7 127.6
8 127.6

Atoms # atomic

1911 5 0 1.0276834791573612 0.00040979707092521594 0 0 0
1919 5 3.559999999999995 1.0276834791573606 0.0004097970709259392 0 0 0
1912 5 1.7799999999999956 4.11073391663036 0.00040979707092521605 0 0 0
1920 5 5.339999999999996 4.110733916630359 0.00040979707092587595 0 0 0
1927 5 7.119999999999997 1.0276834791573606 0.00040979707092587606 0 0 0
1935 5 10.679999999999998 1.0276834791573612 0.0004097970709252162 0 0 0
1928 5 8.899999999999999 4.110733916630359 0.00040979707092593905 0 0 0
1943 5 14.239999999999995 1.0276834791573606 0.00040979707092593894 0 0 0
1936 5 12.459999999999996 4.11073391663036 0.00040979707092521605 0 0 0
1944 5 16.019999999999996 4.110733916630359 0.0004097970709258756 0 0 0
1951 5 17.799999999999997 1.0276834791573606 0.00040979707092587573 0 0 0
1959 5 21.36 1.0276834791573606 0.0004097970709258759 0 0 0
1952 5 19.58 4.110733916630359 0.00040979707092587573 0 0 0
1960 5 23.14 4.110733916630359 0.00040979707092587573 0 0 0
1967 5 24.92 1.0276834791573604 0.00040979707092600226 0 0 0
1975 5 28.479999999999993 1.0276834791573617 0.0004097970709245794 0 0 0
1968 5 26.7 4.11073391663036 0.0004097970709245792 0 0 0
1983 5 32.03999999999999 1.0276834791573606 0.0004097970709258759 0 0 0
1976 5 30.25999999999999 4.110733916630359 0.0004097970709260021 0 0 0
1984 5 33.81999999999999 4.110733916630359 0.00040979707092587573 0 0 0
1991 5 35.599999999999994 1.0276834791573606 0.0004097970709258759 0 0 0
1999 5 39.16 1.0276834791573606 0.0004097970709258759 0 0 0
1992 5 37.379999999999995 4.110733916630359 0.0004097970709258758 0 0 0
2000 5 40.94 4.110733916630359 0.0004097970709258756 0 0 0
2007 5 42.72 1.0276834791573606 0.00040979707092587573 0 0 0
2015 5 46.28 1.0276834791573606 0.0004097970709258758 0 0 0
2008 5 44.5 4.110733916630359 0.0004097970709258756 0 0 0
1799 5 49.84 1.0276834791573606 0.00040979707092587595 -1 0 0
2016 5 48.06 4.110733916630359 0.0004097970709258759 0 0 0
1800 5 51.620000000000005 4.110733916630359 0.00040979707092587595 -1 0 0
1807 5 53.400000000000006 1.0276834791573606 0.0004097970709259393 -1 0 0
1815 5 56.96 1.0276834791573612 0.0004097970709252162 -1 0 0
1808 5 55.18000000000001 4.11073391663036 0.0004097970709252162 -1 0 0
1823 5 60.52 1.0276834791573606 0.0004097970709258126 -1 0 0
1831 5 64.08000000000001 1.027683479157361 0.00040979707092523194 -1 0 0
1816 5 58.74 4.110733916630359 0.00040979707092593894 -1 0 0
1824 5 62.300000000000004 4.110733916630358 0.0004097970709266545 -1 0 0
1839 5 67.64 1.0276834791573604 0.0004097970709260021 -1 0 0
1832 5 65.86 4.11073391663036 0.000409797070924516 -1 0 0
1840 5 69.42 4.110733916630359 0.0004097970709258756 -1 0 0
1847 5 71.2 1.0276834791573606 0.00040979707092587573 -1 0 0
1855 5 74.76 1.0276834791573606 0.0004097970709258758 -1 0 0
1848 5 72.98 4.110733916630359 0.0004097970709258756 -1 0 0
1863 5 78.32000000000001 1.0276834791573604 0.00040979707092600237 -1 0 0
1871 5 81.88 1.0276834791573617 0.00040979707092457957 -1 0 0
1856 5 76.54 4.110733916630359 0.0004097970709258759 -1 0 0
1864 5 80.10000000000001 4.11073391663036 0.00040979707092457957 -1 0 0
1879 5 85.44 1.0276834791573606 0.00040979707092587573 -1 0 0
1872 5 83.66 4.110733916630359 0.00040979707092600237 -1 0 0
1880 5 87.22 4.110733916630359 0.0004097970709258755 -1 0 0
1887 5 89 1.0276834791573606 0.00040979707092587573 -1 0 0
1895 5 92.56 1.0276834791573606 0.0004097970709258759 -1 0 0
1888 5 90.78 4.110733916630359 0.00040979707092587573 -1 0 0
1903 5 96.12 1.0276834791573606 0.0004097970709258758 -1 0 0
1896 5 94.34 4.110733916630359 0.00040979707092587573 -1 0 0
1904 5 97.9 4.110733916630359 0.00040979707092593867 -1 0 0
2135 5 0 7.193784354103358 0.00040979707092504887 0 0 0
2143 5 3.559999999999995 7.193784354103357 0.00040979707092577214 0 0 0
2136 5 1.7799999999999956 10.276834791576361 0.0004097970709260655 0 0 0
2144 5 5.339999999999996 10.276834791576361 0.00040979707092670065 0 0 0
2151 5 7.119999999999997 7.193784354103357 0.0004097970709257091 0 0 0
2159 5 10.679999999999998 7.193784354103358 0.00040979707092504914 0 0 0
2152 5 8.899999999999999 10.276834791576361 0.0004097970709267691 0 0 0
2167 5 14.239999999999995 7.193784354103357 0.00040979707092577176 0 0 0
2160 5 12.459999999999996 10.276834791576361 0.0004097970709260654 0 0 0
2168 5 16.019999999999996 10.276834791576361 0.0004097970709267002 0 0 0
2175 5 17.799999999999997 7.193784354103357 0.0004097970709257086 0 0 0
2183 5 21.36 7.193784354103357 0.0004097970709257086 0 0 0
2176 5 19.58 10.276834791576361 0.0004097970709267003 0 0 0
2184 5 23.14 10.276834791576361 0.0004097970709267004 0 0 0
2191 5 24.92 7.193784354103357 0.0004097970709258352 0 0 0
2199 5 28.479999999999993 7.193784354103358 0.00040979707092441233 0 0 0
2192 5 26.7 10.276834791576363 0.00040979707092542476 0 0 0
2207 5 32.03999999999999 7.193784354103357 0.0004097970709257087 0 0 0
2200 5 30.25999999999999 10.276834791576361 0.00040979707092683325 0 0 0
2208 5 33.81999999999999 10.276834791576361 0.0004097970709267004 0 0 0
2215 5 35.599999999999994 7.193784354103357 0.0004097970709257088 0 0 0
2223 5 39.16 7.193784354103357 0.0004097970709257088 0 0 0
2216 5 37.379999999999995 10.276834791576361 0.0004097970709267005 0 0 0
2224 5 40.94 10.276834791576361 0.0004097970709267004 0 0 0
2231 5 42.72 7.193784354103357 0.0004097970709257086 0 0 0
2239 5 46.28 7.193784354103357 0.0004097970709257087 0 0 0
2232 5 44.5 10.276834791576361 0.0004097970709267002 0 0 0
2023 5 49.84 7.193784354103357 0.0004097970709257089 -1 0 0
2240 5 48.06 10.276834791576361 0.0004097970709267005 0 0 0
2024 5 51.620000000000005 10.276834791576361 0.00040979707092670065 -1 0 0
2031 5 53.400000000000006 7.193784354103357 0.0004097970709257722 -1 0 0
2039 5 56.96 7.193784354103358 0.00040979707092504914 -1 0 0
2032 5 55.18000000000001 10.276834791576361 0.0004097970709260656 -1 0 0
2047 5 60.52 7.193784354103357 0.0004097970709256455 -1 0 0
2055 5 64.08000000000001 7.193784354103358 0.00040979707092506643 -1 0 0
2040 5 58.74 10.276834791576361 0.0004097970709267691 -1 0 0
2048 5 62.300000000000004 10.276834791576361 0.0004097970709275601 -1 0 0
2063 5 67.64 7.193784354103357 0.000409797070925835 -1 0 0
2056 5 65.86 10.276834791576363 0.0004097970709253625 -1 0 0
2064 5 69.42 10.276834791576361 0.0004097970709267002 -1 0 0
2071 5 71.2 7.193784354103357 0.0004097970709257086 -1 0 0
2079 5 74.76 7.193784354103357 0.0004097970709257087 -1 0 0
2072 5 72.98 10.276834791576361 0.0004097970709267002 -1 0 0
2087 5 78.32000000000001 7.193784354103357 0.0004097970709258353 -1 0 0
2095 5 81.88 7.193784354103358 0.0004097970709244125 -1 0 0
2080 5 76.54 10.276834791576361 0.0004097970709267004 -1 0 0
2088 5 80.10000000000001 10.276834791576363 0.00040979707092542503 -1 0 0
2103 5 85.44 7.193784354103357 0.00040979707092570855 -1 0 0
2096 5 83.66 10.276834791576361 0.0004097970709268334 -1 0 0
2104 5 87.22 10.276834791576361 0.0004097970709267002 -1 0 0
2111 5 89 7.193784354103357 0.0004097970709257086 -1 0 0
2119 5 92.56 7.193784354103357 0.0004097970709257087 -1 0 0
2112 5 90.78 10.276834791576361 0.0004097970709267003 -1 0 0
2127 5 96.12 7.193784354103357 0.0004097970709257086 -1 0 0
2120 5 94.34 10.276834791576361 0.0004097970709267004 -1 0 0
2128 5 97.9 10.276834791576361 0.00040979707092676895 -1 0 0
2359 5 0 13.359885229049361 0.00040979707092504876 0 0 0
2367 5 3.559999999999995 13.359885229049361 0.00040979707092577203 0 0 0
2360 5 1.7799999999999956 16.442935666522366 0.00040979707092622707 0 0 0
2368 5 5.339999999999996 16.442935666522363 0.00040979707092686225 0 0 0
2375 5 7.119999999999997 13.359885229049361 0.0004097970709257089 0 0 0
2383 5 10.679999999999998 13.359885229049361 0.00040979707092504903 0 0 0
2376 5 8.899999999999999 16.442935666522363 0.0004097970709269308 0 0 0
2391 5 14.239999999999995 13.359885229049361 0.00040979707092577176 0 0 0
2384 5 12.459999999999996 16.442935666522366 0.00040979707092622685 0 0 0
2392 5 16.019999999999996 16.442935666522363 0.0004097970709268618 0 0 0
2399 5 17.799999999999997 13.359885229049361 0.00040979707092570855 0 0 0
2407 5 21.36 13.359885229049361 0.0004097970709257086 0 0 0
2400 5 19.58 16.442935666522363 0.0004097970709268618 0 0 0
2408 5 23.14 16.442935666522363 0.0004097970709268621 0 0 0
2415 5 24.92 13.359885229049361 0.000409797070925835 0 0 0
2423 5 28.479999999999993 13.359885229049363 0.0004097970709244122 0 0 0
2416 5 26.7 16.442935666522366 0.0004097970709255865 0 0 0
2431 5 32.03999999999999 13.359885229049361 0.0004097970709257087 0 0 0
2424 5 30.25999999999999 16.442935666522363 0.00040979707092699485 0 0 0
2432 5 33.81999999999999 16.442935666522363 0.00040979707092686187 0 0 0
2439 5 35.599999999999994 13.359885229049361 0.0004097970709257087 0 0 0
2447 5 39.16 13.359885229049361 0.0004097970709257087 0 0 0
2440 5 37.379999999999995 16.442935666522363 0.0004097970709268621 0 0 0
2448 5 40.94 16.442935666522363 0.00040979707092686187 0 0 0
2455 5 42.72 13.359885229049361 0.00040979707092570855 0 0 0
2463 5 46.28 13.359885229049361 0.0004097970709257086 0 0 0
2456 5 44.5 16.442935666522363 0.0004097970709268617 0 0 0
2247 5 49.84 13.359885229049361 0.0004097970709257088 -1 0 0
2464 5 48.06 16.442935666522363 0.00040979707092686187 0 0 0
2248 5 51.620000000000005 16.442935666522363 0.00040979707092686214 -1 0 0
2255 5 53.400000000000006 13.359885229049361 0.00040979707092577214 -1 0 0
2263 5 56.96 13.359885229049361 0.00040979707092504903 -1 0 0
2256 5 55.18000000000001 16.442935666522366 0.0004097970709262272 -1 0 0
2271 5 60.52 13.359885229049361 0.0004097970709256455 -1 0 0
2279 5 64.08000000000001 13.359885229049361 0.00040979707092506643 -1 0 0
2264 5 58.74 16.442935666522363 0.0004097970709269307 -1 0 0
2272 5 62.300000000000004 16.442935666522363 0.0004097970709277236 -1 0 0
2287 5 67.64 13.359885229049361 0.0004097970709258349 -1 0 0
2280 5 65.86 16.442935666522366 0.0004097970709255239 -1 0 0
2288 5 69.42 16.442935666522363 0.0004097970709268618 -1 0 0
2295 5 71.2 13.359885229049361 0.00040979707092570855 -1 0 0
2303 5 74.76 13.359885229049361 0.0004097970709257086 -1 0 0
2296 5 72.98 16.442935666522363 0.0004097970709268617 -1 0 0
2311 5 78.32000000000001 13.359885229049361 0.0004097970709258352 -1 0 0
2319 5 81.88 13.359885229049363 0.0004097970709244124 -1 0 0
2304 5 76.54 16.442935666522363 0.00040979707092686187 -1 0 0
2312 5 80.10000000000001 16.442935666522366 0.0004097970709255867 -1 0 0
2327 5 85.44 13.359885229049361 0.00040979707092570855 -1 0 0
2320 5 83.66 16.442935666522363 0.0004097970709269949 -1 0 0
2328 5 87.22 16.442935666522363 0.0004097970709268617 -1 0 0
2335 5 89 13.359885229049361 0.00040979707092570855 -1 0 0
2343 5 92.56 13.359885229049361 0.0004097970709257087 -1 0 0
2336 5 90.78 16.442935666522363 0.00040979707092686187 -1 0 0
2351 5 96.12 13.359885229049361 0.0004097970709257086 -1 0 0
2344 5 94.34 16.442935666522363 0.0004097970709268618 -1 0 0
2352 5 97.9 16.442935666522363 0.00040979707092693055 -1 0 0
2583 5 0 19.52598610399536 0.0004097970709241917 0 0 0
2591 5 3.559999999999995 19.525986103995358 0.0004097970709249193 0 0 0
2584 5 1.7799999999999956 22.609036541468363 0.0004097970709262273 0 0 0
2592 5 5.339999999999996 22.60903654146836 0.0004097970709268623 0 0 0
2599 5 7.119999999999997 19.52598610399536 0.0004097970709248535 0 0 0
2607 5 10.679999999999998 19.52598610399536 0.00040979707092419186 0 0 0
2600 5 8.899999999999999 22.60903654146836 0.0004097970709269309 0 0 0
2615 5 14.239999999999995 19.525986103995358 0.0004097970709249191 0 0 0
2608 5 12.459999999999996 22.609036541468363 0.000409797070926227 0 0 0
2616 5 16.019999999999996 22.60903654146836 0.00040979707092686187 0 0 0
2623 5 17.799999999999997 19.52598610399536 0.0004097970709248531 0 0 0
2631 5 21.36 19.52598610399536 0.0004097970709248531 0 0 0
2624 5 19.58 22.60903654146836 0.00040979707092686187 0 0 0
2632 5 23.14 22.60903654146836 0.00040979707092686214 0 0 0
2639 5 24.92 19.525986103995358 0.0004097970709249824 0 0 0
2647 5 28.479999999999993 19.52598610399536 0.0004097970709235518 0 0 0
2640 5 26.7 22.609036541468363 0.0004097970709255865 0 0 0
2655 5 32.03999999999999 19.52598610399536 0.0004097970709248532 0 0 0
2648 5 30.25999999999999 22.60903654146836 0.0004097970709269949 0 0 0
2656 5 33.81999999999999 22.60903654146836 0.000409797070926862 0 0 0
2663 5 35.599999999999994 19.52598610399536 0.0004097970709248533 0 0 0
2671 5 39.16 19.52598610399536 0.0004097970709248532 0 0 0
2664 5 37.379999999999995 22.60903654146836 0.0004097970709268621 0 0 0
2672 5 40.94 22.60903654146836 0.00040979707092686187 0 0 0
2679 5 42.72 19.52598610399536 0.0004097970709248531 0 0 0
2687 5 46.28 19.52598610399536 0.000409797070924853 0 0 0
2680 5 44.5 22.60903654146836 0.00040979707092686187 0 0 0
2471 5 49.84 19.52598610399536 0.0004097970709248533 -1 0 0
2688 5 48.06 22.60903654146836 0.0004097970709268621 0 0 0
2472 5 51.620000000000005 22.60903654146836 0.00040979707092686225 -1 0 0
2479 5 53.400000000000006 19.525986103995358 0.0004097970709249194 -1 0 0
2487 5 56.96 19.52598610399536 0.00040979707092419186 -1 0 0
2480 5 55.18000000000001 22.609036541468363 0.00040979707092622734 -1 0 0
2495 5 60.52 19.52598610399536 0.0004097970709247918 -1 0 0
2503 5 64.08000000000001 19.52598610399536 0.000409797070924265 -1 0 0
2488 5 58.74 22.60903654146836 0.0004097970709269307 -1 0 0
2496 5 62.300000000000004 22.60903654146836 0.0004097970709277236 -1 0 0
2511 5 67.64 19.525986103995358 0.0004097970709249822 -1 0 0
2504 5 65.86 22.609036541468363 0.0004097970709255241 -1 0 0
2512 5 69.42 22.60903654146836 0.00040979707092686187 -1 0 0
2519 5 71.2 19.52598610399536 0.0004097970709248531 -1 0 0
2527 5 74.76 19.52598610399536 0.000409797070924853 -1 0 0
2520 5 72.98 22.60903654146836 0.00040979707092686187 -1 0 0
2535 5 78.32000000000001 19.525986103995358 0.0004097970709249824 -1 0 0
2543 5 81.88 19.52598610399536 0.0004097970709235522 -1 0 0
2528 5 76.54 22.60903654146836 0.00040979707092686214 -1 0 0
2536 5 80.10000000000001 22.609036541468363 0.0004097970709255867 -1 0 0
2551 5 85.44 19.52598610399536 0.0004097970709248531 -1 0 0
2544 5 83.66 22.60903654146836 0.000409797070926995 -1 0 0
2552 5 87.22 22.60903654146836 0.0004097970709268617 -1 0 0
2559 5 89 19.52598610399536 0.0004097970709248531 -1 0 0
2567 5 92.56 19.52598610399536 0.0004097970709248533 -1 0 0
2560 5 90.78 22.60903654146836 0.000409797070926862 -1 0 0
2575 5 96.12 19.52598610399536 0.0004097970709248531 -1 0 0
2568 5 94.34 22.60903654146836 0.00040979707092686187 -1 0 0
2576 5 97.9 22.60903654146836 0.0004097970709269306 -1 0 0
2807 5 0 25.692086978941358 0.0004097970709241917 0 0 0
2815 5 3.559999999999995 25.692086978941354 0.00040979707092491925 0 0 0
2808 5 1.7799999999999956 28.77513741641436 0.0004097970709258985 0 0 0
2816 5 5.339999999999996 28.77513741641436 0.0004097970709265337 0 0 0
2823 5 7.119999999999997 25.692086978941358 0.0004097970709248534 0 0 0
2831 5 10.679999999999998 25.692086978941358 0.00040979707092419175 0 0 0
2824 5 8.899999999999999 28.77513741641436 0.0004097970709266022 0 0 0
2839 5 14.239999999999995 25.692086978941354 0.0004097970709249188 0 0 0
2832 5 12.459999999999996 28.77513741641436 0.00040979707092589845 0 0 0
2840 5 16.019999999999996 28.77513741641436 0.0004097970709265334 0 0 0
2847 5 17.799999999999997 25.692086978941358 0.00040979707092485295 0 0 0
2855 5 21.36 25.692086978941358 0.00040979707092485284 0 0 0
2848 5 19.58 28.77513741641436 0.0004097970709265333 0 0 0
2856 5 23.14 28.77513741641436 0.00040979707092653347 0 0 0
2863 5 24.92 25.692086978941354 0.0004097970709249823 0 0 0
2871 5 28.479999999999993 25.692086978941358 0.00040979707092355164 0 0 0
2864 5 26.7 28.77513741641436 0.00040979707092525796 0 0 0
2879 5 32.03999999999999 25.692086978941358 0.000409797070924853 0 0 0
2872 5 30.25999999999999 28.775137416414356 0.0004097970709266662 0 0 0
2880 5 33.81999999999999 28.77513741641436 0.0004097970709265334 0 0 0
2887 5 35.599999999999994 25.692086978941358 0.0004097970709248531 0 0 0
2895 5 39.16 25.692086978941358 0.0004097970709248531 0 0 0
2888 5 37.379999999999995 28.77513741641436 0.00040979707092653347 0 0 0
2896 5 40.94 28.77513741641436 0.00040979707092653347 0 0 0
2903 5 42.72 25.692086978941358 0.00040979707092485284 0 0 0
2911 5 46.28 25.692086978941358 0.00040979707092485295 0 0 0
2904 5 44.5 28.77513741641436 0.0004097970709265333 0 0 0
2695 5 49.84 25.692086978941358 0.0004097970709248532 -1 0 0
2912 5 48.06 28.77513741641436 0.0004097970709265334 0 0 0
2696 5 51.620000000000005 28.77513741641436 0.00040979707092653374 -1 0 0
2703 5 53.400000000000006 25.692086978941354 0.0004097970709249193 -1 0 0
2711 5 56.96 25.692086978941358 0.00040979707092419175 -1 0 0
2704 5 55.18000000000001 28.77513741641436 0.0004097970709258986 -1 0 0
2719 5 60.52 25.692086978941358 0.00040979707092479164 -1 0 0
2727 5 64.08000000000001 25.692086978941358 0.00040979707092426477 -1 0 0
2712 5 58.74 28.77513741641436 0.00040979707092660215 -1 0 0
2720 5 62.300000000000004 28.775137416414356 0.000409797070927395 -1 0 0
2735 5 67.64 25.692086978941354 0.00040979707092498197 -1 0 0
2728 5 65.86 28.77513741641436 0.0004097970709251955 -1 0 0
2736 5 69.42 28.77513741641436 0.0004097970709265334 -1 0 0
2743 5 71.2 25.692086978941358 0.00040979707092485284 -1 0 0
2751 5 74.76 25.692086978941358 0.00040979707092485295 -1 0 0
2744 5 72.98 28.77513741641436 0.0004097970709265333 -1 0 0
2759 5 78.32000000000001 25.692086978941354 0.0004097970709249824 -1 0 0
2767 5 81.88 25.692086978941358 0.0004097970709235519 -1 0 0
2752 5 76.54 28.77513741641436 0.00040979707092653347 -1 0 0
2760 5 80.10000000000001 28.77513741641436 0.0004097970709252581 -1 0 0
2775 5 85.44 25.692086978941358 0.00040979707092485295 -1 0 0
2768 5 83.66 28.775137416414356 0.00040979707092666644 -1 0 0
2776 5 87.22 28.77513741641436 0.00040979707092653325 -1 0 0
2783 5 89 25.692086978941358 0.00040979707092485284 -1 0 0
2791 5 92.56 25.692086978941358 0.0004097970709248531 -1 0 0
2784 5 90.78 28.77513741641436 0.0004097970709265334 -1 0 0
2799 5 96.12 25.692086978941358 0.00040979707092485284 -1 0 0
2792 5 94.34 28.77513741641436 0.0004097970709265334 -1 0 0
2800 5 97.9 28.77513741641436 0.000409797070926602 -1 0 0
3031 5 0 31.858187853887365 0.0004097970709262269 0 0 0
3039 5 3.559999999999995 31.85818785388736 0.0004097970709269307 0 0 0
3047 5 7.119999999999997 31.85818785388736 0.00040979707092686214 0 0 0
3055 5 10.679999999999998 31.858187853887365 0.000409797070926227 0 0 0
3063 5 14.239999999999995 31.85818785388736 0.00040979707092693045 0 0 0
3071 5 17.799999999999997 31.85818785388736 0.0004097970709268617 0 0 0
3079 5 21.36 31.85818785388736 0.00040979707092686187 0 0 0
3087 5 24.92 31.85818785388736 0.00040979707092699485 0 0 0
3095 5 28.479999999999993 31.858187853887365 0.0004097970709255864 0 0 0
3103 5 32.03999999999999 31.85818785388736 0.00040979707092686187 0 0 0
3111 5 35.599999999999994 31.85818785388736 0.00040979707092686187 0 0 0
3119 5 39.16 31.85818785388736 0.0004097970709268618 0 0 0
3127 5 42.72 31.85818785388736 0.0004097970709268617 0 0 0
3135 5 46.28 31.85818785388736 0.0004097970709268618 0 0 0
2919 5 49.84 31.85818785388736 0.000409797070926862 -1 0 0
2927 5 53.400000000000006 31.85818785388736 0.0004097970709269309 -1 0 0
2935 5 56.96 31.858187853887365 0.00040979707092622707 -1 0 0
2943 5 60.52 31.85818785388736 0.00040979707092679964 -1 0 0
2951 5 64.08000000000001 31.858187853887365 0.0004097970709263152 -1 0 0
2959 5 67.64 31.85818785388736 0.0004097970709269946 -1 0 0
2967 5 71.2 31.85818785388736 0.0004097970709268617 -1 0 0
2975 5 74.76 31.85818785388736 0.0004097970709268618 -1 0 0
2983 5 78.32000000000001 31.85818785388736 0.00040979707092699485 -1 0 0
2991 5 81.88 31.858187853887365 0.00040979707092558663 -1 0 0
2999 5 85.44 31.85818785388736 0.0004097970709268616 -1 0 0
3007 5 89 31.85818785388736 0.0004097970709268617 -1 0 0
3015 5 92.56 31.85818785388736 0.000409797070926862 -1 0 0
3023 5 96.12 31.85818785388736 0.0004097970709268618 -1 0 0
3032 5 1.7799999999999956 34.94123829136036 0.0004097970709241917 0 0 0
3040 5 5.339999999999996 34.94123829136036 0.0004097970709248533 0 0 0
3255 5 0 38.02428872883336 0.00040979707092589834 0 0 0
3263 5 3.559999999999995 38.02428872883336 0.0004097970709266022 0 0 0
3048 5 8.899999999999999 34.94123829136036 0.00040979707092491914 0 0 0
3271 5 7.119999999999997 38.02428872883336 0.0004097970709265336 0 0 0
3279 5 10.679999999999998 38.02428872883336 0.0004097970709258985 0 0 0
3056 5 12.459999999999996 34.94123829136036 0.00040979707092419153 0 0 0
3064 5 16.019999999999996 34.94123829136036 0.00040979707092485295 0 0 0
3287 5 14.239999999999995 38.02428872883336 0.000409797070926602 0 0 0
3072 5 19.58 34.94123829136036 0.00040979707092485284 0 0 0
3080 5 23.14 34.94123829136036 0.000409797070924853 0 0 0
3295 5 17.799999999999997 38.02428872883336 0.0004097970709265333 0 0 0
3303 5 21.36 38.02428872883336 0.0004097970709265333 0 0 0
3088 5 26.7 34.94123829136036 0.00040979707092355153 0 0 0
3311 5 24.92 38.02428872883336 0.0004097970709266662 0 0 0
3319 5 28.479999999999993 38.02428872883336 0.000409797070925258 0 0 0
3096 5 30.25999999999999 34.94123829136036 0.00040979707092498213 0 0 0
3104 5 33.81999999999999 34.94123829136036 0.000409797070924853 0 0 0
3327 5 32.03999999999999 38.02428872883336 0.0004097970709265334 0 0 0
3112 5 37.379999999999995 34.94123829136036 0.0004097970709248531 0 0 0
3120 5 40.94 34.94123829136036 0.00040979707092485284 0 0 0
3335 5 35.599999999999994 38.02428872883336 0.00040979707092653347 0 0 0
3343 5 39.16 38.02428872883336 0.00040979707092653347 0 0 0
3128 5 44.5 34.94123829136036 0.00040979707092485284 0 0 0
3351 5 42.72 38.02428872883336 0.00040979707092653325 0 0 0
3359 5 46.28 38.02428872883336 0.0004097970709265333 0 0 0
3136 5 48.06 34.94123829136036 0.00040979707092485295 0 0 0
2920 5 51.620000000000005 34.94123829136036 0.0004097970709248532 -1 0 0
3143 5 49.84 38.02428872883336 0.0004097970709265336 -1 0 0
2928 5 55.18000000000001 34.94123829136036 0.00040979707092419186 -1 0 0
3151 5 53.400000000000006 38.02428872883336 0.0004097970709266024 -1 0 0
3159 5 56.96 38.02428872883336 0.0004097970709258985 -1 0 0
2936 5 58.74 34.94123829136036 0.00040979707092491887 -1 0 0
2944 5 62.300000000000004 34.94123829136036 0.00040979707092569624 -1 0 0
3167 5 60.52 38.02428872883336 0.00040979707092647096 -1 0 0
3175 5 64.08000000000001 38.02428872883336 0.00040979707092598665 -1 0 0
2952 5 65.86 34.94123829136036 0.0004097970709234892 -1 0 0
2960 5 69.42 34.94123829136036 0.00040979707092485284 -1 0 0
3183 5 67.64 38.02428872883336 0.00040979707092666606 -1 0 0
2968 5 72.98 34.94123829136036 0.00040979707092485284 -1 0 0
3191 5 71.2 38.02428872883336 0.00040979707092653325 -1 0 0
3199 5 74.76 38.02428872883336 0.0004097970709265333 -1 0 0
2976 5 76.54 34.94123829136036 0.00040979707092485295 -1 0 0
2984 5 80.10000000000001 34.94123829136036 0.0004097970709235519 -1 0 0
3207 5 78.32000000000001 38.02428872883336 0.00040979707092666644 -1 0 0
3215 5 81.88 38.02428872883336 0.0004097970709252581 -1 0 0
2992 5 83.66 34.94123829136036 0.0004097970709249823 -1 0 0
3000 5 87.22 34.94123829136036 0.0004097970709248528 -1 0 0
3223 5 85.44 38.02428872883336 0.00040979707092653325 -1 0 0
3008 5 90.78 34.94123829136036 0.00040979707092485295 -1 0 0
3231 5 89 38.02428872883336 0.00040979707092653325 -1 0 0
3239 5 92.56 38.02428872883336 0.0004097970709265334 -1 0 0
3016 5 94.34 34.94123829136036 0.00040979707092485295 -1 0 0
3024 5 97.9 34.94123829136036 0.000409797070924919 -1 0 0
3247 5 96.12 38.02428872883336 0.0004097970709265333 -1 0 0
3256 5 1.7799999999999956 41.10733916630637 0.000409797070926227 0 0 0
3264 5 5.339999999999996 41.10733916630637 0.00040979707092686214 0 0 0
3479 5 0 44.19038960377936 0.0004097970709241917 0 0 0
3487 5 3.559999999999995 44.19038960377936 0.00040979707092491925 0 0 0
3272 5 8.899999999999999 41.10733916630637 0.0004097970709269308 0 0 0
3495 5 7.119999999999997 44.19038960377936 0.0004097970709248533 0 0 0
3503 5 10.679999999999998 44.19038960377936 0.00040979707092419175 0 0 0
3280 5 12.459999999999996 41.10733916630637 0.0004097970709262269 0 0 0
3288 5 16.019999999999996 41.10733916630637 0.00040979707092686187 0 0 0
3511 5 14.239999999999995 44.19038960377936 0.000409797070924919 0 0 0
3296 5 19.58 41.10733916630637 0.0004097970709268617 0 0 0
3304 5 23.14 41.10733916630637 0.000409797070926862 0 0 0
3519 5 17.799999999999997 44.19038960377936 0.0004097970709248531 0 0 0
3527 5 21.36 44.19038960377936 0.00040979707092485295 0 0 0
3312 5 26.7 41.10733916630637 0.0004097970709255865 0 0 0
3535 5 24.92 44.19038960377936 0.0004097970709249823 0 0 0
3543 5 28.479999999999993 44.19038960377936 0.0004097970709235518 0 0 0
3320 5 30.25999999999999 41.10733916630637 0.00040979707092699474 0 0 0
3328 5 33.81999999999999 41.10733916630637 0.00040979707092686187 0 0 0
3551 5 32.03999999999999 44.19038960377936 0.0004097970709248531 0 0 0
3336 5 37.379999999999995 41.10733916630637 0.000409797070926862 0 0 0
3344 5 40.94 41.10733916630637 0.0004097970709268618 0 0 0
3559 5 35.599999999999994 44.19038960377936 0.0004097970709248533 0 0 0
3567 5 39.16 44.19038960377936 0.0004097970709248532 0 0 0
3352 5 44.5 41.10733916630637 0.0004097970709268618 0 0 0
3575 5 42.72 44.19038960377936 0.000409797070924853 0 0 0
3583 5 46.28 44.19038960377936 0.000409797070924853 0 0 0
3360 5 48.06 41.10733916630637 0.00040979707092686187 0 0 0
3144 5 51.620000000000005 41.10733916630637 0.00040979707092686214 -1 0 0
3367 5 49.84 44.19038960377936 0.0004097970709248533 -1 0 0
3152 5 55.18000000000001 41.10733916630637 0.0004097970709262272 -1 0 0
3375 5 53.400000000000006 44.19038960377936 0.0004097970709249193 -1 0 0
3383 5 56.96 44.19038960377936 0.00040979707092419175 -1 0 0
3160 5 58.74 41.10733916630637 0.0004097970709269306 -1 0 0
3168 5 62.300000000000004 41.10733916630637 0.0004097970709277236 -1 0 0
3391 5 60.52 44.19038960377936 0.00040979707092479164 -1 0 0
3399 5 64.08000000000001 44.19038960377936 0.000409797070924265 -1 0 0
3176 5 65.86 41.10733916630637 0.00040979707092552397 -1 0 0
3184 5 69.42 41.10733916630637 0.0004097970709268618 -1 0 0
3407 5 67.64 44.19038960377936 0.00040979707092498213 -1 0 0
3192 5 72.98 41.10733916630637 0.0004097970709268618 -1 0 0
3415 5 71.2 44.19038960377936 0.000409797070924853 -1 0 0
3423 5 74.76 44.19038960377936 0.000409797070924853 -1 0 0
3200 5 76.54 41.10733916630637 0.00040979707092686187 -1 0 0
3208 5 80.10000000000001 41.10733916630637 0.00040979707092558663 -1 0 0
3431 5 78.32000000000001 44.19038960377936 0.00040979707092498246 -1 0 0
3439 5 81.88 44.19038960377936 0.000409797070923552 -1 0 0
3216 5 83.66 41.10733916630637 0.00040979707092699474 -1 0 0
3224 5 87.22 41.10733916630637 0.0004097970709268618 -1 0 0
3447 5 85.44 44.19038960377936 0.00040979707092485284 -1 0 0
3232 5 90.78 41.10733916630637 0.000409797070926862 -1 0 0
3455 5 89 44.19038960377936 0.000409797070924853 -1 0 0
3463 5 92.56 44.19038960377936 0.0004097970709248531 -1 0 0
3240 5 94.34 41.10733916630637 0.00040979707092686187 -1 0 0
3248 5 97.9 41.10733916630637 0.00040979707092693045 -1 0 0
3471 5 96.12 44.19038960377936 0.000409797070924853 -1 0 0
3480 5 1.7799999999999956 47.273440041252364 0.0004097970709260657 0 0 0
3488 5 5.339999999999996 47.273440041252364 0.00040979707092670076 0 0 0
119 5 0 50.35649047872536 0.00040979707092521583 0 -1 0
127 5 3.559999999999995 50.35649047872536 0.0004097970709259389 0 -1 0
3496 5 8.899999999999999 47.273440041252364 0.0004097970709267694 0 0 0
135 5 7.119999999999997 50.35649047872536 0.0004097970709258759 0 -1 0
143 5 10.679999999999998 50.35649047872536 0.00040979707092521594 0 -1 0
3504 5 12.459999999999996 47.273440041252364 0.0004097970709260656 0 0 0
3512 5 16.019999999999996 47.273440041252364 0.0004097970709267005 0 0 0
151 5 14.239999999999995 50.35649047872536 0.00040979707092593867 0 -1 0
3520 5 19.58 47.273440041252364 0.0004097970709267005 0 0 0
3528 5 23.14 47.273440041252364 0.00040979707092670065 0 0 0
159 5 17.799999999999997 50.35649047872536 0.00040979707092587573 0 -1 0
167 5 21.36 50.35649047872536 0.0004097970709258755 0 -1 0
3536 5 26.7 47.273440041252364 0.00040979707092542514 0 0 0
175 5 24.92 50.35649047872536 0.0004097970709260021 0 -1 0
183 5 28.479999999999993 50.35649047872536 0.0004097970709245792 0 -1 0
3544 5 30.25999999999999 47.273440041252364 0.0004097970709268334 0 0 0
3552 5 33.81999999999999 47.273440041252364 0.0004097970709267005 0 0 0
191 5 32.03999999999999 50.35649047872536 0.0004097970709258756 0 -1 0
3560 5 37.379999999999995 47.273440041252364 0.00040979707092670065 0 0 0
3568 5 40.94 47.273440041252364 0.0004097970709267005 0 0 0
199 5 35.599999999999994 50.35649047872536 0.0004097970709258758 0 -1 0
207 5 39.16 50.35649047872536 0.00040979707092587573 0 -1 0
3576 5 44.5 47.273440041252364 0.0004097970709267005 0 0 0
215 5 42.72 50.35649047872536 0.0004097970709258756 0 -1 0
223 5 46.28 50.35649047872536 0.0004097970709258756 0 -1 0
3584 5 48.06 47.273440041252364 0.0004097970709267006 0 0 0
3368 5 51.620000000000005 47.273440041252364 0.00040979707092670076 -1 0 0
7 5 49.84 50.35649047872536 0.0004097970709258758 -1 -1 0
3376 5 55.18000000000001 47.273440041252364 0.00040979707092606585 -1 0 0
15 5 53.400000000000006 50.35649047872536 0.0004097970709259393 -1 -1 0
23 5 56.96 50.35649047872536 0.00040979707092521594 -1 -1 0
3384 5 58.74 47.273440041252364 0.0004097970709267693 -1 0 0
3392 5 62.300000000000004 47.273440041252364 0.00040979707092756037 -1 0 0