LAMMPS data file via write_data, version 29 Aug 2024, timestep = 1, units = metal

10752 atoms
12 atom types

0 99.68 xlo xhi
0 98.657613999136 ylo yhi
-50 122.20479436252405 zlo zhi

Masses

1 10.81
2 10.81
3 10.81
4 10.81
5 10.81
6 10.81
7 127.6
8 127.6
9 127.6
10 127.6
11 127.6
12 127.6

Atoms # atomic

1911 7 0 1.0276834791573766 0.000427152994337266 0 0 0
1919 7 3.559999999999995 1.027683479157376 0.0004271529943380199 0 0 0
1906 1 0 3.08305043747262 1.053918930820542 0 0 0
1914 1 3.559999999999995 3.083050437472621 1.0539189308205414 0 0 0
1912 7 1.7799999999999956 4.110733916630375 0.00042715299433726615 0 0 0
1920 7 5.339999999999996 4.110733916630374 0.00042715299433795397 0 0 0
1927 7 7.119999999999997 1.027683479157376 0.0004271529943379541 0 0 0
1935 7 10.679999999999998 1.0276834791573766 0.00042715299433726626 0 0 0
1922 1 7.119999999999997 3.0830504374726204 1.0539189308205414 0 0 0
1930 1 10.679999999999998 3.08305043747262 1.053918930820542 0 0 0
1928 7 8.899999999999999 4.110733916630374 0.0004271529943380197 0 0 0
1943 7 14.239999999999995 1.027683479157376 0.0004271529943380196 0 0 0
1938 1 14.239999999999995 3.083050437472621 1.0539189308205414 0 0 0
1936 7 12.459999999999996 4.110733916630375 0.0004271529943372661 0 0 0
1944 7 16.019999999999996 4.110733916630374 0.0004271529943379536 0 0 0
1951 7 17.799999999999997 1.027683479157376 0.0004271529943379537 0 0 0
1959 7 21.36 1.027683479157376 0.0004271529943379539 0 0 0
1946 1 17.799999999999997 3.0830504374726204 1.0539189308205414 0 0 0
1954 1 21.36 3.0830504374726204 1.0539189308205414 0 0 0
1952 7 19.58 4.110733916630374 0.0004271529943379537 0 0 0
1960 7 23.14 4.110733916630374 0.0004271529943379537 0 0 0
1967 7 24.92 1.0276834791573757 0.00042715299433808564 0 0 0
1975 7 28.479999999999993 1.027683479157377 0.00042715299433660245 0 0 0
1962 1 24.92 3.083050437472621 1.0539189308205414 0 0 0
1970 1 28.479999999999993 3.0830504374726195 1.0539189308205428 0 0 0
1968 7 26.7 4.110733916630376 0.0004271529943366023 0 0 0
1983 7 32.03999999999999 1.027683479157376 0.0004271529943379539 0 0 0
1978 1 32.03999999999999 3.0830504374726204 1.0539189308205414 0 0 0
1976 7 30.25999999999999 4.110733916630374 0.0004271529943380854 0 0 0
1984 7 33.81999999999999 4.110733916630374 0.0004271529943379537 0 0 0
1991 7 35.599999999999994 1.027683479157376 0.0004271529943379539 0 0 0
1999 7 39.16 1.027683479157376 0.0004271529943379539 0 0 0
1986 1 35.599999999999994 3.0830504374726204 1.0539189308205414 0 0 0
1994 1 39.16 3.0830504374726204 1.0539189308205414 0 0 0
1992 7 37.379999999999995 4.110733916630374 0.0004271529943379538 0 0 0
2000 7 40.94 4.110733916630374 0.0004271529943379536 0 0 0
2007 7 42.72 1.027683479157376 0.0004271529943379537 0 0 0
2015 7 46.28 1.027683479157376 0.0004271529943379538 0 0 0
2002 1 42.72 3.0830504374726204 1.0539189308205414 0 0 0
2010 1 46.28 3.0830504374726204 1.0539189308205414 0 0 0
2008 7 44.5 4.110733916630374 0.0004271529943379536 0 0 0
1799 7 49.84 1.027683479157376 0.00042715299433795397 -1 0 0
1794 1 49.84 3.0830504374726204 1.0539189308205414 -1 0 0
2016 7 48.06 4.110733916630374 0.0004271529943379539 0 0 0
1800 7 51.620000000000005 4.110733916630374 0.00042715299433795397 -1 0 0
1807 7 53.400000000000006 1.027683479157376 0.00042715299433802 -1 0 0
1815 7 56.96 1.0276834791573766 0.00042715299433726626 -1 0 0
1802 1 53.400000000000006 3.083050437472621 1.0539189308205414 -1 0 0
1810 1 56.96 3.08305043747262 1.053918930820542 -1 0 0
1808 7 55.18000000000001 4.110733916630375 0.00042715299433726626 -1 0 0
1823 7 60.52 1.027683479157376 0.0004271529943378879 -1 0 0
1831 7 64.08000000000001 1.0276834791573766 0.00042715299433728263 -1 0 0
1818 1 60.52 3.0830504374726204 1.0539189308205414 -1 0 0
1826 1 64.08000000000001 3.08305043747262 1.053918930820542 -1 0 0
1816 7 58.74 4.110733916630374 0.0004271529943380196 -1 0 0
1824 7 62.300000000000004 4.110733916630373 0.0004271529943387655 -1 0 0
1839 7 67.64 1.0276834791573757 0.0004271529943380854 -1 0 0
1834 1 67.64 3.083050437472621 1.0539189308205414 -1 0 0
1832 7 65.86 4.110733916630376 0.00042715299433653637 -1 0 0
1840 7 69.42 4.110733916630374 0.0004271529943379536 -1 0 0
1847 7 71.2 1.027683479157376 0.0004271529943379537 -1 0 0
1855 7 74.76 1.027683479157376 0.0004271529943379538 -1 0 0
1842 1 71.2 3.0830504374726204 1.0539189308205414 -1 0 0
1850 1 74.76 3.0830504374726204 1.0539189308205414 -1 0 0
1848 7 72.98 4.110733916630374 0.0004271529943379536 -1 0 0
1863 7 78.32000000000001 1.0276834791573757 0.0004271529943380857 -1 0 0
1871 7 81.88 1.027683479157377 0.00042715299433660267 -1 0 0
1858 1 78.32000000000001 3.083050437472621 1.0539189308205414 -1 0 0
1866 1 81.88 3.0830504374726195 1.0539189308205428 -1 0 0
1856 7 76.54 4.110733916630374 0.0004271529943379539 -1 0 0
1864 7 80.10000000000001 4.110733916630376 0.00042715299433660267 -1 0 0
1879 7 85.44 1.027683479157376 0.0004271529943379537 -1 0 0
1874 1 85.44 3.0830504374726204 1.0539189308205414 -1 0 0
1872 7 83.66 4.110733916630374 0.0004271529943380857 -1 0 0
1880 7 87.22 4.110733916630374 0.00042715299433795353 -1 0 0
1887 7 89 1.027683479157376 0.0004271529943379537 -1 0 0
1895 7 92.56 1.027683479157376 0.0004271529943379539 -1 0 0
1882 1 89 3.0830504374726204 1.0539189308205414 -1 0 0
1890 1 92.56 3.0830504374726204 1.0539189308205414 -1 0 0
1888 7 90.78 4.110733916630374 0.0004271529943379537 -1 0 0
1903 7 96.12 1.027683479157376 0.0004271529943379538 -1 0 0
1898 1 96.12 3.0830504374726204 1.0539189308205414 -1 0 0
1896 7 94.34 4.110733916630374 0.0004271529943379537 -1 0 0
1904 7 97.9 4.110733916630374 0.00042715299433801934 -1 0 0
2129 1 1.7799999999999956 6.166100874945618 1.053918930820542 0 0 0
2137 1 5.339999999999996 6.166100874945619 1.0539189308205414 0 0 0
2135 7 0 7.193784354103373 0.0004271529943370918 0 0 0
2143 7 3.559999999999995 7.193784354103372 0.0004271529943378457 0 0 0
2130 1 0 9.249151312418618 1.0539189308205412 0 0 0
2136 7 1.7799999999999956 10.276834791576377 0.00042715299433815156 0 0 0
2138 1 3.559999999999995 9.249151312418618 1.0539189308205406 0 0 0
2144 7 5.339999999999996 10.276834791576377 0.0004271529943388136 0 0 0
2145 1 8.899999999999999 6.166100874945619 1.0539189308205414 0 0 0
2151 7 7.119999999999997 7.193784354103372 0.00042715299433778 0 0 0
2159 7 10.679999999999998 7.193784354103373 0.0004271529943370921 0 0 0
2146 1 7.119999999999997 9.249151312418618 1.0539189308205406 0 0 0
2152 7 8.899999999999999 10.276834791576377 0.00042715299433888497 0 0 0
2154 1 10.679999999999998 9.249151312418618 1.0539189308205412 0 0 0
2153 1 12.459999999999996 6.166100874945618 1.053918930820542 0 0 0
2161 1 16.019999999999996 6.166100874945619 1.0539189308205414 0 0 0
2167 7 14.239999999999995 7.193784354103372 0.0004271529943378454 0 0 0
2160 7 12.459999999999996 10.276834791576377 0.00042715299433815145 0 0 0
2162 1 14.239999999999995 9.249151312418618 1.0539189308205406 0 0 0
2168 7 16.019999999999996 10.276834791576377 0.00042715299433881314 0 0 0
2169 1 19.58 6.166100874945619 1.0539189308205414 0 0 0
2177 1 23.14 6.166100874945619 1.0539189308205414 0 0 0
2175 7 17.799999999999997 7.193784354103372 0.0004271529943377795 0 0 0
2183 7 21.36 7.193784354103372 0.0004271529943377795 0 0 0
2170 1 17.799999999999997 9.249151312418618 1.0539189308205406 0 0 0
2176 7 19.58 10.276834791576377 0.0004271529943388132 0 0 0
2178 1 21.36 9.249151312418618 1.0539189308205406 0 0 0
2184 7 23.14 10.276834791576377 0.0004271529943388133 0 0 0
2185 1 26.7 6.166100874945617 1.0539189308205428 0 0 0
2191 7 24.92 7.193784354103372 0.00042715299433791147 0 0 0
2199 7 28.479999999999993 7.193784354103374 0.00042715299433642833 0 0 0
2186 1 24.92 9.249151312418618 1.0539189308205406 0 0 0
2192 7 26.7 10.276834791576377 0.00042715299433748364 0 0 0
2194 1 28.479999999999993 9.249151312418618 1.0539189308205419 0 0 0
2193 1 30.25999999999999 6.166100874945619 1.0539189308205414 0 0 0
2201 1 33.81999999999999 6.166100874945619 1.0539189308205414 0 0 0
2207 7 32.03999999999999 7.193784354103372 0.00042715299433777963 0 0 0
2200 7 30.25999999999999 10.276834791576377 0.00042715299433895176 0 0 0
2202 1 32.03999999999999 9.249151312418618 1.0539189308205406 0 0 0
2208 7 33.81999999999999 10.276834791576377 0.0004271529943388133 0 0 0
2209 1 37.379999999999995 6.166100874945619 1.0539189308205414 0 0 0
2217 1 40.94 6.166100874945619 1.0539189308205414 0 0 0
2215 7 35.599999999999994 7.193784354103372 0.00042715299433777974 0 0 0
2223 7 39.16 7.193784354103372 0.00042715299433777974 0 0 0
2210 1 35.599999999999994 9.249151312418618 1.0539189308205406 0 0 0
2216 7 37.379999999999995 10.276834791576377 0.0004271529943388134 0 0 0
2218 1 39.16 9.249151312418618 1.0539189308205406 0 0 0
2224 7 40.94 10.276834791576377 0.0004271529943388133 0 0 0
2225 1 44.5 6.166100874945619 1.0539189308205414 0 0 0
2231 7 42.72 7.193784354103372 0.0004271529943377795 0 0 0
2239 7 46.28 7.193784354103372 0.00042715299433777963 0 0 0
2226 1 42.72 9.249151312418618 1.0539189308205406 0 0 0
2232 7 44.5 10.276834791576377 0.00042715299433881314 0 0 0
2234 1 46.28 9.249151312418618 1.0539189308205406 0 0 0
2233 1 48.06 6.166100874945619 1.0539189308205414 0 0 0
2017 1 51.620000000000005 6.166100874945619 1.0539189308205414 -1 0 0
2023 7 49.84 7.193784354103372 0.00042715299433777984 -1 0 0
2240 7 48.06 10.276834791576377 0.0004271529943388134 0 0 0
2018 1 49.84 9.249151312418618 1.0539189308205406 -1 0 0
2024 7 51.620000000000005 10.276834791576377 0.0004271529943388136 -1 0 0
2025 1 55.18000000000001 6.166100874945618 1.053918930820542 -1 0 0
2031 7 53.400000000000006 7.193784354103372 0.0004271529943378458 -1 0 0
2039 7 56.96 7.193784354103373 0.0004271529943370921 -1 0 0
2026 1 53.400000000000006 9.249151312418618 1.0539189308205406 -1 0 0
2032 7 55.18000000000001 10.276834791576377 0.0004271529943381516 -1 0 0
2034 1 56.96 9.249151312418618 1.0539189308205412 -1 0 0
2033 1 58.74 6.166100874945619 1.0539189308205414 -1 0 0
2041 1 62.300000000000004 6.16610087494562 1.0539189308205406 -1 0 0
2047 7 60.52 7.193784354103372 0.0004271529943377137 -1 0 0
2055 7 64.08000000000001 7.193784354103373 0.00042715299433711013 -1 0 0
2040 7 58.74 10.276834791576377 0.00042715299433888497 -1 0 0
2042 1 60.52 9.249151312418618 1.0539189308205408 -1 0 0
2048 7 62.300000000000004 10.276834791576375 0.0004271529943397094 -1 0 0
2050 1 64.08000000000001 9.249151312418618 1.0539189308205412 -1 0 0
2049 1 65.86 6.166100874945617 1.053918930820543 -1 0 0
2057 1 69.42 6.166100874945619 1.0539189308205414 -1 0 0
2063 7 67.64 7.193784354103372 0.0004271529943379113 -1 0 0
2056 7 65.86 10.276834791576377 0.00042715299433741875 -1 0 0
2058 1 67.64 9.249151312418618 1.0539189308205406 -1 0 0
2064 7 69.42 10.276834791576377 0.00042715299433881314 -1 0 0
2065 1 72.98 6.166100874945619 1.0539189308205414 -1 0 0
2071 7 71.2 7.193784354103372 0.0004271529943377795 -1 0 0
2079 7 74.76 7.193784354103372 0.00042715299433777963 -1 0 0
2066 1 71.2 9.249151312418618 1.0539189308205406 -1 0 0
2072 7 72.98 10.276834791576377 0.00042715299433881314 -1 0 0
2074 1 74.76 9.249151312418618 1.0539189308205406 -1 0 0
2073 1 76.54 6.166100874945619 1.0539189308205414 -1 0 0
2081 1 80.10000000000001 6.166100874945617 1.0539189308205428 -1 0 0
2087 7 78.32000000000001 7.193784354103372 0.0004271529943379116 -1 0 0
2095 7 81.88 7.193784354103374 0.0004271529943364285 -1 0 0
2080 7 76.54 10.276834791576377 0.0004271529943388133 -1 0 0
2082 1 78.32000000000001 9.249151312418618 1.0539189308205406 -1 0 0
2088 7 80.10000000000001 10.276834791576377 0.0004271529943374839 -1 0 0
2090 1 81.88 9.249151312418618 1.0539189308205419 -1 0 0
2089 1 83.66 6.166100874945619 1.0539189308205414 -1 0 0
2097 1 87.22 6.166100874945619 1.0539189308205414 -1 0 0
2103 7 85.44 7.193784354103372 0.00042715299433777946 -1 0 0
2096 7 83.66 10.276834791576377 0.000427152994338952 -1 0 0
2098 1 85.44 9.249151312418618 1.0539189308205406 -1 0 0
2104 7 87.22 10.276834791576377 0.00042715299433881314 -1 0 0
2105 1 90.78 6.166100874945619 1.0539189308205414 -1 0 0
2111 7 89 7.193784354103372 0.0004271529943377795 -1 0 0
2119 7 92.56 7.193784354103372 0.00042715299433777963 -1 0 0
2106 1 89 9.249151312418618 1.0539189308205406 -1 0 0
2112 7 90.78 10.276834791576377 0.0004271529943388132 -1 0 0
2114 1 92.56 9.249151312418618 1.0539189308205406 -1 0 0
2113 1 94.34 6.166100874945619 1.0539189308205414 -1 0 0
2121 1 97.9 6.166100874945619 1.0539189308205414 -1 0 0
2127 7 96.12 7.193784354103372 0.0004271529943377795 -1 0 0
2120 7 94.34 10.276834791576377 0.0004271529943388133 -1 0 0
2122 1 96.12 9.249151312418618 1.0539189308205406 -1 0 0
2128 7 97.9 10.276834791576377 0.00042715299433888475 -1 0 0
2353 1 1.7799999999999956 12.332201749891622 1.0539189308205423 0 0 0
2361 1 5.339999999999996 12.332201749891622 1.0539189308205417 0 0 0
2359 7 0 13.359885229049377 0.00042715299433709176 0 0 0
2367 7 3.559999999999995 13.359885229049377 0.00042715299433784566 0 0 0
2354 1 0 15.415252187364622 1.0539189308205412 0 0 0
2362 1 3.559999999999995 15.415252187364622 1.0539189308205406 0 0 0
2360 7 1.7799999999999956 16.44293566652238 0.00042715299433832005 0 0 0
2368 7 5.339999999999996 16.44293566652238 0.000427152994338982 0 0 0
2369 1 8.899999999999999 12.332201749891622 1.0539189308205417 0 0 0
2375 7 7.119999999999997 13.359885229049377 0.00042715299433777984 0 0 0
2383 7 10.679999999999998 13.359885229049377 0.000427152994337092 0 0 0
2370 1 7.119999999999997 15.415252187364622 1.0539189308205406 0 0 0
2378 1 10.679999999999998 15.415252187364622 1.0539189308205412 0 0 0
2376 7 8.899999999999999 16.44293566652238 0.00042715299433905346 0 0 0
2377 1 12.459999999999996 12.332201749891622 1.0539189308205423 0 0 0
2385 1 16.019999999999996 12.332201749891622 1.0539189308205417 0 0 0
2391 7 14.239999999999995 13.359885229049377 0.0004271529943378454 0 0 0
2386 1 14.239999999999995 15.415252187364622 1.0539189308205406 0 0 0
2384 7 12.459999999999996 16.44293566652238 0.0004271529943383198 0 0 0
2392 7 16.019999999999996 16.44293566652238 0.0004271529943389816 0 0 0
2393 1 19.58 12.332201749891622 1.0539189308205417 0 0 0
2401 1 23.14 12.332201749891622 1.0539189308205417 0 0 0
2399 7 17.799999999999997 13.359885229049377 0.00042715299433777946 0 0 0
2407 7 21.36 13.359885229049377 0.0004271529943377795 0 0 0
2394 1 17.799999999999997 15.415252187364622 1.0539189308205406 0 0 0
2402 1 21.36 15.415252187364622 1.0539189308205406 0 0 0
2400 7 19.58 16.44293566652238 0.0004271529943389816 0 0 0
2408 7 23.14 16.44293566652238 0.00042715299433898185 0 0 0
2409 1 26.7 12.332201749891622 1.053918930820543 0 0 0
2415 7 24.92 13.359885229049377 0.00042715299433791136 0 0 0
2423 7 28.479999999999993 13.359885229049377 0.0004271529943364282 0 0 0
2410 1 24.92 15.415252187364622 1.0539189308205406 0 0 0
2418 1 28.479999999999993 15.415252187364622 1.0539189308205419 0 0 0
2416 7 26.7 16.44293566652238 0.0004271529943376522 0 0 0
2417 1 30.25999999999999 12.332201749891622 1.0539189308205414 0 0 0
2425 1 33.81999999999999 12.332201749891622 1.0539189308205417 0 0 0
2431 7 32.03999999999999 13.359885229049377 0.00042715299433777963 0 0 0
2426 1 32.03999999999999 15.415252187364622 1.0539189308205406 0 0 0
2424 7 30.25999999999999 16.44293566652238 0.00042715299433912014 0 0 0
2432 7 33.81999999999999 16.44293566652238 0.00042715299433898163 0 0 0
2433 1 37.379999999999995 12.332201749891622 1.0539189308205417 0 0 0
2441 1 40.94 12.332201749891622 1.0539189308205417 0 0 0
2439 7 35.599999999999994 13.359885229049377 0.00042715299433777963 0 0 0
2447 7 39.16 13.359885229049377 0.00042715299433777963 0 0 0
2434 1 35.599999999999994 15.415252187364622 1.0539189308205406 0 0 0
2442 1 39.16 15.415252187364622 1.0539189308205406 0 0 0
2440 7 37.379999999999995 16.44293566652238 0.00042715299433898174 0 0 0
2448 7 40.94 16.44293566652238 0.00042715299433898163 0 0 0
2449 1 44.5 12.332201749891622 1.0539189308205417 0 0 0
2455 7 42.72 13.359885229049377 0.00042715299433777946 0 0 0
2463 7 46.28 13.359885229049377 0.0004271529943377795 0 0 0
2450 1 42.72 15.415252187364622 1.0539189308205406 0 0 0
2458 1 46.28 15.415252187364622 1.0539189308205406 0 0 0
2456 7 44.5 16.44293566652238 0.00042715299433898147 0 0 0
2457 1 48.06 12.332201749891622 1.0539189308205417 0 0 0
2241 1 51.620000000000005 12.332201749891622 1.0539189308205417 -1 0 0
2247 7 49.84 13.359885229049377 0.00042715299433777974 -1 0 0
2242 1 49.84 15.415252187364622 1.0539189308205406 -1 0 0
2464 7 48.06 16.44293566652238 0.00042715299433898163 0 0 0
2248 7 51.620000000000005 16.44293566652238 0.0004271529943389819 -1 0 0
2249 1 55.18000000000001 12.332201749891622 1.0539189308205423 -1 0 0
2255 7 53.400000000000006 13.359885229049377 0.0004271529943378457 -1 0 0
2263 7 56.96 13.359885229049377 0.000427152994337092 -1 0 0
2250 1 53.400000000000006 15.415252187364622 1.0539189308205406 -1 0 0
2258 1 56.96 15.415252187364622 1.0539189308205412 -1 0 0
2256 7 55.18000000000001 16.44293566652238 0.00042715299433832005 -1 0 0
2257 1 58.74 12.332201749891622 1.0539189308205417 -1 0 0
2265 1 62.300000000000004 12.332201749891624 1.0539189308205408 -1 0 0
2271 7 60.52 13.359885229049377 0.0004271529943377137 -1 0 0
2279 7 64.08000000000001 13.359885229049377 0.00042715299433711013 -1 0 0
2266 1 60.52 15.415252187364622 1.0539189308205408 -1 0 0
2274 1 64.08000000000001 15.415252187364622 1.0539189308205412 -1 0 0
2264 7 58.74 16.44293566652238 0.0004271529943390533 -1 0 0
2272 7 62.300000000000004 16.44293566652238 0.0004271529943398798 -1 0 0
2273 1 65.86 12.332201749891622 1.053918930820543 -1 0 0
2281 1 69.42 12.332201749891622 1.0539189308205417 -1 0 0
2287 7 67.64 13.359885229049377 0.0004271529943379112 -1 0 0
2282 1 67.64 15.415252187364622 1.0539189308205406 -1 0 0
2280 7 65.86 16.44293566652238 0.000427152994337587 -1 0 0
2288 7 69.42 16.44293566652238 0.0004271529943389816 -1 0 0
2289 1 72.98 12.332201749891622 1.0539189308205417 -1 0 0
2295 7 71.2 13.359885229049377 0.00042715299433777946 -1 0 0
2303 7 74.76 13.359885229049377 0.0004271529943377795 -1 0 0
2290 1 71.2 15.415252187364622 1.0539189308205406 -1 0 0
2298 1 74.76 15.415252187364622 1.0539189308205406 -1 0 0
2296 7 72.98 16.44293566652238 0.00042715299433898147 -1 0 0
2297 1 76.54 12.332201749891622 1.0539189308205417 -1 0 0
2305 1 80.10000000000001 12.332201749891622 1.053918930820543 -1 0 0
2311 7 78.32000000000001 13.359885229049377 0.00042715299433791147 -1 0 0
2319 7 81.88 13.359885229049377 0.0004271529943364284 -1 0 0
2306 1 78.32000000000001 15.415252187364622 1.0539189308205406 -1 0 0
2314 1 81.88 15.415252187364622 1.0539189308205419 -1 0 0
2304 7 76.54 16.44293566652238 0.00042715299433898163 -1 0 0
2312 7 80.10000000000001 16.44293566652238 0.00042715299433765234 -1 0 0
2313 1 83.66 12.332201749891622 1.0539189308205414 -1 0 0
2321 1 87.22 12.332201749891622 1.0539189308205417 -1 0 0
2327 7 85.44 13.359885229049377 0.00042715299433777946 -1 0 0
2322 1 85.44 15.415252187364622 1.0539189308205406 -1 0 0
2320 7 83.66 16.44293566652238 0.0004271529943391203 -1 0 0
2328 7 87.22 16.44293566652238 0.00042715299433898147 -1 0 0
2329 1 90.78 12.332201749891622 1.0539189308205417 -1 0 0
2335 7 89 13.359885229049377 0.00042715299433777946 -1 0 0
2343 7 92.56 13.359885229049377 0.00042715299433777963 -1 0 0
2330 1 89 15.415252187364622 1.0539189308205406 -1 0 0
2338 1 92.56 15.415252187364622 1.0539189308205406 -1 0 0
2336 7 90.78 16.44293566652238 0.00042715299433898163 -1 0 0
2337 1 94.34 12.332201749891622 1.0539189308205417 -1 0 0
2345 1 97.9 12.332201749891622 1.0539189308205417 -1 0 0
2351 7 96.12 13.359885229049377 0.0004271529943377795 -1 0 0
2346 1 96.12 15.415252187364622 1.0539189308205406 -1 0 0
2344 7 94.34 16.44293566652238 0.0004271529943389816 -1 0 0
2352 7 97.9 16.44293566652238 0.0004271529943390532 -1 0 0
2583 7 0 19.525986103995375 0.00042715299433619837 0 0 0
2577 1 1.7799999999999956 18.498302624837624 1.0539189308205432 0 0 0
2591 7 3.559999999999995 19.525986103995375 0.0004271529943369568 0 0 0
2585 1 5.339999999999996 18.498302624837624 1.0539189308205426 0 0 0
2578 1 0 21.58135306231062 1.053918930820541 0 0 0
2584 7 1.7799999999999956 22.609036541468377 0.00042715299433832016 0 0 0
2586 1 3.559999999999995 21.58135306231062 1.0539189308205403 0 0 0
2592 7 5.339999999999996 22.609036541468377 0.0004271529943389821 0 0 0
2599 7 7.119999999999997 19.525986103995375 0.00042715299433688814 0 0 0
2593 1 8.899999999999999 18.498302624837624 1.0539189308205426 0 0 0
2607 7 10.679999999999998 19.525986103995375 0.00042715299433619854 0 0 0
2594 1 7.119999999999997 21.58135306231062 1.0539189308205406 0 0 0
2600 7 8.899999999999999 22.609036541468377 0.00042715299433905356 0 0 0
2602 1 10.679999999999998 21.58135306231062 1.053918930820541 0 0 0
2601 1 12.459999999999996 18.498302624837624 1.0539189308205432 0 0 0
2615 7 14.239999999999995 19.525986103995375 0.00042715299433695656 0 0 0
2609 1 16.019999999999996 18.498302624837624 1.0539189308205426 0 0 0
2608 7 12.459999999999996 22.609036541468377 0.0004271529943383199 0 0 0
2610 1 14.239999999999995 21.58135306231062 1.0539189308205403 0 0 0
2616 7 16.019999999999996 22.609036541468377 0.00042715299433898163 0 0 0
2623 7 17.799999999999997 19.525986103995375 0.0004271529943368878 0 0 0
2617 1 19.58 18.498302624837624 1.0539189308205426 0 0 0
2631 7 21.36 19.525986103995375 0.0004271529943368878 0 0 0
2625 1 23.14 18.498302624837624 1.0539189308205426 0 0 0
2618 1 17.799999999999997 21.58135306231062 1.0539189308205406 0 0 0
2624 7 19.58 22.609036541468377 0.00042715299433898163 0 0 0
2626 1 21.36 21.58135306231062 1.0539189308205406 0 0 0
2632 7 23.14 22.609036541468377 0.0004271529943389819 0 0 0
2639 7 24.92 19.525986103995375 0.00042715299433702253 0 0 0
2633 1 26.7 18.498302624837624 1.0539189308205439 0 0 0
2647 7 28.479999999999993 19.525986103995375 0.00042715299433553137 0 0 0
2634 1 24.92 21.58135306231062 1.0539189308205403 0 0 0
2640 7 26.7 22.609036541468377 0.0004271529943376523 0 0 0
2642 1 28.479999999999993 21.58135306231062 1.0539189308205417 0 0 0
2641 1 30.25999999999999 18.498302624837624 1.0539189308205423 0 0 0
2655 7 32.03999999999999 19.525986103995375 0.00042715299433688787 0 0 0
2649 1 33.81999999999999 18.498302624837624 1.0539189308205426 0 0 0
2648 7 30.25999999999999 22.609036541468377 0.0004271529943391203 0 0 0
2650 1 32.03999999999999 21.58135306231062 1.0539189308205406 0 0 0
2656 7 33.81999999999999 22.609036541468377 0.00042715299433898174 0 0 0
2663 7 35.599999999999994 19.525986103995375 0.000427152994336888 0 0 0
2657 1 37.379999999999995 18.498302624837624 1.0539189308205426 0 0 0
2671 7 39.16 19.525986103995375 0.00042715299433688787 0 0 0
2665 1 40.94 18.498302624837624 1.0539189308205426 0 0 0
2658 1 35.599999999999994 21.58135306231062 1.0539189308205406 0 0 0
2664 7 37.379999999999995 22.609036541468377 0.00042715299433898185 0 0 0
2666 1 39.16 21.58135306231062 1.0539189308205406 0 0 0
2672 7 40.94 22.609036541468377 0.00042715299433898163 0 0 0
2679 7 42.72 19.525986103995375 0.0004271529943368878 0 0 0
2673 1 44.5 18.498302624837624 1.0539189308205426 0 0 0
2687 7 46.28 19.525986103995375 0.0004271529943368877 0 0 0
2674 1 42.72 21.58135306231062 1.0539189308205406 0 0 0
2680 7 44.5 22.609036541468377 0.00042715299433898163 0 0 0
2682 1 46.28 21.58135306231062 1.0539189308205406 0 0 0
2681 1 48.06 18.498302624837624 1.0539189308205426 0 0 0
2471 7 49.84 19.525986103995375 0.000427152994336888 -1 0 0
2465 1 51.620000000000005 18.498302624837624 1.0539189308205426 -1 0 0
2688 7 48.06 22.609036541468377 0.00042715299433898185 0 0 0
2466 1 49.84 21.58135306231062 1.0539189308205406 -1 0 0
2472 7 51.620000000000005 22.609036541468377 0.000427152994338982 -1 0 0
2479 7 53.400000000000006 19.525986103995375 0.0004271529943369569 -1 0 0
2473 1 55.18000000000001 18.498302624837624 1.0539189308205432 -1 0 0
2487 7 56.96 19.525986103995375 0.00042715299433619864 -1 0 0
2474 1 53.400000000000006 21.58135306231062 1.0539189308205403 -1 0 0
2480 7 55.18000000000001 22.609036541468377 0.0004271529943383202 -1 0 0
2482 1 56.96 21.58135306231062 1.053918930820541 -1 0 0
2481 1 58.74 18.498302624837624 1.0539189308205426 -1 0 0
2495 7 60.52 19.525986103995375 0.0004271529943368239 -1 0 0
2489 1 62.300000000000004 18.498302624837624 1.0539189308205417 -1 0 0
2503 7 64.08000000000001 19.525986103995375 0.00042715299433627475 -1 0 0
2488 7 58.74 22.609036541468377 0.0004271529943390534 -1 0 0
2490 1 60.52 21.58135306231062 1.0539189308205406 -1 0 0
2496 7 62.300000000000004 22.609036541468377 0.00042715299433987984 -1 0 0
2498 1 64.08000000000001 21.58135306231062 1.053918930820541 -1 0 0
2497 1 65.86 18.498302624837624 1.0539189308205439 -1 0 0
2511 7 67.64 19.525986103995375 0.00042715299433702237 -1 0 0
2505 1 69.42 18.498302624837624 1.0539189308205426 -1 0 0
2504 7 65.86 22.609036541468377 0.0004271529943375872 -1 0 0
2506 1 67.64 21.58135306231062 1.0539189308205403 -1 0 0
2512 7 69.42 22.609036541468377 0.00042715299433898163 -1 0 0
2519 7 71.2 19.525986103995375 0.0004271529943368878 -1 0 0
2513 1 72.98 18.498302624837624 1.0539189308205426 -1 0 0
2527 7 74.76 19.525986103995375 0.0004271529943368877 -1 0 0
2514 1 71.2 21.58135306231062 1.0539189308205406 -1 0 0
2520 7 72.98 22.609036541468377 0.00042715299433898163 -1 0 0
2522 1 74.76 21.58135306231062 1.0539189308205406 -1 0 0
2521 1 76.54 18.498302624837624 1.0539189308205426 -1 0 0
2535 7 78.32000000000001 19.525986103995375 0.00042715299433702253 -1 0 0
2529 1 80.10000000000001 18.498302624837624 1.0539189308205439 -1 0 0
2543 7 81.88 19.525986103995375 0.00042715299433553175 -1 0 0
2528 7 76.54 22.609036541468377 0.0004271529943389819 -1 0 0
2530 1 78.32000000000001 21.58135306231062 1.0539189308205403 -1 0 0
2536 7 80.10000000000001 22.609036541468377 0.00042715299433765245 -1 0 0
2538 1 81.88 21.58135306231062 1.0539189308205417 -1 0 0
2537 1 83.66 18.498302624837624 1.0539189308205423 -1 0 0
2551 7 85.44 19.525986103995375 0.0004271529943368878 -1 0 0
2545 1 87.22 18.498302624837624 1.0539189308205426 -1 0 0
2544 7 83.66 22.609036541468377 0.0004271529943391204 -1 0 0
2546 1 85.44 21.58135306231062 1.0539189308205406 -1 0 0
2552 7 87.22 22.609036541468377 0.00042715299433898147 -1 0 0
2559 7 89 19.525986103995375 0.0004271529943368878 -1 0 0
2553 1 90.78 18.498302624837624 1.0539189308205426 -1 0 0
2567 7 92.56 19.525986103995375 0.00042715299433688787 -1 0 0
2554 1 89 21.58135306231062 1.0539189308205406 -1 0 0
2560 7 90.78 22.609036541468377 0.00042715299433898174 -1 0 0
2562 1 92.56 21.58135306231062 1.0539189308205406 -1 0 0
2561 1 94.34 18.498302624837624 1.0539189308205426 -1 0 0
2575 7 96.12 19.525986103995375 0.0004271529943368878 -1 0 0
2569 1 97.9 18.498302624837624 1.0539189308205426 -1 0 0
2568 7 94.34 22.609036541468377 0.00042715299433898163 -1 0 0
2570 1 96.12 21.58135306231062 1.0539189308205406 -1 0 0
2576 7 97.9 22.609036541468377 0.0004271529943390533 -1 0 0
2801 1 1.7799999999999956 24.66440349978362 1.0539189308205432 0 0 0
2809 1 5.339999999999996 24.66440349978362 1.0539189308205426 0 0 0
2807 7 0 25.692086978941372 0.00042715299433619837 0 0 0
2815 7 3.559999999999995 25.692086978941372 0.0004271529943369567 0 0 0
2802 1 0 27.747453937256616 1.053918930820541 0 0 0
2810 1 3.559999999999995 27.747453937256616 1.0539189308205403 0 0 0
2808 7 1.7799999999999956 28.775137416414374 0.00042715299433797744 0 0 0
2816 7 5.339999999999996 28.775137416414374 0.0004271529943386395 0 0 0
2817 1 8.899999999999999 24.66440349978362 1.0539189308205426 0 0 0
2823 7 7.119999999999997 25.692086978941372 0.0004271529943368881 0 0 0
2831 7 10.679999999999998 25.692086978941372 0.0004271529943361984 0 0 0
2818 1 7.119999999999997 27.747453937256616 1.0539189308205406 0 0 0
2826 1 10.679999999999998 27.747453937256616 1.053918930820541 0 0 0
2824 7 8.899999999999999 28.775137416414374 0.00042715299433871096 0 0 0
2825 1 12.459999999999996 24.66440349978362 1.0539189308205432 0 0 0
2833 1 16.019999999999996 24.66440349978362 1.0539189308205426 0 0 0
2839 7 14.239999999999995 25.692086978941372 0.0004271529943369562 0 0 0
2834 1 14.239999999999995 27.747453937256616 1.0539189308205403 0 0 0
2832 7 12.459999999999996 28.775137416414374 0.0004271529943379774 0 0 0
2840 7 16.019999999999996 28.775137416414374 0.00042715299433863924 0 0 0
2841 1 19.58 24.66440349978362 1.0539189308205426 0 0 0
2849 1 23.14 24.66440349978362 1.0539189308205426 0 0 0
2847 7 17.799999999999997 25.692086978941372 0.0004271529943368876 0 0 0
2855 7 21.36 25.692086978941372 0.00042715299433688755 0 0 0
2842 1 17.799999999999997 27.747453937256616 1.0539189308205406 0 0 0
2850 1 21.36 27.747453937256616 1.0539189308205406 0 0 0
2848 7 19.58 28.775137416414374 0.00042715299433863913 0 0 0
2856 7 23.14 28.775137416414374 0.00042715299433863935 0 0 0
2857 1 26.7 24.66440349978362 1.0539189308205439 0 0 0
2863 7 24.92 25.692086978941372 0.0004271529943370225 0 0 0
2871 7 28.479999999999993 25.692086978941372 0.0004271529943355312 0 0 0
2858 1 24.92 27.747453937256616 1.0539189308205403 0 0 0
2866 1 28.479999999999993 27.747453937256616 1.0539189308205417 0 0 0
2864 7 26.7 28.775137416414374 0.0004271529943373097 0 0 0
2865 1 30.25999999999999 24.66440349978362 1.0539189308205423 0 0 0
2873 1 33.81999999999999 24.66440349978362 1.0539189308205426 0 0 0
2879 7 32.03999999999999 25.692086978941372 0.0004271529943368877 0 0 0
2874 1 32.03999999999999 27.747453937256616 1.0539189308205406 0 0 0
2872 7 30.25999999999999 28.775137416414374 0.0004271529943387777 0 0 0
2880 7 33.81999999999999 28.775137416414374 0.00042715299433863924 0 0 0
2881 1 37.379999999999995 24.66440349978362 1.0539189308205426 0 0 0
2889 1 40.94 24.66440349978362 1.0539189308205426 0 0 0
2887 7 35.599999999999994 25.692086978941372 0.0004271529943368878 0 0 0