LAMMPS data file via write_data, version 29 Aug 2024, timestep = 0, units = metal

3584 atoms
4 atom types

0 99.68 xlo xhi
0 98.657613999136 ylo yhi
0 106 zlo zhi

Masses

1 10.81
2 10.81
3 127.6
4 127.6

Atoms # atomic

1911 3 0 1.0276834791569982 0 0 0 0
1905 1 1.779999999999994 0 1.054300000000005 0 0 0
1919 3 3.559999999999995 1.0276834791569982 0 0 0 0
1913 1 5.339999999999996 0 1.054300000000005 0 0 0
1927 3 7.119999999999997 1.0276834791569982 0 0 0 0
1921 1 8.899999999999999 0 1.054300000000005 0 0 0
1935 3 10.68 1.0276834791569982 0 0 0 0
1929 1 12.459999999999994 0 1.054300000000005 0 0 0
1943 3 14.239999999999995 1.0276834791569982 0 0 0 0
1937 1 16.019999999999996 0 1.054300000000005 0 0 0
1951 3 17.799999999999997 1.0276834791569982 0 0 0 0
1945 1 19.58 0 1.054300000000005 0 0 0
1959 3 21.36 1.0276834791569982 0 0 0 0
1953 1 23.14 0 1.054300000000005 0 0 0
1967 3 24.92 1.0276834791569982 0 0 0 0
1961 1 26.700000000000003 0 1.054300000000005 0 0 0
1975 3 28.47999999999999 1.0276834791569982 0 0 0 0
1969 1 30.25999999999999 0 1.054300000000005 0 0 0
1983 3 32.03999999999999 1.0276834791569982 0 0 0 0
1977 1 33.81999999999999 0 1.054300000000005 0 0 0
1991 3 35.599999999999994 1.0276834791569982 0 0 0 0
1985 1 37.379999999999995 0 1.054300000000005 0 0 0
1999 3 39.16 1.0276834791569982 0 0 0 0
1993 1 40.94 0 1.054300000000005 0 0 0
2007 3 42.72 1.0276834791569982 0 0 0 0
2001 1 44.5 0 1.054300000000005 0 0 0
2015 3 46.28 1.0276834791569982 0 0 0 0
2009 1 48.06 0 1.054300000000005 0 0 0
1799 3 49.84 1.0276834791569982 0 -1 0 0
1793 1 51.620000000000005 0 1.054300000000005 -1 0 0
1807 3 53.400000000000006 1.0276834791569982 0 -1 0 0
1801 1 55.18000000000001 0 1.054300000000005 -1 0 0
1815 3 56.96 1.0276834791569982 0 -1 0 0
1809 1 58.74 0 1.054300000000005 -1 0 0
1823 3 60.52 1.0276834791569982 0 -1 0 0
1817 1 62.300000000000004 0 1.054300000000005 -1 0 0
1831 3 64.08000000000001 1.0276834791569982 0 -1 0 0
1825 1 65.86 0 1.054300000000005 -1 0 0
1839 3 67.64 1.0276834791569982 0 -1 0 0
1833 1 69.42 0 1.054300000000005 -1 0 0
1847 3 71.2 1.0276834791569982 0 -1 0 0
1841 1 72.98 0 1.054300000000005 -1 0 0
1855 3 74.76 1.0276834791569982 0 -1 0 0
1849 1 76.54 0 1.054300000000005 -1 0 0
1863 3 78.32000000000001 1.0276834791569982 0 -1 0 0
1857 1 80.10000000000001 0 1.054300000000005 -1 0 0
1871 3 81.88 1.0276834791569982 0 -1 0 0
1865 1 83.66 0 1.054300000000005 -1 0 0
1879 3 85.44 1.0276834791569982 0 -1 0 0
1873 1 87.22 0 1.054300000000005 -1 0 0
1887 3 89 1.0276834791569982 0 -1 0 0
1881 1 90.78 0 1.054300000000005 -1 0 0
1895 3 92.56 1.0276834791569982 0 -1 0 0
1889 1 94.34 0 1.054300000000005 -1 0 0
1903 3 96.12 1.0276834791569982 0 -1 0 0
1897 1 97.9 0 1.054300000000005 -1 0 0
1906 1 0 3.0830504374729983 1.054300000000005 0 0 0
1914 1 3.559999999999995 3.0830504374729983 1.054300000000005 0 0 0
1922 1 7.119999999999997 3.0830504374729983 1.054300000000005 0 0 0
1930 1 10.68 3.0830504374729983 1.054300000000005 0 0 0
1938 1 14.239999999999995 3.0830504374729983 1.054300000000005 0 0 0
1946 1 17.799999999999997 3.0830504374729983 1.054300000000005 0 0 0
1954 1 21.36 3.0830504374729983 1.054300000000005 0 0 0
1962 1 24.92 3.0830504374729983 1.054300000000005 0 0 0
1970 1 28.47999999999999 3.0830504374729983 1.054300000000005 0 0 0
1978 1 32.03999999999999 3.0830504374729983 1.054300000000005 0 0 0
1986 1 35.599999999999994 3.0830504374729983 1.054300000000005 0 0 0
1994 1 39.16 3.0830504374729983 1.054300000000005 0 0 0
2002 1 42.72 3.0830504374729983 1.054300000000005 0 0 0
2010 1 46.28 3.0830504374729983 1.054300000000005 0 0 0
1794 1 49.84 3.0830504374729983 1.054300000000005 -1 0 0
1802 1 53.400000000000006 3.0830504374729983 1.054300000000005 -1 0 0
1810 1 56.96 3.0830504374729983 1.054300000000005 -1 0 0
1818 1 60.52 3.0830504374729983 1.054300000000005 -1 0 0
1826 1 64.08000000000001 3.0830504374729983 1.054300000000005 -1 0 0
1834 1 67.64 3.0830504374729983 1.054300000000005 -1 0 0
1842 1 71.2 3.0830504374729983 1.054300000000005 -1 0 0
1850 1 74.76 3.0830504374729983 1.054300000000005 -1 0 0
1858 1 78.32000000000001 3.0830504374729983 1.054300000000005 -1 0 0
1866 1 81.88 3.0830504374729983 1.054300000000005 -1 0 0
1874 1 85.44 3.0830504374729983 1.054300000000005 -1 0 0
1882 1 89 3.0830504374729983 1.054300000000005 -1 0 0
1890 1 92.56 3.0830504374729983 1.054300000000005 -1 0 0
1898 1 96.12 3.0830504374729983 1.054300000000005 -1 0 0
1912 3 1.779999999999994 4.1107339166299965 0 0 0 0
1920 3 5.339999999999996 4.1107339166299965 0 0 0 0
1928 3 8.899999999999999 4.1107339166299965 0 0 0 0
1936 3 12.459999999999994 4.1107339166299965 0 0 0 0
1944 3 16.019999999999996 4.1107339166299965 0 0 0 0
1952 3 19.58 4.1107339166299965 0 0 0 0
1960 3 23.14 4.1107339166299965 0 0 0 0
1968 3 26.700000000000003 4.1107339166299965 0 0 0 0
1976 3 30.25999999999999 4.1107339166299965 0 0 0 0
1984 3 33.81999999999999 4.1107339166299965 0 0 0 0
1992 3 37.379999999999995 4.1107339166299965 0 0 0 0
2000 3 40.94 4.1107339166299965 0 0 0 0
2008 3 44.5 4.1107339166299965 0 0 0 0
2016 3 48.06 4.1107339166299965 0 0 0 0
1800 3 51.620000000000005 4.1107339166299965 0 -1 0 0
1808 3 55.18000000000001 4.1107339166299965 0 -1 0 0
1816 3 58.74 4.1107339166299965 0 -1 0 0
1824 3 62.300000000000004 4.1107339166299965 0 -1 0 0
1832 3 65.86 4.1107339166299965 0 -1 0 0
1840 3 69.42 4.1107339166299965 0 -1 0 0
1848 3 72.98 4.1107339166299965 0 -1 0 0
1856 3 76.54 4.1107339166299965 0 -1 0 0
1864 3 80.10000000000001 4.1107339166299965 0 -1 0 0
1872 3 83.66 4.1107339166299965 0 -1 0 0
1880 3 87.22 4.1107339166299965 0 -1 0 0
1888 3 90.78 4.1107339166299965 0 -1 0 0
1896 3 94.34 4.1107339166299965 0 -1 0 0
1904 3 97.9 4.1107339166299965 0 -1 0 0
2129 1 1.779999999999994 6.166100874945997 1.054300000000005 0 0 0
2137 1 5.339999999999996 6.166100874945997 1.054300000000005 0 0 0
2145 1 8.899999999999999 6.166100874945997 1.054300000000005 0 0 0
2153 1 12.459999999999994 6.166100874945997 1.054300000000005 0 0 0
2161 1 16.019999999999996 6.166100874945997 1.054300000000005 0 0 0
2169 1 19.58 6.166100874945997 1.054300000000005 0 0 0
2177 1 23.14 6.166100874945997 1.054300000000005 0 0 0
2185 1 26.700000000000003 6.166100874945997 1.054300000000005 0 0 0
2193 1 30.25999999999999 6.166100874945997 1.054300000000005 0 0 0
2201 1 33.81999999999999 6.166100874945997 1.054300000000005 0 0 0
2209 1 37.379999999999995 6.166100874945997 1.054300000000005 0 0 0
2217 1 40.94 6.166100874945997 1.054300000000005 0 0 0
2225 1 44.5 6.166100874945997 1.054300000000005 0 0 0
2233 1 48.06 6.166100874945997 1.054300000000005 0 0 0
2017 1 51.620000000000005 6.166100874945997 1.054300000000005 -1 0 0
2025 1 55.18000000000001 6.166100874945997 1.054300000000005 -1 0 0
2033 1 58.74 6.166100874945997 1.054300000000005 -1 0 0
2041 1 62.300000000000004 6.166100874945997 1.054300000000005 -1 0 0
2049 1 65.86 6.166100874945997 1.054300000000005 -1 0 0
2057 1 69.42 6.166100874945997 1.054300000000005 -1 0 0
2065 1 72.98 6.166100874945997 1.054300000000005 -1 0 0
2073 1 76.54 6.166100874945997 1.054300000000005 -1 0 0
2081 1 80.10000000000001 6.166100874945997 1.054300000000005 -1 0 0
2089 1 83.66 6.166100874945997 1.054300000000005 -1 0 0
2097 1 87.22 6.166100874945997 1.054300000000005 -1 0 0
2105 1 90.78 6.166100874945997 1.054300000000005 -1 0 0
2113 1 94.34 6.166100874945997 1.054300000000005 -1 0 0
2121 1 97.9 6.166100874945997 1.054300000000005 -1 0 0
2135 3 0 7.193784354102995 0 0 0 0
2143 3 3.559999999999995 7.193784354102995 0 0 0 0
2151 3 7.119999999999997 7.193784354102995 0 0 0 0
2159 3 10.68 7.193784354102995 0 0 0 0
2167 3 14.239999999999995 7.193784354102995 0 0 0 0
2175 3 17.799999999999997 7.193784354102995 0 0 0 0
2183 3 21.36 7.193784354102995 0 0 0 0
2191 3 24.92 7.193784354102995 0 0 0 0
2199 3 28.47999999999999 7.193784354102995 0 0 0 0
2207 3 32.03999999999999 7.193784354102995 0 0 0 0
2215 3 35.599999999999994 7.193784354102995 0 0 0 0
2223 3 39.16 7.193784354102995 0 0 0 0
2231 3 42.72 7.193784354102995 0 0 0 0
2239 3 46.28 7.193784354102995 0 0 0 0
2023 3 49.84 7.193784354102995 0 -1 0 0
2031 3 53.400000000000006 7.193784354102995 0 -1 0 0
2039 3 56.96 7.193784354102995 0 -1 0 0
2047 3 60.52 7.193784354102995 0 -1 0 0
2055 3 64.08000000000001 7.193784354102995 0 -1 0 0
2063 3 67.64 7.193784354102995 0 -1 0 0
2071 3 71.2 7.193784354102995 0 -1 0 0
2079 3 74.76 7.193784354102995 0 -1 0 0
2087 3 78.32000000000001 7.193784354102995 0 -1 0 0
2095 3 81.88 7.193784354102995 0 -1 0 0
2103 3 85.44 7.193784354102995 0 -1 0 0
2111 3 89 7.193784354102995 0 -1 0 0
2119 3 92.56 7.193784354102995 0 -1 0 0
2127 3 96.12 7.193784354102995 0 -1 0 0
2130 1 0 9.249151312418995 1.054300000000005 0 0 0
2136 3 1.779999999999994 10.276834791576 0 0 0 0
2138 1 3.559999999999995 9.249151312418995 1.054300000000005 0 0 0
2144 3 5.339999999999996 10.276834791576 0 0 0 0
2146 1 7.119999999999997 9.249151312418995 1.054300000000005 0 0 0
2152 3 8.899999999999999 10.276834791576 0 0 0 0
2154 1 10.68 9.249151312418995 1.054300000000005 0 0 0
2160 3 12.459999999999994 10.276834791576 0 0 0 0
2162 1 14.239999999999995 9.249151312418995 1.054300000000005 0 0 0
2168 3 16.019999999999996 10.276834791576 0 0 0 0
2170 1 17.799999999999997 9.249151312418995 1.054300000000005 0 0 0
2176 3 19.58 10.276834791576 0 0 0 0
2178 1 21.36 9.249151312418995 1.054300000000005 0 0 0
2184 3 23.14 10.276834791576 0 0 0 0
2186 1 24.92 9.249151312418995 1.054300000000005 0 0 0
2192 3 26.700000000000003 10.276834791576 0 0 0 0
2194 1 28.47999999999999 9.249151312418995 1.054300000000005 0 0 0
2200 3 30.25999999999999 10.276834791576 0 0 0 0
2202 1 32.03999999999999 9.249151312418995 1.054300000000005 0 0 0
2208 3 33.81999999999999 10.276834791576 0 0 0 0
2210 1 35.599999999999994 9.249151312418995 1.054300000000005 0 0 0
2216 3 37.379999999999995 10.276834791576 0 0 0 0
2218 1 39.16 9.249151312418995 1.054300000000005 0 0 0
2224 3 40.94 10.276834791576 0 0 0 0
2226 1 42.72 9.249151312418995 1.054300000000005 0 0 0
2232 3 44.5 10.276834791576 0 0 0 0
2234 1 46.28 9.249151312418995 1.054300000000005 0 0 0
2240 3 48.06 10.276834791576 0 0 0 0
2018 1 49.84 9.249151312418995 1.054300000000005 -1 0 0
2024 3 51.620000000000005 10.276834791576 0 -1 0 0
2026 1 53.400000000000006 9.249151312418995 1.054300000000005 -1 0 0
2032 3 55.18000000000001 10.276834791576 0 -1 0 0
2034 1 56.96 9.249151312418995 1.054300000000005 -1 0 0
2040 3 58.74 10.276834791576 0 -1 0 0
2042 1 60.52 9.249151312418995 1.054300000000005 -1 0 0
2048 3 62.300000000000004 10.276834791576 0 -1 0 0
2050 1 64.08000000000001 9.249151312418995 1.054300000000005 -1 0 0
2056 3 65.86 10.276834791576 0 -1 0 0
2058 1 67.64 9.249151312418995 1.054300000000005 -1 0 0
2064 3 69.42 10.276834791576 0 -1 0 0
2066 1 71.2 9.249151312418995 1.054300000000005 -1 0 0
2072 3 72.98 10.276834791576 0 -1 0 0
2074 1 74.76 9.249151312418995 1.054300000000005 -1 0 0
2080 3 76.54 10.276834791576 0 -1 0 0
2082 1 78.32000000000001 9.249151312418995 1.054300000000005 -1 0 0
2088 3 80.10000000000001 10.276834791576 0 -1 0 0
2090 1 81.88 9.249151312418995 1.054300000000005 -1 0 0
2096 3 83.66 10.276834791576 0 -1 0 0
2098 1 85.44 9.249151312418995 1.054300000000005 -1 0 0
2104 3 87.22 10.276834791576 0 -1 0 0
2106 1 89 9.249151312418995 1.054300000000005 -1 0 0
2112 3 90.78 10.276834791576 0 -1 0 0
2114 1 92.56 9.249151312418995 1.054300000000005 -1 0 0
2120 3 94.34 10.276834791576 0 -1 0 0
2122 1 96.12 9.249151312418995 1.054300000000005 -1 0 0
2128 3 97.9 10.276834791576 0 -1 0 0
2353 1 1.779999999999994 12.332201749892 1.054300000000005 0 0 0
2361 1 5.339999999999996 12.332201749892 1.054300000000005 0 0 0
2369 1 8.899999999999999 12.332201749892 1.054300000000005 0 0 0
2377 1 12.459999999999994 12.332201749892 1.054300000000005 0 0 0
2385 1 16.019999999999996 12.332201749892 1.054300000000005 0 0 0
2393 1 19.58 12.332201749892 1.054300000000005 0 0 0
2401 1 23.14 12.332201749892 1.054300000000005 0 0 0
2409 1 26.700000000000003 12.332201749892 1.054300000000005 0 0 0
2417 1 30.25999999999999 12.332201749892 1.054300000000005 0 0 0
2425 1 33.81999999999999 12.332201749892 1.054300000000005 0 0 0
2433 1 37.379999999999995 12.332201749892 1.054300000000005 0 0 0
2441 1 40.94 12.332201749892 1.054300000000005 0 0 0
2449 1 44.5 12.332201749892 1.054300000000005 0 0 0
2457 1 48.06 12.332201749892 1.054300000000005 0 0 0
2241 1 51.620000000000005 12.332201749892 1.054300000000005 -1 0 0
2249 1 55.18000000000001 12.332201749892 1.054300000000005 -1 0 0
2257 1 58.74 12.332201749892 1.054300000000005 -1 0 0
2265 1 62.300000000000004 12.332201749892 1.054300000000005 -1 0 0
2273 1 65.86 12.332201749892 1.054300000000005 -1 0 0
2281 1 69.42 12.332201749892 1.054300000000005 -1 0 0
2289 1 72.98 12.332201749892 1.054300000000005 -1 0 0
2297 1 76.54 12.332201749892 1.054300000000005 -1 0 0
2305 1 80.10000000000001 12.332201749892 1.054300000000005 -1 0 0
2313 1 83.66 12.332201749892 1.054300000000005 -1 0 0
2321 1 87.22 12.332201749892 1.054300000000005 -1 0 0
2329 1 90.78 12.332201749892 1.054300000000005 -1 0 0
2337 1 94.34 12.332201749892 1.054300000000005 -1 0 0
2345 1 97.9 12.332201749892 1.054300000000005 -1 0 0
2359 3 0 13.359885229048999 0 0 0 0
2367 3 3.559999999999995 13.359885229048999 0 0 0 0
2375 3 7.119999999999997 13.359885229048999 0 0 0 0
2383 3 10.68 13.359885229048999 0 0 0 0
2391 3 14.239999999999995 13.359885229048999 0 0 0 0
2399 3 17.799999999999997 13.359885229048999 0 0 0 0
2407 3 21.36 13.359885229048999 0 0 0 0
2415 3 24.92 13.359885229048999 0 0 0 0
2423 3 28.47999999999999 13.359885229048999 0 0 0 0
2431 3 32.03999999999999 13.359885229048999 0 0 0 0
2439 3 35.599999999999994 13.359885229048999 0 0 0 0
2447 3 39.16 13.359885229048999 0 0 0 0
2455 3 42.72 13.359885229048999 0 0 0 0
2463 3 46.28 13.359885229048999 0 0 0 0
2247 3 49.84 13.359885229048999 0 -1 0 0
2255 3 53.400000000000006 13.359885229048999 0 -1 0 0
2263 3 56.96 13.359885229048999 0 -1 0 0
2271 3 60.52 13.359885229048999 0 -1 0 0
2279 3 64.08000000000001 13.359885229048999 0 -1 0 0
2287 3 67.64 13.359885229048999 0 -1 0 0
2295 3 71.2 13.359885229048999 0 -1 0 0
2303 3 74.76 13.359885229048999 0 -1 0 0
2311 3 78.32000000000001 13.359885229048999 0 -1 0 0
2319 3 81.88 13.359885229048999 0 -1 0 0
2327 3 85.44 13.359885229048999 0 -1 0 0
2335 3 89 13.359885229048999 0 -1 0 0
2343 3 92.56 13.359885229048999 0 -1 0 0
2351 3 96.12 13.359885229048999 0 -1 0 0
2354 1 0 15.415252187364999 1.054300000000005 0 0 0
2362 1 3.559999999999995 15.415252187364999 1.054300000000005 0 0 0
2370 1 7.119999999999997 15.415252187364999 1.054300000000005 0 0 0
2378 1 10.68 15.415252187364999 1.054300000000005 0 0 0
2386 1 14.239999999999995 15.415252187364999 1.054300000000005 0 0 0
2394 1 17.799999999999997 15.415252187364999 1.054300000000005 0 0 0
2402 1 21.36 15.415252187364999 1.054300000000005 0 0 0
2410 1 24.92 15.415252187364999 1.054300000000005 0 0 0
2418 1 28.47999999999999 15.415252187364999 1.054300000000005 0 0 0
2426 1 32.03999999999999 15.415252187364999 1.054300000000005 0 0 0
2434 1 35.599999999999994 15.415252187364999 1.054300000000005 0 0 0
2442 1 39.16 15.415252187364999 1.054300000000005 0 0 0
2450 1 42.72 15.415252187364999 1.054300000000005 0 0 0
2458 1 46.28 15.415252187364999 1.054300000000005 0 0 0
2242 1 49.84 15.415252187364999 1.054300000000005 -1 0 0
2250 1 53.400000000000006 15.415252187364999 1.054300000000005 -1 0 0
2258 1 56.96 15.415252187364999 1.054300000000005 -1 0 0
2266 1 60.52 15.415252187364999 1.054300000000005 -1 0 0
2274 1 64.08000000000001 15.415252187364999 1.054300000000005 -1 0 0
2282 1 67.64 15.415252187364999 1.054300000000005 -1 0 0
2290 1 71.2 15.415252187364999 1.054300000000005 -1 0 0
2298 1 74.76 15.415252187364999 1.054300000000005 -1 0 0
2306 1 78.32000000000001 15.415252187364999 1.054300000000005 -1 0 0
2314 1 81.88 15.415252187364999 1.054300000000005 -1 0 0
2322 1 85.44 15.415252187364999 1.054300000000005 -1 0 0
2330 1 89 15.415252187364999 1.054300000000005 -1 0 0
2338 1 92.56 15.415252187364999 1.054300000000005 -1 0 0
2346 1 96.12 15.415252187364999 1.054300000000005 -1 0 0
2360 3 1.779999999999994 16.442935666522004 0 0 0 0
2368 3 5.339999999999996 16.442935666522004 0 0 0 0
2376 3 8.899999999999999 16.442935666522004 0 0 0 0
2384 3 12.459999999999994 16.442935666522004 0 0 0 0
2392 3 16.019999999999996 16.442935666522004 0 0 0 0
2400 3 19.58 16.442935666522004 0 0 0 0
2408 3 23.14 16.442935666522004 0 0 0 0
2416 3 26.700000000000003 16.442935666522004 0 0 0 0
2424 3 30.25999999999999 16.442935666522004 0 0 0 0
2432 3 33.81999999999999 16.442935666522004 0 0 0 0
2440 3 37.379999999999995 16.442935666522004 0 0 0 0
2448 3 40.94 16.442935666522004 0 0 0 0
2456 3 44.5 16.442935666522004 0 0 0 0
2464 3 48.06 16.442935666522004 0 0 0 0
2248 3 51.620000000000005 16.442935666522004 0 -1 0 0
2256 3 55.18000000000001 16.442935666522004 0 -1 0 0
2264 3 58.74 16.442935666522004 0 -1 0 0
2272 3 62.300000000000004 16.442935666522004 0 -1 0 0
2280 3 65.86 16.442935666522004 0 -1 0 0
2288 3 69.42 16.442935666522004 0 -1 0 0
2296 3 72.98 16.442935666522004 0 -1 0 0
2304 3 76.54 16.442935666522004 0 -1 0 0
2312 3 80.10000000000001 16.442935666522004 0 -1 0 0
2320 3 83.66 16.442935666522004 0 -1 0 0
2328 3 87.22 16.442935666522004 0 -1 0 0
2336 3 90.78 16.442935666522004 0 -1 0 0
2344 3 94.34 16.442935666522004 0 -1 0 0
2352 3 97.9 16.442935666522004 0 -1 0 0
2583 3 0 19.525986103994995 0 0 0 0
2577 1 1.779999999999994 18.498302624838004 1.054300000000005 0 0 0
2591 3 3.559999999999995 19.525986103994995 0 0 0 0
2585 1 5.339999999999996 18.498302624838004 1.054300000000005 0 0 0
2599 3 7.119999999999997 19.525986103994995 0 0 0 0
2593 1 8.899999999999999 18.498302624838004 1.054300000000005 0 0 0
2607 3 10.68 19.525986103994995 0 0 0 0
2601 1 12.459999999999994 18.498302624838004 1.054300000000005 0 0 0
2615 3 14.239999999999995 19.525986103994995 0 0 0 0
2609 1 16.019999999999996 18.498302624838004 1.054300000000005 0 0 0
2623 3 17.799999999999997 19.525986103994995 0 0 0 0
2617 1 19.58 18.498302624838004 1.054300000000005 0 0 0
2631 3 21.36 19.525986103994995 0 0 0 0
2625 1 23.14 18.498302624838004 1.054300000000005 0 0 0
2639 3 24.92 19.525986103994995 0 0 0 0
2633 1 26.700000000000003 18.498302624838004 1.054300000000005 0 0 0
2647 3 28.47999999999999 19.525986103994995 0 0 0 0
2641 1 30.25999999999999 18.498302624838004 1.054300000000005 0 0 0
2655 3 32.03999999999999 19.525986103994995 0 0 0 0
2649 1 33.81999999999999 18.498302624838004 1.054300000000005 0 0 0
2663 3 35.599999999999994 19.525986103994995 0 0 0 0
2657 1 37.379999999999995 18.498302624838004 1.054300000000005 0 0 0
2671 3 39.16 19.525986103994995 0 0 0 0
2665 1 40.94 18.498302624838004 1.054300000000005 0 0 0
2679 3 42.72 19.525986103994995 0 0 0 0
2673 1 44.5 18.498302624838004 1.054300000000005 0 0 0
2687 3 46.28 19.525986103994995 0 0 0 0
2681 1 48.06 18.498302624838004 1.054300000000005 0 0 0
2471 3 49.84 19.525986103994995 0 -1 0 0
2465 1 51.620000000000005 18.498302624838004 1.054300000000005 -1 0 0
2479 3 53.400000000000006 19.525986103994995 0 -1 0 0
2473 1 55.18000000000001 18.498302624838004 1.054300000000005 -1 0 0
2487 3 56.96 19.525986103994995 0 -1 0 0
2481 1 58.74 18.498302624838004 1.054300000000005 -1 0 0
2495 3 60.52 19.525986103994995 0 -1 0 0
2489 1 62.300000000000004 18.498302624838004 1.054300000000005 -1 0 0
2503 3 64.08000000000001 19.525986103994995 0 -1 0 0
2497 1 65.86 18.498302624838004 1.054300000000005 -1 0 0
2511 3 67.64 19.525986103994995 0 -1 0 0
2505 1 69.42 18.498302624838004 1.054300000000005 -1 0 0
2519 3 71.2 19.525986103994995 0 -1 0 0
2513 1 72.98 18.498302624838004 1.054300000000005 -1 0 0
2527 3 74.76 19.525986103994995 0 -1 0 0
2521 1 76.54 18.498302624838004 1.054300000000005 -1 0 0
2535 3 78.32000000000001 19.525986103994995 0 -1 0 0
2529 1 80.10000000000001 18.498302624838004 1.054300000000005 -1 0 0
2543 3 81.88 19.525986103994995 0 -1 0 0
2537 1 83.66 18.498302624838004 1.054300000000005 -1 0 0
2551 3 85.44 19.525986103994995 0 -1 0 0
2545 1 87.22 18.498302624838004 1.054300000000005 -1 0 0
2559 3 89 19.525986103994995 0 -1 0 0
2553 1 90.78 18.498302624838004 1.054300000000005 -1 0 0
2567 3 92.56 19.525986103994995 0 -1 0 0
2561 1 94.34 18.498302624838004 1.054300000000005 -1 0 0
2575 3 96.12 19.525986103994995 0 -1 0 0
2569 1 97.9 18.498302624838004 1.054300000000005 -1 0 0
2578 1 0 21.581353062310995 1.054300000000005 0 0 0
2584 3 1.779999999999994 22.609036541468 0 0 0 0
2586 1 3.559999999999995 21.581353062310995 1.054300000000005 0 0 0
2592 3 5.339999999999996 22.609036541468 0 0 0 0
2594 1 7.119999999999997 21.581353062310995 1.054300000000005 0 0 0
2600 3 8.899999999999999 22.609036541468 0 0 0 0
2602 1 10.68 21.581353062310995 1.054300000000005 0 0 0
2608 3 12.459999999999994 22.609036541468 0 0 0 0
2610 1 14.239999999999995 21.581353062310995 1.054300000000005 0 0 0
2616 3 16.019999999999996 22.609036541468 0 0 0 0
2618 1 17.799999999999997 21.581353062310995 1.054300000000005 0 0 0
2624 3 19.58 22.609036541468 0 0 0 0
2626 1 21.36 21.581353062310995 1.054300000000005 0 0 0
2632 3 23.14 22.609036541468 0 0 0 0
2634 1 24.92 21.581353062310995 1.054300000000005 0 0 0
2640 3 26.700000000000003 22.609036541468 0 0 0 0
2642 1 28.47999999999999 21.581353062310995 1.054300000000005 0 0 0
2648 3 30.25999999999999 22.609036541468 0 0 0 0
2650 1 32.03999999999999 21.581353062310995 1.054300000000005 0 0 0
2656 3 33.81999999999999 22.609036541468 0 0 0 0
2658 1 35.599999999999994 21.581353062310995 1.054300000000005 0 0 0
2664 3 37.379999999999995 22.609036541468 0 0 0 0
2666 1 39.16 21.581353062310995 1.054300000000005 0 0 0
2672 3 40.94 22.609036541468 0 0 0 0
2674 1 42.72 21.581353062310995 1.054300000000005 0 0 0
2680 3 44.5 22.609036541468 0 0 0 0
2682 1 46.28 21.581353062310995 1.054300000000005 0 0 0
2688 3 48.06 22.609036541468 0 0 0 0
2466 1 49.84 21.581353062310995 1.054300000000005 -1 0 0
2472 3 51.620000000000005 22.609036541468 0 -1 0 0
2474 1 53.400000000000006 21.581353062310995 1.054300000000005 -1 0 0
2480 3 55.18000000000001 22.609036541468 0 -1 0 0
2482 1 56.96 21.581353062310995 1.054300000000005 -1 0 0
2488 3 58.74 22.609036541468 0 -1 0 0
2490 1 60.52 21.581353062310995 1.054300000000005 -1 0 0
2496 3 62.300000000000004 22.609036541468 0 -1 0 0
2498 1 64.08000000000001 21.581353062310995 1.054300000000005 -1 0 0
2504 3 65.86 22.609036541468 0 -1 0 0
2506 1 67.64 21.581353062310995 1.054300000000005 -1 0 0
2512 3 69.42 22.609036541468 0 -1 0 0
2514 1 71.2 21.581353062310995 1.054300000000005 -1 0 0
2520 3 72.98 22.609036541468 0 -1 0 0
2522 1 74.76 21.581353062310995 1.054300000000005 -1 0 0
2528 3 76.54 22.609036541468 0 -1 0 0
2530 1 78.32000000000001 21.581353062310995 1.054300000000005 -1 0 0
2536 3 80.10000000000001 22.609036541468 0 -1 0 0
2538 1 81.88 21.581353062310995 1.054300000000005 -1 0 0
2544 3 83.66 22.609036541468 0 -1 0 0
2546 1 85.44 21.581353062310995 1.054300000000005 -1 0 0
2552 3 87.22 22.609036541468 0 -1 0 0
2554 1 89 21.581353062310995 1.054300000000005 -1 0 0
2560 3 90.78 22.609036541468 0 -1 0 0
2562 1 92.56 21.581353062310995 1.054300000000005 -1 0 0
2568 3 94.34 22.609036541468 0 -1 0 0
2570 1 96.12 21.581353062310995 1.054300000000005 -1 0 0
2576 3 97.9 22.609036541468 0 -1 0 0
2801 1 1.779999999999994 24.664403499784 1.054300000000005 0 0 0
2809 1 5.339999999999996 24.664403499784 1.054300000000005 0 0 0
2817 1 8.899999999999999 24.664403499784 1.054300000000005 0 0 0
2825 1 12.459999999999994 24.664403499784 1.054300000000005 0 0 0
2833 1 16.019999999999996 24.664403499784 1.054300000000005 0 0 0
2841 1 19.58 24.664403499784 1.054300000000005 0 0 0
2849 1 23.14 24.664403499784 1.054300000000005 0 0 0
2857 1 26.700000000000003 24.664403499784 1.054300000000005 0 0 0
2865 1 30.25999999999999 24.664403499784 1.054300000000005 0 0 0
2873 1 33.81999999999999 24.664403499784 1.054300000000005 0 0 0
2881 1 37.379999999999995 24.664403499784 1.054300000000005 0 0 0
2889 1 40.94 24.664403499784 1.054300000000005 0 0 0
2897 1 44.5 24.664403499784 1.054300000000005 0 0 0
2905 1 48.06 24.664403499784 1.054300000000005 0 0 0
2689 1 51.620000000000005 24.664403499784 1.054300000000005 -1 0 0
2697 1 55.18000000000001 24.664403499784 1.054300000000005 -1 0 0
2705 1 58.74 24.664403499784 1.054300000000005 -1 0 0
2713 1 62.300000000000004 24.664403499784 1.054300000000005 -1 0 0
2721 1 65.86 24.664403499784 1.054300000000005 -1 0 0
2729 1 69.42 24.664403499784 1.054300000000005 -1 0 0
2737 1 72.98 24.664403499784 1.054300000000005 -1 0 0
2745 1 76.54 24.664403499784 1.054300000000005 -1 0 0
2753 1 80.10000000000001 24.664403499784 1.054300000000005 -1 0 0
2761 1 83.66 24.664403499784 1.054300000000005 -1 0 0
2769 1 87.22 24.664403499784 1.054300000000005 -1 0 0
2777 1 90.78 24.664403499784 1.054300000000005 -1 0 0
2785 1 94.34 24.664403499784 1.054300000000005 -1 0 0
2793 1 97.9 24.664403499784 1.054300000000005 -1 0 0
2807 3 0 25.692086978940992 0 0 0 0
2815 3 3.559999999999995 25.692086978940992 0 0 0 0
2823 3 7.119999999999997 25.692086978940992 0 0 0 0
2831 3 10.68 25.692086978940992 0 0 0 0
2839 3 14.239999999999995 25.692086978940992 0 0 0 0
2847 3 17.799999999999997 25.692086978940992 0 0 0 0
2855 3 21.36 25.692086978940992 0 0 0 0
2863 3 24.92 25.692086978940992 0 0 0 0
2871 3 28.47999999999999 25.692086978940992 0 0 0 0
2879 3 32.03999999999999 25.692086978940992 0 0 0 0
2887 3 35.599999999999994 25.692086978940992 0 0 0 0
2895 3 39.16 25.692086978940992 0 0 0 0
2903 3 42.72 25.692086978940992 0 0 0 0
2911 3 46.28 25.692086978940992 0 0 0 0
2695 3 49.84 25.692086978940992 0 -1 0 0
2703 3 53.400000000000006 25.692086978940992 0 -1 0 0
2711 3 56.96 25.692086978940992 0 -1 0 0
2719 3 60.52 25.692086978940992 0 -1 0 0
2727 3 64.08000000000001 25.692086978940992 0 -1 0 0
2735 3 67.64 25.692086978940992 0 -1 0 0
2743 3 71.2 25.692086978940992 0 -1 0 0
2751 3 74.76 25.692086978940992 0 -1 0 0
2759 3 78.32000000000001 25.692086978940992 0 -1 0 0
2767 3 81.88 25.692086978940992 0 -1 0 0
2775 3 85.44 25.692086978940992 0 -1 0 0
2783 3 89 25.692086978940992 0 -1 0 0
2791 3 92.56 25.692086978940992 0 -1 0 0
2799 3 96.12 25.692086978940992 0 -1 0 0
2802 1 0 27.747453937256992 1.054300000000005 0 0 0
2810 1 3.559999999999995 27.747453937256992 1.054300000000005 0 0 0
2818 1 7.119999999999997 27.747453937256992 1.054300000000005 0 0 0
2826 1 10.68 27.747453937256992 1.054300000000005 0 0 0
2834 1 14.239999999999995 27.747453937256992 1.054300000000005 0 0 0
2842 1 17.799999999999997 27.747453937256992 1.054300000000005 0 0 0
2850 1 21.36 27.747453937256992 1.054300000000005 0 0 0
2858 1 24.92 27.747453937256992 1.054300000000005 0 0 0
2866 1 28.47999999999999 27.747453937256992 1.054300000000005 0 0 0
2874 1 32.03999999999999 27.747453937256992 1.054300000000005 0 0 0
2882 1 35.599999999999994 27.747453937256992 1.054300000000005 0 0 0
2890 1 39.16 27.747453937256992 1.054300000000005 0 0 0
2898 1 42.72 27.747453937256992 1.054300000000005 0 0 0
2906 1 46.28 27.747453937256992 1.054300000000005 0 0 0
2690 1 49.84 27.747453937256992 1.054300000000005 -1 0 0
2698 1 53.400000000000006 27.747453937256992 1.054300000000005 -1 0 0
2706 1 56.96 27.747453937256992 1.054300000000005 -1 0 0
2714 1 60.52 27.747453937256992 1.054300000000005 -1 0 0
2722 1 64.08000000000001 27.747453937256992 1.054300000000005 -1 0 0
2730 1 67.64 27.747453937256992 1.054300000000005 -1 0 0
2738 1 71.2 27.747453937256992 1.054300000000005 -1 0 0
2746 1 74.76 27.747453937256992 1.054300000000005 -1 0 0
2754 1 78.32000000000001 27.747453937256992 1.054300000000005 -1 0 0
2762 1 81.88 27.747453937256992 1.054300000000005 -1 0 0
2770 1 85.44 27.747453937256992 1.054300000000005 -1 0 0
2778 1 89 27.747453937256992 1.054300000000005 -1 0 0
2786 1 92.56 27.747453937256992 1.054300000000005 -1 0 0
2794 1 96.12 27.747453937256992 1.054300000000005 -1 0 0
2808 3 1.779999999999994 28.775137416413997 0 0 0 0
2816 3 5.339999999999996 28.775137416413997 0 0 0 0
2824 3 8.899999999999999 28.775137416413997 0 0 0 0
2832 3 12.459999999999994 28.775137416413997 0 0 0 0
2840 3 16.019999999999996 28.775137416413997 0 0 0 0
2848 3 19.58 28.775137416413997 0 0 0 0
2856 3 23.14 28.775137416413997 0 0 0 0
2864 3 26.700000000000003 28.775137416413997 0 0 0 0
2872 3 30.25999999999999 28.775137416413997 0 0 0 0
2880 3 33.81999999999999 28.775137416413997 0 0 0 0
2888 3 37.379999999999995 28.775137416413997 0 0 0 0
2896 3 40.94 28.775137416413997 0 0 0 0
2904 3 44.5 28.775137416413997 0 0 0 0
2912 3 48.06 28.775137416413997 0 0 0 0
2696 3 51.620000000000005 28.775137416413997 0 -1 0 0
2704 3 55.18000000000001 28.775137416413997 0 -1 0 0
2712 3 58.74 28.775137416413997 0 -1 0 0
2720 3 62.300000000000004 28.775137416413997 0 -1 0 0
2728 3 65.86 28.775137416413997 0 -1 0 0
2736 3 69.42 28.775137416413997 0 -1 0 0
2744 3 72.98 28.775137416413997 0 -1 0 0
2752 3 76.54 28.775137416413997 0 -1 0 0
2760 3 80.10000000000001 28.775137416413997 0 -1 0 0
2768 3 83.66 28.775137416413997 0 -1 0 0
2776 3 87.22 28.775137416413997 0 -1 0 0
2784 3 90.78 28.775137416413997 0 -1 0 0
2792 3 94.34 28.775137416413997 0 -1 0 0
2800 3 97.9 28.775137416413997 0 -1 0 0
3031 3 0 31.858187853887003 0 0 0 0
3025 1 1.779999999999994 30.830504374729998 1.054300000000005 0 0 0
3039 3 3.559999999999995 31.858187853887003 0 0 0 0
3033 1 5.339999999999996 30.830504374729998 1.054300000000005 0 0 0
3047 3 7.119999999999997 31.858187853887003 0 0 0 0
3041 1 8.899999999999999 30.830504374729998 1.054300000000005 0 0 0
3055 3 10.68 31.858187853887003 0 0 0 0
3049 1 12.459999999999994 30.830504374729998 1.054300000000005 0 0 0
3063 3 14.239999999999995 31.858187853887003 0 0 0 0
3057 1 16.019999999999996 30.830504374729998 1.054300000000005 0 0 0
3071 3 17.799999999999997 31.858187853887003 0 0 0 0
3065 1 19.58 30.830504374729998 1.054300000000005 0 0 0
3079 3 21.36 31.858187853887003 0 0 0 0