LAMMPS data file via write_data, version 29 Aug 2024, timestep = 2, units = metal

2576 atoms
4 atom types

0 98.21 xlo xhi
0 103.54199727648 ylo yhi
-50 110.65537740581624 zlo zhi

Masses

1 118.71
2 118.71
3 72.63
4 72.63

Atoms # atomic

693 1 2.133494569108644 1.229891113595129 0.0074002720714201106 0 0 0
696 3 2.1320755848926893 3.693888004843709 0.7125855882563867 0 0 0
694 1 4.268494569108646 4.9278195877551285 0.0074002720714202355 0 0 0
697 1 6.403494569108648 1.2298911135951291 0.007400272071419986 0 0 0
701 1 10.673494569108646 1.2298911135951291 0.007400272071418641 0 0 0
700 3 6.402075584892693 3.693888004843709 0.7125855882563866 0 0 0
704 3 10.672075584892692 3.6938880048437084 0.7125855882563884 0 0 0
698 1 8.538494569108646 4.927819587755128 0.007400272071421886 0 0 0
705 1 14.943494569108646 1.2298911135951291 0.007400272071420109 0 0 0
708 3 14.942075584892692 3.693888004843709 0.7125855882563867 0 0 0
702 1 12.808494569108646 4.9278195877551285 0.007400272071419949 0 0 0
706 1 17.078494569108642 4.9278195877551285 0.007400272071420289 0 0 0
709 1 19.213494569108647 1.2298911135951294 0.00740027207141829 0 0 0
712 3 19.21207558489269 3.6938880048437084 0.7125855882563885 0 0 0
710 1 21.348494569108645 4.927819587755128 0.0074002720714229225 0 0 0
713 1 23.483494569108643 1.2298911135951291 0.007400272071418397 0 0 0
717 1 27.753494569108643 1.2298911135951285 0.007400272071421402 0 0 0
716 3 23.482075584892687 3.693888004843709 0.7125855882563883 0 0 0
720 3 27.75207558489269 3.6938880048437093 0.7125855882563854 0 0 0
714 1 25.61849456910865 4.9278195877551285 0.00740027207142031 0 0 0
721 1 32.02349456910865 1.229891113595129 0.007400272071418613 0 0 0
724 3 32.0220755848927 3.693888004843709 0.7125855882563883 0 0 0
718 1 29.888494569108644 4.9278195877551285 0.007400272071419966 0 0 0
722 1 34.15849456910865 4.927819587755128 0.0074002720714236355 0 0 0
725 1 36.293494569108645 1.2298911135951291 0.0074002720714183515 0 0 0
728 3 36.29207558489269 3.6938880048437084 0.7125855882563884 0 0 0
726 1 38.42849456910865 4.9278195877551285 0.007400272071419941 0 0 0
729 1 40.56349456910865 1.2298911135951283 0.007400272071421778 0 0 0
733 1 44.83349456910865 1.2298911135951296 0.007400272071418283 0 0 0
732 3 40.562075584892696 3.693888004843709 0.7125855882563857 0 0 0
736 3 44.83207558489269 3.6938880048437084 0.7125855882563887 0 0 0
730 1 42.69849456910865 4.9278195877551285 0.007400272071420103 0 0 0
645 1 49.10349456910865 1.2298911135951294 0.007400272071416971 -1 0 0
648 3 49.10207558489269 3.6938880048437084 0.71258558825639 -1 0 0
734 1 46.96849456910864 4.9278195877551285 0.0074002720714203335 0 0 0
646 1 51.23849456910864 4.9278195877551285 0.007400272071421098 -1 0 0
649 1 53.373494569108644 1.2298911135951294 0.007400272071419783 -1 0 0
653 1 57.64349456910864 1.2298911135951296 0.007400272071419795 -1 0 0
652 3 53.372075584892684 3.6938880048437093 0.7125855882563865 -1 0 0
656 3 57.64207558489269 3.6938880048437084 0.7125855882563873 -1 0 0
650 1 55.50849456910864 4.927819587755128 0.0074002720714206865 -1 0 0
657 1 61.91349456910864 1.229891113595129 0.007400272071419073 -1 0 0
660 3 61.91207558489269 3.6938880048437084 0.7125855882563885 -1 0 0
654 1 59.778494569108645 4.9278195877551285 0.007400272071421542 -1 0 0
661 1 66.18349456910865 1.2298911135951298 0.007400272071418048 -1 0 0
664 3 66.18207558489269 3.693888004843708 0.7125855882563892 -1 0 0
658 1 64.04849456910864 4.927819587755128 0.007400272071421801 -1 0 0
662 1 68.31849456910864 4.927819587755129 0.007400272071419155 -1 0 0
665 1 70.45349456910864 1.229891113595128 0.007400272071421744 -1 0 0
669 1 74.72349456910864 1.2298911135951298 0.007400272071417628 -1 0 0
668 3 70.45207558489268 3.6938880048437097 0.7125855882563853 -1 0 0
672 3 74.72207558489269 3.693888004843709 0.7125855882563878 -1 0 0
666 1 72.58849456910863 4.927819587755128 0.007400272071420643 -1 0 0
673 1 78.99349456910863 1.2298911135951278 0.007400272071419698 -1 0 0
676 3 78.99207558489269 3.6938880048437084 0.7125855882563887 -1 0 0
670 1 76.85849456910864 4.927819587755127 0.007400272071423612 -1 0 0
677 1 83.26349456910864 1.2298911135951296 0.007400272071420406 -1 0 0
680 3 83.2620755848927 3.6938880048437097 0.7125855882563851 -1 0 0
674 1 81.12849456910864 4.927819587755129 0.007400272071416815 -1 0 0
678 1 85.39849456910864 4.9278195877551285 0.007400272071422047 -1 0 0
681 1 87.53349456910864 1.2298911135951291 0.007400272071416286 -1 0 0
685 1 91.80349456910864 1.2298911135951294 0.007400272071420557 -1 0 0
684 3 87.53207558489268 3.693888004843707 0.7125855882563922 -1 0 0
688 3 91.80207558489268 3.6938880048437097 0.712585588256385 -1 0 0
682 1 89.66849456910865 4.927819587755128 0.007400272071423342 -1 0 0
690 1 98.20849456910864 4.927819587755128 0.007400272071423519 -1 0 0
689 1 96.07349456910863 1.2298911135951296 0.0074002720714184 -1 0 0
692 3 96.07207558489269 3.693888004843708 0.7125855882563891 -1 0 0
686 1 93.93849456910864 4.927819587755129 0.0074002720714169 -1 0 0
787 3 4.267075584892692 7.391816479003708 0.7125855882563881 0 0 0
785 1 2.133494569108644 8.625748061915129 0.007400272071421901 0 0 0
788 3 2.1320755848926893 11.089744953163708 0.7125855882563868 0 0 0
791 3 8.53707558489269 7.391816479003708 0.7125855882563863 0 0 0
789 1 6.403494569108648 8.625748061915129 0.007400272071421675 0 0 0
793 1 10.673494569108646 8.625748061915129 0.007400272071420336 0 0 0
792 3 6.402075584892693 11.089744953163708 0.7125855882563868 0 0 0
796 3 10.672075584892692 11.089744953163708 0.7125855882563886 0 0 0
795 3 12.807075584892692 7.391816479003708 0.7125855882563878 0 0 0
799 3 17.077075584892686 7.391816479003708 0.7125855882563883 0 0 0
797 1 14.943494569108646 8.625748061915129 0.007400272071421528 0 0 0
800 3 14.942075584892692 11.089744953163708 0.712585588256387 0 0 0
803 3 21.34707558489269 7.391816479003708 0.7125855882563848 0 0 0
801 1 19.213494569108647 8.625748061915129 0.007400272071420421 0 0 0
804 3 19.21207558489269 11.089744953163708 0.7125855882563885 0 0 0
807 3 25.617075584892692 7.391816479003708 0.7125855882563884 0 0 0
805 1 23.483494569108643 8.625748061915129 0.007400272071420426 0 0 0
809 1 27.753494569108646 8.625748061915129 0.007400272071423135 0 0 0
808 3 23.482075584892687 11.089744953163708 0.7125855882563883 0 0 0
812 3 27.75207558489269 11.08974495316371 0.7125855882563854 0 0 0
811 3 29.88707558489269 7.391816479003708 0.7125855882563878 0 0 0
815 3 34.157075584892695 7.391816479003708 0.7125855882563854 0 0 0
813 1 32.02349456910865 8.625748061915129 0.007400272071420389 0 0 0
816 3 32.0220755848927 11.089744953163708 0.7125855882563884 0 0 0
819 3 38.4270755848927 7.391816479003708 0.7125855882563876 0 0 0
817 1 36.293494569108645 8.625748061915129 0.0074002720714200845 0 0 0
820 3 36.29207558489269 11.089744953163708 0.7125855882563885 0 0 0
823 3 42.697075584892694 7.391816479003708 0.7125855882563881 0 0 0
821 1 40.56349456910865 8.625748061915129 0.007400272071423811 0 0 0
825 1 44.83349456910865 8.62574806191513 0.007400272071420022 0 0 0
824 3 40.562075584892696 11.08974495316371 0.7125855882563858 0 0 0
828 3 44.83207558489269 11.089744953163708 0.7125855882563888 0 0 0
827 3 46.96707558489269 7.391816479003707 0.7125855882563888 0 0 0
739 3 51.237075584892686 7.391816479003708 0.7125855882563865 -1 0 0
737 1 49.10349456910865 8.62574806191513 0.0074002720714185875 -1 0 0
740 3 49.10207558489269 11.089744953163708 0.7125855882563901 -1 0 0
743 3 55.50707558489269 7.391816479003708 0.7125855882563882 -1 0 0
741 1 53.373494569108644 8.625748061915129 0.007400272071421547 -1 0 0
745 1 57.64349456910864 8.625748061915129 0.007400272071421492 -1 0 0
744 3 53.372075584892684 11.089744953163708 0.7125855882563867 -1 0 0
748 3 57.64207558489269 11.089744953163708 0.7125855882563875 -1 0 0
747 3 59.777075584892685 7.391816479003709 0.7125855882563863 -1 0 0
749 1 61.91349456910864 8.625748061915129 0.007400272071420857 -1 0 0
752 3 61.91207558489269 11.089744953163708 0.7125855882563886 -1 0 0
751 3 64.0470755848927 7.391816479003707 0.7125855882563873 -1 0 0
755 3 68.31707558489269 7.391816479003708 0.7125855882563877 -1 0 0
753 1 66.18349456910865 8.62574806191513 0.00740027207141968 -1 0 0
756 3 66.18207558489269 11.089744953163706 0.7125855882563893 -1 0 0
759 3 72.58707558489269 7.391816479003707 0.7125855882563888 -1 0 0
757 1 70.45349456910864 8.625748061915129 0.007400272071423777 -1 0 0
761 1 74.72349456910864 8.62574806191513 0.007400272071419353 -1 0 0
760 3 70.45207558489268 11.08974495316371 0.7125855882563854 -1 0 0
764 3 74.72207558489269 11.089744953163708 0.7125855882563878 -1 0 0
763 3 76.85707558489268 7.391816479003709 0.7125855882563846 -1 0 0
765 1 78.99349456910863 8.625748061915129 0.007400272071421431 -1 0 0
768 3 78.99207558489269 11.089744953163708 0.7125855882563888 -1 0 0
767 3 81.1270755848927 7.391816479003707 0.7125855882563911 -1 0 0
771 3 85.39707558489268 7.391816479003709 0.7125855882563848 -1 0 0
769 1 83.26349456910864 8.625748061915129 0.007400272071422051 -1 0 0
772 3 83.2620755848927 11.089744953163708 0.7125855882563852 -1 0 0
775 3 89.6670755848927 7.391816479003709 0.7125855882563848 -1 0 0
773 1 87.53349456910864 8.62574806191513 0.0074002720714178545 -1 0 0
777 1 91.80349456910864 8.625748061915129 0.00740027207142221 -1 0 0
776 3 87.53207558489268 11.089744953163706 0.7125855882563924 -1 0 0
780 3 91.80207558489268 11.089744953163708 0.7125855882563852 -1 0 0
783 3 98.20707558489268 7.391816479003709 0.7125855882563848 -1 0 0
779 3 93.93707558489268 7.391816479003706 0.7125855882563926 -1 0 0
781 1 96.07349456910863 8.62574806191513 0.007400272071420115 -1 0 0
784 3 96.07207558489269 11.089744953163706 0.7125855882563893 -1 0 0
786 1 4.268494569108646 12.323676536075128 0.007400272071418477 0 0 0
877 1 2.133494569108644 16.02160501023513 0.007400272071423164 0 0 0
879 3 4.267075584892692 14.787673427323709 0.7125855882563897 0 0 0
790 1 8.538494569108646 12.323676536075126 0.007400272071420009 0 0 0
881 1 6.403494569108648 16.02160501023513 0.007400272071422897 0 0 0
883 3 8.53707558489269 14.787673427323709 0.7125855882563877 0 0 0
885 1 10.673494569108646 16.02160501023513 0.00740027207142142 0 0 0
794 1 12.808494569108646 12.323676536075126 0.00740027207141831 0 0 0
798 1 17.078494569108642 12.323676536075126 0.007400272071418584 0 0 0
887 3 12.807075584892692 14.787673427323709 0.7125855882563892 0 0 0
889 1 14.943494569108646 16.02160501023513 0.007400272071422696 0 0 0
891 3 17.077075584892686 14.787673427323709 0.71258558825639 0 0 0
802 1 21.348494569108645 12.323676536075126 0.007400272071420976 0 0 0
893 1 19.213494569108647 16.02160501023513 0.007400272071421421 0 0 0
895 3 21.34707558489269 14.787673427323709 0.7125855882563863 0 0 0
806 1 25.61849456910865 12.323676536075126 0.00740027207141819 0 0 0
897 1 23.483494569108643 16.02160501023513 0.0074002720714215955 0 0 0
899 3 25.617075584892692 14.787673427323709 0.7125855882563898 0 0 0
901 1 27.753494569108646 16.021605010235128 0.007400272071424074 0 0 0
810 1 29.888494569108644 12.323676536075126 0.007400272071417897 0 0 0
814 1 34.15849456910865 12.323676536075126 0.00740027207142168 0 0 0
903 3 29.88707558489269 14.787673427323709 0.7125855882563894 0 0 0
905 1 32.02349456910865 16.02160501023513 0.00740027207142156 0 0 0
907 3 34.157075584892695 14.787673427323709 0.7125855882563868 0 0 0
818 1 38.42849456910865 12.323676536075126 0.007400272071417796 0 0 0
909 1 36.293494569108645 16.02160501023513 0.007400272071421193 0 0 0
911 3 38.4270755848927 14.787673427323709 0.7125855882563892 0 0 0
822 1 42.69849456910865 12.323676536075126 0.007400272071418009 0 0 0
913 1 40.56349456910865 16.021605010235128 0.007400272071424825 0 0 0
915 3 42.697075584892694 14.787673427323709 0.7125855882563896 0 0 0
917 1 44.83349456910865 16.02160501023513 0.0074002720714211245 0 0 0
826 1 46.96849456910864 12.323676536075126 0.007400272071418481 0 0 0
738 1 51.23849456910864 12.323676536075126 0.007400272071419304 -1 0 0
919 3 46.96707558489269 14.787673427323707 0.7125855882563902 0 0 0
829 1 49.10349456910865 16.02160501023513 0.007400272071419901 -1 0 0
831 3 51.237075584892686 14.787673427323709 0.7125855882563882 -1 0 0
742 1 55.50849456910864 12.323676536075126 0.007400272071418936 -1 0 0
833 1 53.373494569108644 16.02160501023513 0.007400272071422857 -1 0 0
835 3 55.50707558489269 14.787673427323709 0.71258558825639 -1 0 0
837 1 57.64349456910864 16.02160501023513 0.0074002720714227655 -1 0 0
746 1 59.77849456910864 12.323676536075126 0.007400272071419682 -1 0 0
839 3 59.777075584892685 14.787673427323709 0.7125855882563877 -1 0 0
841 1 61.91349456910864 16.02160501023513 0.007400272071421966 -1 0 0
750 1 64.04849456910864 12.323676536075126 0.007400272071419995 -1 0 0
754 1 68.31849456910864 12.323676536075128 0.007400272071417063 -1 0 0
843 3 64.0470755848927 14.787673427323709 0.7125855882563886 -1 0 0
845 1 66.18349456910865 16.02160501023513 0.0074002720714208044 -1 0 0
847 3 68.31707558489269 14.787673427323709 0.7125855882563893 -1 0 0
758 1 72.58849456910863 12.323676536075126 0.007400272071418571 -1 0 0
849 1 70.45349456910864 16.021605010235128 0.007400272071424789 -1 0 0
851 3 72.58707558489269 14.787673427323707 0.7125855882563903 -1 0 0
853 1 74.72349456910864 16.02160501023513 0.007400272071420454 -1 0 0
762 1 76.85849456910864 12.323676536075126 0.007400272071421703 -1 0 0
855 3 76.85707558489268 14.78767342732371 0.7125855882563862 -1 0 0
857 1 78.99349456910863 16.021605010235128 0.00740027207142248 -1 0 0
766 1 81.12849456910864 12.323676536075128 0.0074002720714150694 -1 0 0
770 1 85.39849456910864 12.323676536075128 0.007400272071420219 -1 0 0
859 3 81.1270755848927 14.787673427323707 0.7125855882563926 -1 0 0
861 1 83.26349456910864 16.02160501023513 0.007400272071423169 -1 0 0
863 3 85.39707558489268 14.787673427323709 0.7125855882563863 -1 0 0
774 1 89.66849456910865 12.323676536075126 0.0074002720714214975 -1 0 0
865 1 87.53349456910864 16.02160501023513 0.00740027207141904 -1 0 0
867 3 89.6670755848927 14.787673427323709 0.7125855882563863 -1 0 0
869 1 91.80349456910864 16.02160501023513 0.007400272071423254 -1 0 0
782 1 98.20849456910864 12.323676536075126 0.007400272071421661 -1 0 0
875 3 98.20707558489268 14.787673427323709 0.7125855882563864 -1 0 0
778 1 93.93849456910864 12.323676536075128 0.00740027207141507 -1 0 0
871 3 93.93707558489268 14.787673427323707 0.712585588256394 -1 0 0
873 1 96.07349456910863 16.02160501023513 0.007400272071421108 -1 0 0
880 3 2.1320755848926893 18.485601901483708 0.712585588256385 0 0 0
878 1 4.268494569108646 19.71953348439513 0.0074002720714185935 0 0 0
971 3 4.267075584892692 22.18353037564371 0.7125855882563898 0 0 0
884 3 6.4020755848926925 18.485601901483708 0.712585588256385 0 0 0
888 3 10.672075584892692 18.485601901483705 0.7125855882563868 0 0 0
882 1 8.538494569108646 19.71953348439513 0.007400272071420342 0 0 0
975 3 8.53707558489269 22.18353037564371 0.7125855882563878 0 0 0
892 3 14.942075584892692 18.485601901483708 0.7125855882563851 0 0 0
886 1 12.808494569108646 19.71953348439513 0.007400272071418345 0 0 0
890 1 17.078494569108642 19.71953348439513 0.007400272071418592 0 0 0
979 3 12.807075584892692 22.18353037564371 0.7125855882563895 0 0 0
983 3 17.077075584892686 22.18353037564371 0.71258558825639 0 0 0
896 3 19.21207558489269 18.485601901483708 0.712585588256387 0 0 0
894 1 21.348494569108645 19.71953348439513 0.00740027207142123 0 0 0
987 3 21.34707558489269 22.183530375643713 0.7125855882563866 0 0 0
900 3 23.482075584892687 18.485601901483708 0.7125855882563866 0 0 0
904 3 27.75207558489269 18.485601901483708 0.7125855882563839 0 0 0
898 1 25.61849456910865 19.71953348439513 0.007400272071418712 0 0 0
991 3 25.617075584892692 22.18353037564371 0.71258558825639 0 0 0
908 3 32.0220755848927 18.485601901483708 0.7125855882563867 0 0 0
902 1 29.888494569108644 19.71953348439513 0.007400272071418306 0 0 0
906 1 34.15849456910865 19.719533484395125 0.0074002720714218765 0 0 0
995 3 29.88707558489269 22.183530375643713 0.7125855882563894 0 0 0
999 3 34.157075584892695 22.183530375643713 0.7125855882563872 0 0 0
912 3 36.29207558489269 18.485601901483705 0.7125855882563868 0 0 0
910 1 38.42849456910865 19.71953348439513 0.007400272071418337 0 0 0
1003 3 38.4270755848927 22.183530375643713 0.7125855882563894 0 0 0
916 3 40.562075584892696 18.485601901483708 0.7125855882563842 0 0 0
920 3 44.83207558489269 18.485601901483705 0.7125855882563872 0 0 0
914 1 42.69849456910865 19.71953348439513 0.007400272071418431 0 0 0
1007 3 42.697075584892694 22.18353037564371 0.7125855882563898 0 0 0
832 3 49.10207558489269 18.485601901483705 0.7125855882563883 -1 0 0
918 1 46.96849456910864 19.71953348439513 0.007400272071418456 0 0 0
830 1 51.238494569108646 19.71953348439513 0.007400272071419526 -1 0 0
1011 3 46.96707558489269 22.18353037564371 0.7125855882563906 0 0 0
923 3 51.237075584892686 22.18353037564371 0.7125855882563882 -1 0 0
836 3 53.372075584892684 18.485601901483708 0.7125855882563848 -1 0 0
840 3 57.64207558489269 18.485601901483708 0.7125855882563855 -1 0 0
834 1 55.50849456910864 19.71953348439513 0.007400272071418926 -1 0 0
927 3 55.50707558489269 22.18353037564371 0.7125855882563901 -1 0 0
844 3 61.91207558489269 18.485601901483705 0.7125855882563871 -1 0 0
838 1 59.778494569108645 19.71953348439513 0.007400272071419991 -1 0 0
931 3 59.777075584892685 22.183530375643713 0.7125855882563878 -1 0 0
848 3 66.18207558489269 18.485601901483705 0.7125855882563876 -1 0 0
842 1 64.04849456910864 19.71953348439513 0.007400272071420341 -1 0 0
846 1 68.31849456910864 19.71953348439513 0.007400272071417597 -1 0 0
935 3 64.0470755848927 22.18353037564371 0.7125855882563887 -1 0 0
939 3 68.31707558489269 22.183530375643713 0.7125855882563893 -1 0 0
852 3 70.45207558489268 18.485601901483708 0.7125855882563837 -1 0 0
856 3 74.72207558489269 18.485601901483708 0.7125855882563863 -1 0 0
850 1 72.58849456910863 19.71953348439513 0.0074002720714189795 -1 0 0
943 3 72.58707558489269 22.18353037564371 0.7125855882563905 -1 0 0
860 3 78.99207558489269 18.485601901483705 0.7125855882563872 -1 0 0
854 1 76.85849456910864 19.719533484395125 0.007400272071421902 -1 0 0
947 3 76.85707558489268 22.183530375643713 0.7125855882563864 -1 0 0
864 3 83.2620755848927 18.485601901483708 0.7125855882563836 -1 0 0
858 1 81.12849456910864 19.71953348439513 0.007400272071415326 -1 0 0
862 1 85.39849456910864 19.71953348439513 0.007400272071420371 -1 0 0
951 3 81.1270755848927 22.18353037564371 0.7125855882563926 -1 0 0
955 3 85.39707558489268 22.183530375643713 0.7125855882563866 -1 0 0
868 3 87.53207558489268 18.485601901483705 0.7125855882563904 -1 0 0
872 3 91.80207558489268 18.485601901483708 0.7125855882563834 -1 0 0
866 1 89.66849456910865 19.719533484395125 0.007400272071421605 -1 0 0
959 3 89.6670755848927 22.183530375643713 0.7125855882563867 -1 0 0
874 1 98.20849456910864 19.719533484395125 0.007400272071421708 -1 0 0
967 3 98.20707558489268 22.183530375643713 0.7125855882563866 -1 0 0
876 3 96.07207558489269 18.485601901483705 0.7125855882563876 -1 0 0
870 1 93.93849456910864 19.71953348439513 0.00740027207141546 -1 0 0
963 3 93.93707558489268 22.18353037564371 0.7125855882563941 -1 0 0
969 1 2.133494569108644 23.417461958555126 0.007400272071422794 0 0 0
972 3 2.1320755848926893 25.881458849803707 0.712585588256388 0 0 0
970 1 4.268494569108646 27.11539043271513 0.007400272071418195 0 0 0
973 1 6.403494569108648 23.41746195855513 0.007400272071422474 0 0 0
977 1 10.673494569108646 23.41746195855513 0.007400272071420949 0 0 0
976 3 6.4020755848926925 25.881458849803707 0.712585588256388 0 0 0
980 3 10.672075584892692 25.881458849803703 0.7125855882563898 0 0 0
974 1 8.538494569108646 27.11539043271513 0.00740027207141992 0 0 0
981 1 14.943494569108646 23.41746195855513 0.007400272071422374 0 0 0
984 3 14.942075584892692 25.881458849803707 0.7125855882563881 0 0 0
978 1 12.808494569108646 27.11539043271513 0.0074002720714179985 0 0 0
982 1 17.078494569108642 27.11539043271513 0.0074002720714180905 0 0 0
985 1 19.213494569108647 23.41746195855513 0.007400272071421106 0 0 0
988 3 19.21207558489269 25.881458849803703 0.7125855882563897 0 0 0
986 1 21.34849456910864 27.115390432715127 0.007400272071421153 0 0 0
989 1 23.483494569108643 23.41746195855513 0.0074002720714211314 0 0 0
993 1 27.753494569108646 23.41746195855513 0.007400272071423561 0 0 0
992 3 23.482075584892687 25.881458849803707 0.7125855882563894 0 0 0
996 3 27.75207558489269 25.881458849803707 0.7125855882563868 0 0 0
990 1 25.61849456910865 27.11539043271513 0.007400272071418518 0 0 0
997 1 32.02349456910865 23.41746195855513 0.007400272071421097 0 0 0
1000 3 32.0220755848927 25.881458849803707 0.7125855882563895 0 0 0
994 1 29.888494569108644 27.11539043271513 0.007400272071418168 0 0 0
998 1 34.15849456910865 27.115390432715127 0.007400272071421551 0 0 0
1001 1 36.293494569108645 23.41746195855513 0.007400272071420793 0 0 0
1004 3 36.29207558489269 25.881458849803703 0.7125855882563897 0 0 0
1002 1 38.42849456910865 27.11539043271513 0.007400272071418149 0 0 0
1005 1 40.56349456910865 23.417461958555126 0.00740027207142431 0 0 0
1009 1 44.83349456910865 23.41746195855513 0.007400272071420577 0 0 0
1008 3 40.562075584892696 25.881458849803707 0.7125855882563873 0 0 0
1012 3 44.83207558489269 25.881458849803703 0.7125855882563901 0 0 0
1006 1 42.69849456910865 27.11539043271513 0.007400272071418291 0 0 0
921 1 49.10349456910865 23.41746195855513 0.007400272071419427 -1 0 0
924 3 49.10207558489269 25.881458849803703 0.712585588256391 -1 0 0
1010 1 46.96849456910864 27.11539043271513 0.007400272071418273 0 0 0
922 1 51.23849456910864 27.11539043271513 0.007400272071419162 -1 0 0
925 1 53.373494569108644 23.41746195855513 0.007400272071422328 -1 0 0
929 1 57.64349456910864 23.41746195855513 0.007400272071422284 -1 0 0
928 3 53.372075584892684 25.881458849803707 0.712585588256388 -1 0 0
932 3 57.64207558489269 25.881458849803703 0.7125855882563886 -1 0 0
926 1 55.50849456910864 27.11539043271513 0.007400272071418572 -1 0 0
933 1 61.91349456910864 23.41746195855513 0.0074002720714213925 -1 0 0
936 3 61.91207558489269 25.881458849803703 0.7125855882563901 -1 0 0
930 1 59.778494569108645 27.11539043271513 0.007400272071419636 -1 0 0
937 1 66.18349456910865 23.41746195855513 0.007400272071420277 -1 0 0
940 3 66.18207558489269 25.881458849803703 0.7125855882563904 -1 0 0
934 1 64.04849456910864 27.11539043271513 0.007400272071420053 -1 0 0
938 1 68.31849456910864 27.11539043271513 0.007400272071417397 -1 0 0
941 1 70.45349456910864 23.417461958555126 0.007400272071424273 -1 0 0
945 1 74.72349456910864 23.41746195855513 0.007400272071420061 -1 0 0
944 3 70.45207558489268 25.881458849803707 0.7125855882563868 -1 0 0
948 3 74.72207558489269 25.881458849803707 0.7125855882563891 -1 0 0
942 1 72.58849456910863 27.115390432715127 0.0074002720714188425 -1 0 0
949 1 78.99349456910863 23.417461958555126 0.007400272071422068 -1 0 0
952 3 78.99207558489269 25.881458849803703 0.71258558825639 -1 0 0
946 1 76.85849456910864 27.115390432715127 0.007400272071421577 -1 0 0
953 1 83.26349456910864 23.41746195855513 0.00740027207142274 -1 0 0
956 3 83.2620755848927 25.881458849803707 0.7125855882563863 -1 0 0
950 1 81.12849456910864 27.11539043271513 0.007400272071415356 -1 0 0
954 1 85.39849456910864 27.11539043271513 0.007400272071420358 -1 0 0
957 1 87.53349456910864 23.41746195855513 0.007400272071418557 -1 0 0
961 1 91.80349456910864 23.41746195855513 0.007400272071422791 -1 0 0
960 3 87.53207558489268 25.881458849803703 0.7125855882563932 -1 0 0
964 3 91.80207558489268 25.881458849803707 0.7125855882563862 -1 0 0
958 1 89.66849456910865 27.115390432715127 0.0074002720714215955 -1 0 0
966 1 98.20849456910864 27.115390432715127 0.007400272071421386 -1 0 0
965 1 96.07349456910863 23.41746195855513 0.007400272071420697 -1 0 0
968 3 96.07207558489269 25.881458849803703 0.7125855882563905 -1 0 0
962 1 93.93849456910864 27.11539043271513 0.007400272071415476 -1 0 0
1061 1 2.133494569108644 30.81331890687512 0.007400272071420045 0 0 0
1063 3 4.267075584892692 29.579387323963704 0.7125855882563874 0 0 0
1064 3 2.132075584892689 33.27731579812371 0.7125855882563881 0 0 0
1062 1 4.268494569108647 34.511247381035126 0.007400272071422258 0 0 0
1065 1 6.403494569108648 30.81331890687512 0.007400272071419717 0 0 0
1067 3 8.53707558489269 29.579387323963708 0.7125855882563855 0 0 0
1069 1 10.673494569108646 30.813318906875125 0.0074002720714185614 0 0 0
1068 3 6.402075584892693 33.2773157981237 0.712585588256388 0 0 0
1066 1 8.538494569108646 34.511247381035126 0.007400272071423389 0 0 0
1072 3 10.672075584892692 33.27731579812371 0.71258558825639 0 0 0
1071 3 12.807075584892692 29.579387323963704 0.7125855882563872 0 0 0
1073 1 14.943494569108646 30.81331890687512 0.007400272071419647 0 0 0
1075 3 17.077075584892686 29.579387323963704 0.7125855882563876 0 0 0
1070 1 12.808494569108646 34.511247381035126 0.007400272071421904 0 0 0
1076 3 14.942075584892692 33.2773157981237 0.7125855882563883 0 0 0
1074 1 17.078494569108642 34.511247381035126 0.007400272071422219 0 0 0
1077 1 19.213494569108647 30.813318906875125 0.007400272071418725 0 0 0
1079 3 21.34707558489269 29.579387323963708 0.7125855882563843 0 0 0
1080 3 19.21207558489269 33.27731579812371 0.71258558825639 0 0 0
1078 1 21.348494569108645 34.511247381035126 0.007400272071424037 0 0 0
1081 1 23.483494569108643 30.813318906875125 0.007400272071418747 0 0 0
1083 3 25.617075584892692 29.579387323963704 0.7125855882563876 0 0 0
1085 1 27.753494569108646 30.813318906875125 0.007400272071421637 0 0 0
1084 3 23.482075584892687 33.27731579812371 0.7125855882563897 0 0 0
1082 1 25.61849456910865 34.511247381035126 0.007400272071421916 0 0 0
1088 3 27.75207558489269 33.27731579812371 0.7125855882563871 0 0 0
1087 3 29.88707558489269 29.579387323963708 0.7125855882563871 0 0 0
1089 1 32.02349456910865 30.813318906875125 0.007400272071418695 0 0 0
1091 3 34.157075584892695 29.579387323963708 0.7125855882563848 0 0 0
1086 1 29.888494569108644 34.511247381035126 0.007400272071421571 0 0 0
1092 3 32.0220755848927 33.27731579812371 0.7125855882563898 0 0 0
1090 1 34.15849456910865 34.511247381035126 0.0074002720714247934 0 0 0
1093 1 36.293494569108645 30.813318906875125 0.007400272071418402 0 0 0
1095 3 38.4270755848927 29.579387323963708 0.712585588256387 0 0 0
1096 3 36.29207558489269 33.27731579812371 0.7125855882563901 0 0 0
1094 1 38.42849456910865 34.511247381035126 0.007400272071421551 0 0 0
1097 1 40.56349456910865 30.813318906875125 0.007400272071422314 0 0 0
1099 3 42.697075584892694 29.579387323963704 0.7125855882563873 0 0 0
1101 1 44.83349456910865 30.813318906875125 0.007400272071418221 0 0 0
1100 3 40.562075584892696 33.27731579812371 0.7125855882563875 0 0 0
1098 1 42.69849456910865 34.511247381035126 0.007400272071421683 0 0 0
1104 3 44.83207558489269 33.27731579812371 0.7125855882563905 0 0 0
1103 3 46.96707558489269 29.579387323963704 0.7125855882563882 0 0 0
1013 1 49.10349456910865 30.813318906875125 0.007400272071417031 -1 0 0
1015 3 51.237075584892686 29.579387323963704 0.7125855882563858 -1 0 0
1102 1 46.96849456910864 34.511247381035126 0.0074002720714218 0 0 0
1016 3 49.10207558489269 33.27731579812371 0.7125855882563913 -1 0 0
1014 1 51.238494569108646 34.511247381035126 0.00740027207142251 -1 0 0
1017 1 53.373494569108644 30.81331890687512 0.007400272071419583 -1 0 0
1019 3 55.50707558489269 29.579387323963704 0.7125855882563876 -1 0 0
1021 1 57.64349456910864 30.81331890687512 0.007400272071419534 -1 0 0
1020 3 53.372075584892684 33.27731579812371 0.712585588256388 -1 0 0
1018 1 55.50849456910864 34.511247381035126 0.007400272071422631 -1 0 0
1024 3 57.64207558489269 33.2773157981237 0.7125855882563886 -1 0 0
1023 3 59.777075584892685 29.579387323963708 0.7125855882563854 -1 0 0
1025 1 61.91349456910864 30.813318906875125 0.007400272071418964 -1 0 0
1022 1 59.77849456910864 34.511247381035126 0.007400272071423119 -1 0 0
1028 3 61.91207558489269 33.27731579812371 0.71258558825639 -1 0 0
1027 3 64.0470755848927 29.579387323963704 0.7125855882563864 -1 0 0
1029 1 66.18349456910865 30.813318906875125 0.007400272071417902 -1 0 0
1031 3 68.31707558489269 29.579387323963708 0.712585588256387 -1 0 0
1026 1 64.04849456910864 34.511247381035126 0.007400272071423235 -1 0 0
1032 3 66.18207558489269 33.27731579812371 0.7125855882563908 -1 0 0
1030 1 68.31849456910864 34.511247381035126 0.00740027207142081 -1 0 0
1033 1 70.45349456910864 30.813318906875125 0.007400272071422284 -1 0 0
1035 3 72.58707558489269 29.579387323963704 0.7125855882563881 -1 0 0
1037 1 74.72349456910864 30.813318906875125 0.0074002720714176585 -1 0 0
1036 3 70.45207558489268 33.27731579812371 0.712585588256387 -1 0 0
1034 1 72.58849456910863 34.511247381035126 0.0074002720714223145 -1 0 0
1040 3 74.72207558489269 33.27731579812371 0.7125855882563893 -1 0 0
1039 3 76.85707558489268 29.579387323963708 0.7125855882563841 -1 0 0
1041 1 78.99349456910863 30.81331890687512 0.007400272071419657 -1 0 0
1038 1 76.85849456910864 34.511247381035126 0.007400272071424772 -1 0 0
1044 3 78.99207558489269 33.27731579812371 0.7125855882563901 -1 0 0
1043 3 81.1270755848927 29.579387323963704 0.7125855882563904 -1 0 0
1045 1 83.26349456910864 30.813318906875125 0.007400272071420752 -1 0 0
1047 3 85.39707558489268 29.579387323963708 0.7125855882563842 -1 0 0
1042 1 81.12849456910864 34.511247381035126 0.007400272071418204 -1 0 0
1048 3 83.2620755848927 33.27731579812371 0.7125855882563864 -1 0 0
1046 1 85.39849456910864 34.511247381035126 0.0074002720714233545 -1 0 0
1049 1 87.53349456910864 30.81331890687512 0.007400272071415734 -1 0 0
1051 3 89.6670755848927 29.579387323963708 0.7125855882563844 -1 0 0
1053 1 91.80349456910864 30.813318906875125 0.007400272071420787 -1 0 0