LAMMPS data file via write_data, version 29 Aug 2024, timestep = 2, units = metal

3864 atoms
6 atom types

0 98.21 xlo xhi
0 103.54199727648 ylo yhi
-50 115.31075481163246 zlo zhi

Masses

1 118.71
2 118.71
3 118.71
4 72.63
5 72.63
6 72.63

Atoms # atomic

693 1 2.1339878783464945 1.2305519201066164 0.007247455232056441 0 0 0
696 4 2.1322115674545823 3.694199716266465 0.7149812888505352 0 0 0
694 1 4.268987878346496 4.928480394266616 0.007247455232056677 0 0 0
697 1 6.403987878346498 1.2305519201066168 0.007247455232056473 0 0 0
701 1 10.673987878346496 1.2305519201066175 0.007247455232055006 0 0 0
700 4 6.402211567454586 3.694199716266465 0.7149812888505351 0 0 0
704 4 10.672211567454584 3.6941997162664646 0.7149812888505369 0 0 0
698 1 8.538987878346497 4.928480394266615 0.007247455232058014 0 0 0
705 1 14.943987878346496 1.2305519201066168 0.007247455232056182 0 0 0
708 4 14.942211567454583 3.6941997162664655 0.7149812888505351 0 0 0
702 1 12.808987878346496 4.928480394266616 0.0072474552320565214 0 0 0
706 1 17.078987878346492 4.928480394266616 0.007247455232056647 0 0 0
709 1 19.213987878346494 1.2305519201066173 0.007247455232054892 0 0 0
712 4 19.212211567454585 3.6941997162664646 0.7149812888505369 0 0 0
710 1 21.348987878346495 4.928480394266615 0.007247455232059272 0 0 0
713 1 23.483987878346493 1.2305519201066168 0.007247455232055257 0 0 0
717 1 27.753987878346496 1.2305519201066162 0.007247455232057589 0 0 0
716 4 23.48221156745458 3.6941997162664646 0.7149812888505366 0 0 0
720 4 27.752211567454584 3.6941997162664655 0.7149812888505341 0 0 0
714 1 25.6189878783465 4.928480394266615 0.0072474552320565865 0 0 0
721 1 32.023987878346496 1.2305519201066173 0.007247455232054874 0 0 0
724 4 32.02221156745458 3.6941997162664646 0.714981288850537 0 0 0
718 1 29.888987878346494 4.928480394266616 0.007247455232056065 0 0 0
722 1 34.158987878346494 4.928480394266614 0.0072474552320595815 0 0 0
725 1 36.29398787834649 1.230551920106617 0.00724745523205495 0 0 0
728 4 36.29221156745458 3.6941997162664646 0.7149812888505367 0 0 0
726 1 38.4289878783465 4.928480394266616 0.007247455232056331 0 0 0
729 1 40.563987878346495 1.230551920106616 0.007247455232057924 0 0 0
733 1 44.8339878783465 1.2305519201066175 0.00724745523205488 0 0 0
732 4 40.56221156745458 3.694199716266466 0.7149812888505339 0 0 0
736 4 44.832211567454586 3.6941997162664646 0.714981288850537 0 0 0
730 1 42.69898787834649 4.928480394266616 0.007247455232056373 0 0 0
645 1 49.103987878346494 1.2305519201066177 0.007247455232053593 -1 0 0
648 4 49.10221156745458 3.694199716266464 0.7149812888505382 -1 0 0
734 1 46.96898787834649 4.928480394266616 0.007247455232056561 0 0 0
646 1 51.23898787834649 4.928480394266615 0.0072474552320579404 -1 0 0
649 1 53.37398787834649 1.230551920106617 0.007247455232056195 -1 0 0
653 1 57.64398787834649 1.2305519201066164 0.007247455232056703 -1 0 0
652 4 53.37221156745458 3.694199716266465 0.7149812888505358 -1 0 0
656 4 57.64221156745458 3.6941997162664655 0.7149812888505352 -1 0 0
650 1 55.50898787834649 4.928480394266616 0.007247455232056447 -1 0 0
657 1 61.91398787834649 1.230551920106618 0.007247455232054341 -1 0 0
660 4 61.91221156745458 3.6941997162664637 0.7149812888505374 -1 0 0
654 1 59.77898787834649 4.928480394266616 0.007247455232057857 -1 0 0
661 1 66.1839878783465 1.2305519201066162 0.007247455232055709 -1 0 0
664 4 66.18221156745459 3.6941997162664655 0.7149812888505362 -1 0 0
658 1 64.0489878783465 4.928480394266614 0.007247455232058495 -1 0 0
662 1 68.31898787834649 4.928480394266616 0.0072474552320558085 -1 0 0
665 1 70.4539878783465 1.2305519201066162 0.00724745523205793 -1 0 0
669 1 74.72398787834649 1.2305519201066177 0.0072474552320543175 -1 0 0
668 4 70.45221156745458 3.6941997162664646 0.7149812888505351 -1 0 0
672 4 74.72221156745458 3.694199716266465 0.7149812888505362 -1 0 0
666 1 72.58898787834649 4.928480394266615 0.007247455232056883 -1 0 0
673 1 78.99398787834649 1.2305519201066173 0.0072474552320549 -1 0 0
676 4 78.99221156745458 3.694199716266464 0.7149812888505369 -1 0 0
670 1 76.8589878783465 4.928480394266615 0.007247455232059715 -1 0 0
677 1 83.2639878783465 1.230551920106616 0.00724745523205793 -1 0 0
680 4 83.26221156745459 3.694199716266466 0.714981288850534 -1 0 0
674 1 81.12898787834649 4.928480394266618 0.007247455232052566 -1 0 0
678 1 85.39898787834649 4.928480394266614 0.007247455232059453 -1 0 0
681 1 87.5339878783465 1.2305519201066186 0.007247455232051897 -1 0 0
685 1 91.80398787834649 1.2305519201066155 0.007247455232057892 -1 0 0
684 4 87.53221156745458 3.694199716266463 0.7149812888505399 -1 0 0
688 4 91.80221156745458 3.694199716266466 0.7149812888505338 -1 0 0
682 1 89.6689878783465 4.928480394266614 0.007247455232059416 -1 0 0
690 1 98.20898787834649 4.928480394266615 0.007247455232059183 -1 0 0
689 1 96.07398787834649 1.2305519201066175 0.007247455232054864 -1 0 0
692 4 96.07221156745457 3.6941997162664646 0.7149812888505369 -1 0 0
686 1 93.9389878783465 4.928480394266617 0.00724745523205376 -1 0 0
787 4 4.267211567454584 7.392128190426464 0.7149812888505367 0 0 0
785 1 2.133987878346494 8.626408868426616 0.007247455232058265 0 0 0
788 4 2.1322115674545823 11.090056664586465 0.7149812888505354 0 0 0
791 4 8.537211567454584 7.392128190426465 0.714981288850535 0 0 0
789 1 6.403987878346498 8.626408868426616 0.007247455232058113 0 0 0
793 1 10.673987878346496 8.626408868426617 0.0072474552320566064 0 0 0
792 4 6.402211567454586 11.090056664586465 0.7149812888505354 0 0 0
796 4 10.672211567454584 11.090056664586465 0.7149812888505369 0 0 0
795 4 12.807211567454583 7.392128190426464 0.7149812888505365 0 0 0
799 4 17.07721156745458 7.392128190426464 0.7149812888505368 0 0 0
797 1 14.943987878346496 8.626408868426616 0.007247455232057929 0 0 0
800 4 14.942211567454583 11.090056664586465 0.7149812888505352 0 0 0
803 4 21.347211567454583 7.392128190426465 0.7149812888505337 0 0 0
801 1 19.213987878346497 8.626408868426617 0.007247455232056763 0 0 0
804 4 19.212211567454585 11.090056664586465 0.7149812888505371 0 0 0
807 4 25.617211567454586 7.392128190426464 0.7149812888505368 0 0 0
805 1 23.483987878346493 8.626408868426617 0.00724745523205654 0 0 0
809 1 27.753987878346496 8.626408868426616 0.007247455232059344 0 0 0
808 4 23.48221156745458 11.090056664586465 0.7149812888505368 0 0 0
812 4 27.752211567454584 11.090056664586465 0.714981288850534 0 0 0
811 4 29.88721156745458 7.392128190426464 0.7149812888505367 0 0 0
815 4 34.15721156745458 7.392128190426466 0.7149812888505336 0 0 0
813 1 32.023987878346496 8.626408868426617 0.007247455232056527 0 0 0
816 4 32.02221156745458 11.090056664586465 0.7149812888505371 0 0 0
819 4 38.427211567454584 7.392128190426464 0.7149812888505369 0 0 0
817 1 36.29398787834649 8.626408868426617 0.007247455232056506 0 0 0
820 4 36.29221156745458 11.090056664586465 0.714981288850537 0 0 0
823 4 42.69721156745458 7.392128190426464 0.7149812888505367 0 0 0
821 1 40.563987878346495 8.626408868426616 0.007247455232059637 0 0 0
825 1 44.8339878783465 8.626408868426617 0.0072474552320564364 0 0 0
824 4 40.56221156745458 11.090056664586466 0.7149812888505338 0 0 0
828 4 44.832211567454586 11.090056664586465 0.7149812888505371 0 0 0
827 4 46.967211567454584 7.392128190426464 0.7149812888505367 0 0 0
739 4 51.23721156745458 7.392128190426465 0.7149812888505354 -1 0 0
737 1 49.103987878346494 8.62640886842662 0.007247455232055218 -1 0 0
740 4 49.10221156745458 11.090056664586465 0.7149812888505385 -1 0 0
743 4 55.50721156745458 7.392128190426464 0.7149812888505367 -1 0 0
741 1 53.37398787834649 8.626408868426617 0.0072474552320578945 -1 0 0
745 1 57.64398787834649 8.626408868426616 0.007247455232058483 -1 0 0
744 4 53.37221156745458 11.090056664586465 0.7149812888505358 -1 0 0
748 4 57.64221156745458 11.090056664586465 0.7149812888505352 -1 0 0
747 4 59.77721156745458 7.392128190426464 0.7149812888505356 -1 0 0
749 1 61.91398787834649 8.626408868426617 0.00724745523205615 -1 0 0
752 4 61.91221156745458 11.090056664586463 0.7149812888505375 -1 0 0
751 4 64.04721156745458 7.392128190426465 0.7149812888505359 -1 0 0
755 4 68.31721156745458 7.392128190426464 0.7149812888505362 -1 0 0
753 1 66.18398787834649 8.626408868426617 0.007247455232057333 -1 0 0
756 4 66.18221156745459 11.090056664586466 0.7149812888505365 -1 0 0
759 4 72.58721156745459 7.392128190426465 0.7149812888505361 -1 0 0
757 1 70.4539878783465 8.626408868426616 0.0072474552320596405 -1 0 0
761 1 74.72398787834649 8.626408868426617 0.007247455232055914 -1 0 0
760 4 70.45221156745458 11.090056664586465 0.7149812888505351 -1 0 0
764 4 74.72221156745458 11.090056664586465 0.7149812888505364 -1 0 0
763 4 76.85721156745458 7.392128190426464 0.7149812888505347 -1 0 0
765 1 78.99398787834649 8.626408868426617 0.0072474552320565475 -1 0 0
768 4 78.99221156745458 11.090056664586465 0.7149812888505369 -1 0 0
767 4 81.12721156745458 7.392128190426463 0.7149812888505392 -1 0 0
771 4 85.39721156745458 7.392128190426466 0.7149812888505338 -1 0 0
769 1 83.2639878783465 8.626408868426616 0.007247455232059455 -1 0 0
772 4 83.26221156745459 11.090056664586466 0.714981288850534 -1 0 0
775 4 89.66721156745459 7.392128190426466 0.7149812888505339 -1 0 0
773 1 87.5339878783465 8.62640886842662 0.00724745523205326 -1 0 0
777 1 91.80398787834649 8.626408868426616 0.007247455232059542 -1 0 0
776 4 87.53221156745458 11.090056664586463 0.7149812888505401 -1 0 0
780 4 91.80221156745458 11.090056664586466 0.7149812888505338 -1 0 0
783 4 98.20721156745458 7.392128190426465 0.7149812888505342 -1 0 0
779 4 93.93721156745458 7.392128190426463 0.7149812888505394 -1 0 0
781 1 96.07398787834649 8.626408868426617 0.007247455232056359 -1 0 0
784 4 96.07221156745457 11.090056664586465 0.7149812888505371 -1 0 0
786 1 4.268987878346496 12.324337342586615 0.007247455232054952 0 0 0
877 1 2.133987878346494 16.022265816746618 0.007247455232059331 0 0 0
879 4 4.267211567454584 14.787985138746464 0.7149812888505379 0 0 0
790 1 8.538987878346497 12.324337342586613 0.007247455232056297 0 0 0
881 1 6.403987878346498 16.022265816746618 0.0072474552320591894 0 0 0
883 4 8.537211567454584 14.787985138746466 0.7149812888505361 0 0 0
885 1 10.673987878346496 16.022265816746618 0.0072474552320578945 0 0 0
794 1 12.808987878346496 12.324337342586615 0.0072474552320547754 0 0 0
798 1 17.078987878346492 12.324337342586615 0.007247455232054792 0 0 0
887 4 12.807211567454583 14.787985138746464 0.7149812888505376 0 0 0
889 1 14.943987878346496 16.022265816746618 0.007247455232059064 0 0 0
891 4 17.07721156745458 14.787985138746464 0.714981288850538 0 0 0
802 1 21.348987878346495 12.324337342586613 0.00724745523205746 0 0 0
893 1 19.213987878346497 16.022265816746618 0.007247455232058046 0 0 0
895 4 21.347211567454583 14.787985138746466 0.7149812888505349 0 0 0
806 1 25.6189878783465 12.324337342586615 0.007247455232054973 0 0 0
897 1 23.483987878346493 16.022265816746618 0.007247455232057802 0 0 0
899 4 25.617211567454586 14.787985138746466 0.7149812888505384 0 0 0
901 1 27.753987878346496 16.022265816746614 0.007247455232060622 0 0 0
810 1 29.888987878346494 12.324337342586615 0.007247455232054411 0 0 0
814 1 34.158987878346494 12.324337342586613 0.00724745523205779 0 0 0
903 4 29.88721156745458 14.787985138746466 0.7149812888505381 0 0 0
905 1 32.023987878346496 16.022265816746618 0.007247455232057773 0 0 0
907 4 34.15721156745458 14.787985138746466 0.7149812888505348 0 0 0
818 1 38.4289878783465 12.324337342586615 0.0072474552320546635 0 0 0
909 1 36.29398787834649 16.022265816746618 0.007247455232057762 0 0 0
911 4 38.427211567454584 14.787985138746466 0.7149812888505382 0 0 0
822 1 42.69898787834649 12.324337342586615 0.007247455232054685 0 0 0
913 1 40.563987878346495 16.022265816746614 0.007247455232060881 0 0 0
915 4 42.69721156745458 14.787985138746466 0.714981288850538 0 0 0
917 1 44.8339878783465 16.022265816746618 0.007247455232057625 0 0 0
826 1 46.96898787834649 12.324337342586615 0.007247455232054795 0 0 0
738 1 51.23898787834649 12.324337342586613 0.007247455232056284 -1 0 0
919 4 46.967211567454584 14.787985138746464 0.7149812888505379 0 0 0
829 1 49.103987878346494 16.022265816746618 0.007247455232056273 -1 0 0
831 4 51.23721156745458 14.787985138746466 0.7149812888505367 -1 0 0
742 1 55.50898787834649 12.324337342586615 0.00724745523205478 -1 0 0
833 1 53.37398787834649 16.022265816746618 0.007247455232058949 -1 0 0
835 4 55.50721156745458 14.787985138746464 0.7149812888505379 -1 0 0
837 1 57.64398787834649 16.022265816746614 0.007247455232059507 -1 0 0
746 1 59.77898787834649 12.324337342586613 0.007247455232055989 -1 0 0
839 4 59.77721156745458 14.787985138746466 0.7149812888505368 -1 0 0
841 1 61.91398787834649 16.022265816746618 0.00724745523205735 -1 0 0
750 1 64.0489878783465 12.324337342586613 0.00724745523205682 -1 0 0
754 1 68.31898787834649 12.324337342586615 0.007247455232054048 -1 0 0
843 4 64.04721156745458 14.787985138746466 0.7149812888505371 -1 0 0
845 1 66.18398787834649 16.022265816746618 0.007247455232058556 -1 0 0
847 4 68.31721156745458 14.787985138746466 0.7149812888505377 -1 0 0
758 1 72.58898787834649 12.324337342586615 0.007247455232055262 -1 0 0
849 1 70.4539878783465 16.022265816746614 0.007247455232060876 -1 0 0
851 4 72.58721156745459 14.787985138746466 0.7149812888505375 -1 0 0
853 1 74.72398787834649 16.022265816746618 0.007247455232057176 -1 0 0
762 1 76.8589878783465 12.324337342586613 0.007247455232057912 -1 0 0
855 4 76.85721156745458 14.787985138746466 0.7149812888505359 -1 0 0
857 1 78.99398787834649 16.022265816746618 0.00724745523205777 -1 0 0
766 1 81.12898787834649 12.324337342586617 0.0072474552320508975 -1 0 0
770 1 85.39898787834649 12.324337342586613 0.007247455232057734 -1 0 0
859 4 81.12721156745458 14.787985138746464 0.7149812888505405 -1 0 0
861 1 83.2639878783465 16.022265816746618 0.007247455232060742 -1 0 0
863 4 85.39721156745458 14.787985138746466 0.7149812888505349 -1 0 0
774 1 89.66898787834648 12.324337342586613 0.007247455232057696 -1 0 0
865 1 87.5339878783465 16.022265816746618 0.0072474552320544085 -1 0 0
867 4 89.66721156745459 14.787985138746466 0.7149812888505351 -1 0 0
869 1 91.80398787834649 16.022265816746618 0.007247455232060782 -1 0 0
782 1 98.20898787834649 12.324337342586613 0.007247455232057375 -1 0 0
875 4 98.20721156745458 14.787985138746466 0.7149812888505355 -1 0 0
778 1 93.9389878783465 12.324337342586617 0.007247455232052041 -1 0 0
871 4 93.93721156745458 14.787985138746464 0.7149812888505405 -1 0 0
873 1 96.07398787834649 16.022265816746618 0.007247455232057641 -1 0 0
880 4 2.1322115674545823 18.485913612906465 0.7149812888505338 0 0 0
878 1 4.268987878346496 19.720194290906615 0.0072474552320550695 0 0 0
971 4 4.267211567454584 22.183842087066466 0.7149812888505381 0 0 0
884 4 6.402211567454586 18.485913612906465 0.7149812888505339 0 0 0
888 4 10.672211567454585 18.485913612906465 0.7149812888505356 0 0 0
882 1 8.538987878346497 19.720194290906615 0.007247455232056558 0 0 0
975 4 8.537211567454584 22.183842087066466 0.7149812888505364 0 0 0
892 4 14.942211567454583 18.485913612906465 0.7149812888505337 0 0 0
886 1 12.808987878346496 19.720194290906615 0.007247455232054886 0 0 0
890 1 17.078987878346492 19.720194290906615 0.00724745523205491 0 0 0
979 4 12.807211567454583 22.183842087066466 0.7149812888505381 0 0 0
983 4 17.07721156745458 22.183842087066466 0.7149812888505384 0 0 0
896 4 19.212211567454585 18.485913612906465 0.7149812888505355 0 0 0
894 1 21.348987878346495 19.720194290906615 0.007247455232057817 0 0 0
987 4 21.347211567454583 22.18384208706647 0.7149812888505352 0 0 0
900 4 23.48221156745458 18.485913612906465 0.7149812888505352 0 0 0
904 4 27.752211567454584 18.485913612906465 0.7149812888505325 0 0 0
898 1 25.6189878783465 19.720194290906615 0.007247455232054939 0 0 0
991 4 25.617211567454586 22.183842087066466 0.7149812888505384 0 0 0
908 4 32.02221156745458 18.485913612906465 0.7149812888505357 0 0 0
902 1 29.888987878346494 19.720194290906615 0.007247455232054426 0 0 0
906 1 34.158987878346494 19.720194290906615 0.0072474552320580836 0 0 0
995 4 29.88721156745458 22.183842087066466 0.7149812888505382 0 0 0
999 4 34.15721156745458 22.18384208706647 0.7149812888505351 0 0 0
912 4 36.29221156745458 18.485913612906465 0.7149812888505355 0 0 0
910 1 38.4289878783465 19.720194290906615 0.007247455232054676 0 0 0
1003 4 38.427211567454584 22.183842087066466 0.7149812888505384 0 0 0
916 4 40.56221156745458 18.485913612906465 0.7149812888505322 0 0 0
920 4 44.832211567454586 18.485913612906465 0.7149812888505357 0 0 0
914 1 42.69898787834649 19.720194290906615 0.007247455232054705 0 0 0
1007 4 42.69721156745458 22.183842087066466 0.7149812888505381 0 0 0
832 4 49.10221156745458 18.48591361290646 0.7149812888505367 -1 0 0
918 1 46.968987878346496 19.720194290906615 0.007247455232055195 0 0 0
830 1 51.23898787834649 19.720194290906615 0.007247455232056601 -1 0 0
1011 4 46.967211567454584 22.18384208706647 0.7149812888505381 0 0 0
923 4 51.23721156745458 22.183842087066466 0.7149812888505367 -1 0 0
836 4 53.37221156745458 18.48591361290646 0.7149812888505344 -1 0 0
840 4 57.64221156745458 18.485913612906465 0.7149812888505338 -1 0 0
834 1 55.50898787834649 19.720194290906615 0.007247455232054886 -1 0 0
927 4 55.50721156745458 22.183842087066466 0.7149812888505382 -1 0 0
844 4 61.91221156745458 18.48591361290646 0.7149812888505362 -1 0 0
838 1 59.77898787834649 19.720194290906615 0.007247455232056258 -1 0 0
931 4 59.77721156745458 22.183842087066466 0.7149812888505369 -1 0 0
848 4 66.18221156745459 18.485913612906465 0.714981288850535 -1 0 0
842 1 64.0489878783465 19.720194290906615 0.00724745523205695 -1 0 0
846 1 68.31898787834649 19.720194290906615 0.007247455232054046 -1 0 0
935 4 64.04721156745458 22.183842087066466 0.7149812888505372 -1 0 0
939 4 68.31721156745458 22.183842087066466 0.7149812888505378 -1 0 0
852 4 70.45221156745458 18.485913612906465 0.7149812888505335 -1 0 0
856 4 74.72221156745458 18.485913612906465 0.7149812888505349 -1 0 0
850 1 72.58898787834649 19.720194290906615 0.00724745523205523 -1 0 0
943 4 72.58721156745459 22.183842087066466 0.7149812888505376 -1 0 0
860 4 78.99221156745458 18.485913612906465 0.7149812888505357 -1 0 0
854 1 76.8589878783465 19.720194290906615 0.00724745523205821 -1 0 0
947 4 76.85721156745458 22.18384208706647 0.7149812888505361 -1 0 0
864 4 83.26221156745459 18.485913612906465 0.7149812888505327 -1 0 0
858 1 81.12898787834649 19.72019429090662 0.007247455232050874 -1 0 0
862 1 85.39898787834649 19.720194290906615 0.007247455232057791 -1 0 0
951 4 81.12721156745458 22.183842087066466 0.7149812888505407 -1 0 0
955 4 85.39721156745458 22.18384208706647 0.7149812888505352 -1 0 0
868 4 87.53221156745458 18.48591361290646 0.7149812888505386 -1 0 0
872 4 91.80221156745458 18.485913612906465 0.7149812888505325 -1 0 0
866 1 89.66898787834648 19.720194290906615 0.007247455232057741 -1 0 0
959 4 89.66721156745459 22.18384208706647 0.7149812888505354 -1 0 0
874 1 98.20898787834649 19.720194290906615 0.007247455232057829 -1 0 0
967 4 98.20721156745458 22.18384208706647 0.7149812888505357 -1 0 0
876 4 96.07221156745457 18.485913612906465 0.7149812888505358 -1 0 0
870 1 93.9389878783465 19.720194290906615 0.007247455232052027 -1 0 0
963 4 93.93721156745458 22.183842087066466 0.7149812888505406 -1 0 0
969 1 2.1339878783464945 23.418122765066617 0.007247455232058966 0 0 0
972 4 2.1322115674545823 25.88177056122646 0.7149812888505368 0 0 0
970 1 4.268987878346496 27.116051239226618 0.007247455232054964 0 0 0
973 1 6.403987878346498 23.418122765066617 0.007247455232058872 0 0 0
977 1 10.673987878346496 23.418122765066617 0.007247455232057508 0 0 0
976 4 6.402211567454586 25.88177056122646 0.7149812888505368 0 0 0
980 4 10.672211567454584 25.88177056122646 0.7149812888505381 0 0 0
974 1 8.538987878346497 27.116051239226618 0.007247455232056189 0 0 0
981 1 14.943987878346496 23.418122765066617 0.007247455232058697 0 0 0
984 4 14.942211567454583 25.88177056122646 0.7149812888505368 0 0 0
978 1 12.808987878346496 27.116051239226618 0.0072474552320547945 0 0 0
982 1 17.078987878346492 27.116051239226618 0.007247455232055053 0 0 0
985 1 19.213987878346497 23.418122765066617 0.00724745523205759 0 0 0
988 4 19.212211567454585 25.88177056122646 0.7149812888505384 0 0 0
986 1 21.348987878346495 27.116051239226618 0.007247455232057353 0 0 0
989 1 23.483987878346493 23.418122765066617 0.007247455232057379 0 0 0
993 1 27.753987878346496 23.418122765066613 0.007247455232060285 0 0 0
992 4 23.48221156745458 25.88177056122646 0.7149812888505385 0 0 0
996 4 27.752211567454584 25.88177056122646 0.7149812888505352 0 0 0
990 1 25.618987878346495 27.116051239226618 0.007247455232054752 0 0 0
997 1 32.023987878346496 23.418122765066617 0.007247455232057311 0 0 0
1000 4 32.02221156745458 25.88177056122646 0.7149812888505385 0 0 0
994 1 29.888987878346494 27.116051239226618 0.007247455232054787 0 0 0
998 1 34.158987878346494 27.116051239226618 0.007247455232057674 0 0 0
1001 1 36.29398787834649 23.418122765066617 0.0072474552320573446 0 0 0
1004 4 36.29221156745458 25.88177056122646 0.7149812888505384 0 0 0
1002 1 38.4289878783465 27.116051239226618 0.007247455232054752 0 0 0
1005 1 40.563987878346495 23.418122765066613 0.007247455232060582 0 0 0
1009 1 44.8339878783465 23.418122765066617 0.007247455232057267 0 0 0
1008 4 40.56221156745458 25.88177056122646 0.7149812888505354 0 0 0
1012 4 44.832211567454586 25.88177056122646 0.7149812888505386 0 0 0
1006 1 42.69898787834649 27.116051239226618 0.007247455232054832 0 0 0
921 1 49.103987878346494 23.418122765066617 0.007247455232055795 -1 0 0
924 4 49.10221156745458 25.88177056122646 0.7149812888505395 -1 0 0
1010 1 46.968987878346496 27.116051239226618 0.007247455232054996 0 0 0
922 1 51.23898787834649 27.116051239226618 0.007247455232056178 -1 0 0
925 1 53.37398787834649 23.418122765066617 0.007247455232058607 -1 0 0
929 1 57.64398787834649 23.418122765066617 0.007247455232059103 -1 0 0
928 4 53.37221156745458 25.88177056122646 0.7149812888505371 -1 0 0
932 4 57.64221156745458 25.88177056122646 0.7149812888505366 -1 0 0
926 1 55.50898787834649 27.116051239226618 0.007247455232054983 -1 0 0
933 1 61.91398787834649 23.41812276506662 0.00724745523205693 -1 0 0
936 4 61.91221156745458 25.88177056122646 0.7149812888505389 -1 0 0
930 1 59.77898787834649 27.116051239226618 0.007247455232055906 -1 0 0
937 1 66.18398787834649 23.418122765066617 0.007247455232058194 -1 0 0
940 4 66.18221156745457 25.881770561226464 0.7149812888505378 -1 0 0
934 1 64.0489878783465 27.116051239226618 0.0072474552320565475 -1 0 0
938 1 68.31898787834649 27.116051239226618 0.007247455232054141 -1 0 0
941 1 70.4539878783465 23.418122765066613 0.007247455232060637 -1 0 0
945 1 74.72398787834649 23.41812276506662 0.007247455232056759 -1 0 0
944 4 70.45221156745458 25.88177056122646 0.7149812888505366 -1 0 0
948 4 74.72221156745458 25.88177056122646 0.7149812888505378 -1 0 0
942 1 72.58898787834649 27.116051239226618 0.0072474552320553574 -1 0 0
949 1 78.99398787834649 23.418122765066617 0.007247455232057354 -1 0 0
952 4 78.99221156745458 25.88177056122646 0.7149812888505385 -1 0 0
946 1 76.8589878783465 27.116051239226618 0.007247455232057794 -1 0 0
953 1 83.2639878783465 23.418122765066617 0.007247455232060493 -1 0 0
956 4 83.26221156745459 25.881770561226464 0.7149812888505355 -1 0 0
950 1 81.12898787834649 27.116051239226618 0.007247455232050786 -1 0 0
954 1 85.39898787834649 27.116051239226618 0.007247455232057861 -1 0 0
957 1 87.5339878783465 23.41812276506662 0.0072474552320544155 -1 0 0
961 1 91.80398787834649 23.418122765066617 0.007247455232060532 -1 0 0
960 4 87.53221156745458 25.88177056122646 0.7149812888505414 -1 0 0
964 4 91.80221156745458 25.881770561226464 0.7149812888505351 -1 0 0
958 1 89.6689878783465 27.116051239226618 0.007247455232057776 -1 0 0
966 1 98.20898787834649 27.116051239226618 0.0072474552320573975 -1 0 0
965 1 96.07398787834649 23.418122765066617 0.007247455232057261 -1 0 0
968 4 96.07221156745457 25.88177056122646 0.7149812888505386 -1 0 0
962 1 93.9389878783465 27.116051239226618 0.007247455232051979 -1 0 0
1061 1 2.133987878346494 30.813979713386612 0.007247455232056586 0 0 0
1063 4 4.267211567454584 29.57969903538646 0.7149812888505357 0 0 0
1064 4 2.1322115674545827 33.27762750954646 0.7149812888505364 0 0 0
1062 1 4.268987878346496 34.51190818754662 0.007247455232057743 0 0 0
1065 1 6.403987878346498 30.813979713386612 0.007247455232056502 0 0 0
1067 4 8.537211567454584 29.57969903538646 0.7149812888505341 0 0 0
1069 1 10.673987878346496 30.813979713386612 0.007247455232055151 0 0 0
1068 4 6.402211567454586 33.27762750954646 0.7149812888505361 0 0 0
1066 1 8.538987878346497 34.51190818754662 0.0072474552320595 0 0 0
1072 4 10.672211567454584 33.27762750954646 0.714981288850538 0 0 0
1071 4 12.807211567454583 29.57969903538646 0.7149812888505355 0 0 0
1073 1 14.943987878346496 30.813979713386612 0.007247455232056195 0 0 0
1075 4 17.07721156745458 29.57969903538646 0.7149812888505358 0 0 0
1070 1 12.808987878346496 34.51190818754662 0.007247455232057486 0 0 0
1076 4 14.942211567454583 33.27762750954646 0.7149812888505362 0 0 0
1074 1 17.078987878346492 34.51190818754662 0.007247455232057583 0 0 0
1077 1 19.213987878346497 30.813979713386612 0.007247455232055256 0 0 0
1079 4 21.347211567454583 29.579699035386465 0.7149812888505328 0 0 0
1080 4 19.212211567454585 33.27762750954646 0.7149812888505382 0 0 0
1078 1 21.348987878346495 34.51190818754662 0.007247455232060484 0 0 0
1081 1 23.483987878346493 30.813979713386612 0.007247455232055055 0 0 0
1083 4 25.617211567454586 29.57969903538646 0.7149812888505358 0 0 0
1085 1 27.753987878346496 30.813979713386612 0.007247455232057384 0 0 0
1084 4 23.48221156745458 33.27762750954646 0.7149812888505379 0 0 0
1082 1 25.6189878783465 34.51190818754662 0.0072474552320577635 0 0 0
1088 4 27.752211567454584 33.27762750954646 0.7149812888505354 0 0 0
1087 4 29.88721156745458 29.57969903538646 0.7149812888505355 0 0 0
1089 1 32.023987878346496 30.813979713386615 0.007247455232054958 0 0 0
1091 4 34.15721156745458 29.579699035386465 0.7149812888505327 0 0 0
1086 1 29.888987878346494 34.51190818754662 0.007247455232057201 0 0 0
1092 4 32.02221156745458 33.27762750954646 0.7149812888505384 0 0 0
1090 1 34.158987878346494 34.51190818754662 0.007247455232060756 0 0 0
1093 1 36.29398787834649 30.813979713386612 0.007247455232055032 0 0 0
1095 4 38.427211567454584 29.57969903538646 0.7149812888505358 0 0 0
1096 4 36.29221156745458 33.27762750954646 0.7149812888505381 0 0 0
1094 1 38.4289878783465 34.51190818754662 0.007247455232057465 0 0 0
1097 1 40.563987878346495 30.813979713386612 0.0072474552320577175 0 0 0
1099 4 42.69721156745458 29.57969903538646 0.7149812888505355 0 0 0
1101 1 44.8339878783465 30.813979713386615 0.0072474552320548995 0 0 0
1100 4 40.56221156745458 33.27762750954646 0.7149812888505351 0 0 0
1098 1 42.69898787834649 34.51190818754662 0.007247455232057556 0 0 0
1104 4 44.832211567454586 33.27762750954646 0.7149812888505382 0 0 0
1103 4 46.967211567454584 29.57969903538646 0.7149812888505358 0 0 0
1013 1 49.103987878346494 30.813979713386612 0.007247455232053248 -1 0 0
1015 4 51.23721156745458 29.57969903538646 0.7149812888505347 -1 0 0
1102 1 46.968987878346496 34.51190818754662 0.007247455232057667 0 0 0
1016 4 49.10221156745458 33.27762750954646 0.7149812888505396 -1 0 0
1014 1 51.23898787834649 34.51190818754662 0.0072474552320596795 -1 0 0
1017 1 53.37398787834649 30.813979713386612 0.007247455232056257 -1 0 0
1019 4 55.50721156745458 29.57969903538646 0.7149812888505358 -1 0 0
1021 1 57.64398787834649 30.813979713386612 0.007247455232056714 -1 0 0
1020 4 53.37221156745458 33.27762750954646 0.714981288850537 -1 0 0
1018 1 55.50898787834649 34.51190818754662 0.007247455232057557 -1 0 0
1024 4 57.64221156745458 33.27762750954646 0.7149812888505361 -1 0 0
1023 4 59.77721156745458 29.57969903538646 0.7149812888505348 -1 0 0
1025 1 61.91398787834649 30.813979713386615 0.007247455232054764 -1 0 0
1022 1 59.77898787834649 34.51190818754662 0.007247455232059169 -1 0 0
1028 4 61.91221156745458 33.27762750954646 0.7149812888505388 -1 0 0
1027 4 64.04721156745458 29.57969903538646 0.7149812888505351 -1 0 0
1029 1 66.18398787834649 30.813979713386612 0.0072474552320559195 -1 0 0
1031 4 68.31721156745458 29.57969903538646 0.7149812888505351 -1 0 0
1026 1 64.0489878783465 34.51190818754662 0.007247455232059934 -1 0 0
1032 4 66.18221156745459 33.27762750954646 0.7149812888505377 -1 0 0
1030 1 68.31898787834649 34.51190818754662 0.007247455232056832 -1 0 0
1033 1 70.4539878783465 30.813979713386612 0.0072474552320577566 -1 0 0
1035 4 72.58721156745459 29.57969903538646 0.7149812888505349 -1 0 0
1037 1 74.72398787834649 30.813979713386615 0.007247455232054402 -1 0 0
1036 4 70.45221156745458 33.27762750954646 0.7149812888505364 -1 0 0
1034 1 72.58898787834649 34.51190818754662 0.007247455232058056 -1 0 0
1040 4 74.72221156745458 33.27762750954646 0.7149812888505376 -1 0 0
1039 4 76.85721156745458 29.57969903538646 0.7149812888505336 -1 0 0
1041 1 78.99398787834649 30.813979713386612 0.007247455232055156 -1 0 0
1038 1 76.8589878783465 34.51190818754662 0.007247455232060846 -1 0 0
1044 4 78.99221156745458 33.27762750954646 0.7149812888505385 -1 0 0
1043 4 81.12721156745458 29.579699035386458 0.7149812888505382 -1 0 0
1045 1 83.26398787834648 30.813979713386612 0.007247455232057778 -1 0 0
1047 4 85.39721156745458 29.579699035386465 0.7149812888505328 -1 0 0
1042 1 81.12898787834649 34.51190818754662 0.007247455232053985 -1 0 0
1048 4 83.26221156745459 33.27762750954646 0.7149812888505355 -1 0 0
1046 1 85.39898787834649 34.51190818754662 0.007247455232060957 -1 0 0
1049 1 87.5339878783465 30.813979713386615 0.007247455232051628 -1 0 0
1051 4 89.66721156745459 29.579699035386465 0.7149812888505328 -1 0 0