LAMMPS data file via write_data, version 29 Aug 2024, timestep = 0, units = metal

1288 atoms
2 atom types

0 98.21 xlo xhi
0 103.54199727648 ylo yhi
0 106 zlo zhi

Masses

1 118.71
2 72.63

Atoms # atomic

691 2 0 0 0.7261000000000024 0 0 0
693 1 2.135000000000005 1.2326428247199956 0 0 0 0
695 2 4.270000000000003 0 0.7261000000000024 0 0 0
697 1 6.405000000000001 1.2326428247199956 0 0 0 0
699 2 8.540000000000006 0 0.7261000000000024 0 0 0
701 1 10.675000000000004 1.2326428247199956 0 0 0 0
703 2 12.810000000000002 0 0.7261000000000024 0 0 0
705 1 14.945 1.2326428247199956 0 0 0 0
707 2 17.080000000000005 0 0.7261000000000024 0 0 0
709 1 19.214999999999996 1.2326428247199956 0 0 0 0
711 2 21.35 0 0.7261000000000024 0 0 0
713 1 23.485000000000007 1.2326428247199956 0 0 0 0
715 2 25.619999999999997 0 0.7261000000000024 0 0 0
717 1 27.755000000000003 1.2326428247199956 0 0 0 0
719 2 29.890000000000008 0 0.7261000000000024 0 0 0
721 1 32.025 1.2326428247199956 0 0 0 0
723 2 34.160000000000004 0 0.7261000000000024 0 0 0
725 1 36.29500000000001 1.2326428247199956 0 0 0 0
727 2 38.43 0 0.7261000000000024 0 0 0
729 1 40.565000000000005 1.2326428247199956 0 0 0 0
731 2 42.70000000000001 0 0.7261000000000024 0 0 0
733 1 44.835 1.2326428247199956 0 0 0 0
735 2 46.970000000000006 0 0.7261000000000024 0 0 0
645 1 49.105 1.2326428247199956 0 -1 0 0
647 2 51.239999999999995 0 0.7261000000000024 -1 0 0
649 1 53.375 1.2326428247199956 0 -1 0 0
651 2 55.51 0 0.7261000000000024 -1 0 0
653 1 57.644999999999996 1.2326428247199956 0 -1 0 0
655 2 59.78 0 0.7261000000000024 -1 0 0
657 1 61.915 1.2326428247199956 0 -1 0 0
659 2 64.05 0 0.7261000000000024 -1 0 0
661 1 66.185 1.2326428247199956 0 -1 0 0
663 2 68.32 0 0.7261000000000024 -1 0 0
665 1 70.455 1.2326428247199956 0 -1 0 0
667 2 72.59 0 0.7261000000000024 -1 0 0
669 1 74.725 1.2326428247199956 0 -1 0 0
671 2 76.86 0 0.7261000000000024 -1 0 0
673 1 78.995 1.2326428247199956 0 -1 0 0
675 2 81.13 0 0.7261000000000024 -1 0 0
677 1 83.26499999999999 1.2326428247199956 0 -1 0 0
679 2 85.4 0 0.7261000000000024 -1 0 0
681 1 87.535 1.2326428247199956 0 -1 0 0
683 2 89.66999999999999 0 0.7261000000000024 -1 0 0
685 1 91.805 1.2326428247199956 0 -1 0 0
687 2 93.94 0 0.7261000000000024 -1 0 0
689 1 96.07499999999999 1.2326428247199956 0 -1 0 0
696 2 2.135000000000005 3.697928474159994 0.7261000000000024 0 0 0
700 2 6.405000000000001 3.697928474159994 0.7261000000000024 0 0 0
704 2 10.675000000000004 3.697928474159994 0.7261000000000024 0 0 0
708 2 14.945 3.697928474159994 0.7261000000000024 0 0 0
712 2 19.214999999999996 3.697928474159994 0.7261000000000024 0 0 0
716 2 23.485000000000007 3.697928474159994 0.7261000000000024 0 0 0
720 2 27.755000000000003 3.697928474159994 0.7261000000000024 0 0 0
724 2 32.025 3.697928474159994 0.7261000000000024 0 0 0
728 2 36.29500000000001 3.697928474159994 0.7261000000000024 0 0 0
732 2 40.565000000000005 3.697928474159994 0.7261000000000024 0 0 0
736 2 44.835 3.697928474159994 0.7261000000000024 0 0 0
648 2 49.105 3.697928474159994 0.7261000000000024 -1 0 0
652 2 53.375 3.697928474159994 0.7261000000000024 -1 0 0
656 2 57.644999999999996 3.697928474159994 0.7261000000000024 -1 0 0
660 2 61.915 3.697928474159994 0.7261000000000024 -1 0 0
664 2 66.185 3.697928474159994 0.7261000000000024 -1 0 0
668 2 70.455 3.697928474159994 0.7261000000000024 -1 0 0
672 2 74.725 3.697928474159994 0.7261000000000024 -1 0 0
676 2 78.995 3.697928474159994 0.7261000000000024 -1 0 0
680 2 83.26499999999999 3.697928474159994 0.7261000000000024 -1 0 0
684 2 87.535 3.697928474159994 0.7261000000000024 -1 0 0
688 2 91.805 3.697928474159994 0.7261000000000024 -1 0 0
692 2 96.07499999999999 3.697928474159994 0.7261000000000024 -1 0 0
690 1 0 4.930571298879997 0 0 0 0
694 1 4.270000000000003 4.930571298879997 0 0 0 0
698 1 8.540000000000006 4.930571298879997 0 0 0 0
702 1 12.810000000000002 4.930571298879997 0 0 0 0
706 1 17.080000000000005 4.930571298879997 0 0 0 0
710 1 21.35 4.930571298879997 0 0 0 0
714 1 25.619999999999997 4.930571298879997 0 0 0 0
718 1 29.890000000000008 4.930571298879997 0 0 0 0
722 1 34.160000000000004 4.930571298879997 0 0 0 0
726 1 38.43 4.930571298879997 0 0 0 0
730 1 42.70000000000001 4.930571298879997 0 0 0 0
734 1 46.970000000000006 4.930571298879997 0 0 0 0
646 1 51.239999999999995 4.930571298879997 0 -1 0 0
650 1 55.51 4.930571298879997 0 -1 0 0
654 1 59.78 4.930571298879997 0 -1 0 0
658 1 64.05 4.930571298879997 0 -1 0 0
662 1 68.32 4.930571298879997 0 -1 0 0
666 1 72.59 4.930571298879997 0 -1 0 0
670 1 76.86 4.930571298879997 0 -1 0 0
674 1 81.13 4.930571298879997 0 -1 0 0
678 1 85.4 4.930571298879997 0 -1 0 0
682 1 89.66999999999999 4.930571298879997 0 -1 0 0
686 1 93.94 4.930571298879997 0 -1 0 0
783 2 0 7.395856948319995 0.7261000000000024 0 0 0
787 2 4.270000000000003 7.395856948319995 0.7261000000000024 0 0 0
791 2 8.540000000000006 7.395856948319995 0.7261000000000024 0 0 0
795 2 12.810000000000002 7.395856948319995 0.7261000000000024 0 0 0
799 2 17.080000000000005 7.395856948319995 0.7261000000000024 0 0 0
803 2 21.35 7.395856948319995 0.7261000000000024 0 0 0
807 2 25.619999999999997 7.395856948319995 0.7261000000000024 0 0 0
811 2 29.890000000000008 7.395856948319995 0.7261000000000024 0 0 0
815 2 34.160000000000004 7.395856948319995 0.7261000000000024 0 0 0
819 2 38.43 7.395856948319995 0.7261000000000024 0 0 0
823 2 42.70000000000001 7.395856948319995 0.7261000000000024 0 0 0
827 2 46.970000000000006 7.395856948319995 0.7261000000000024 0 0 0
739 2 51.239999999999995 7.395856948319995 0.7261000000000024 -1 0 0
743 2 55.51 7.395856948319995 0.7261000000000024 -1 0 0
747 2 59.78 7.395856948319995 0.7261000000000024 -1 0 0
751 2 64.05 7.395856948319995 0.7261000000000024 -1 0 0
755 2 68.32 7.395856948319995 0.7261000000000024 -1 0 0
759 2 72.59 7.395856948319995 0.7261000000000024 -1 0 0
763 2 76.86 7.395856948319995 0.7261000000000024 -1 0 0
767 2 81.13 7.395856948319995 0.7261000000000024 -1 0 0
771 2 85.4 7.395856948319995 0.7261000000000024 -1 0 0
775 2 89.66999999999999 7.395856948319995 0.7261000000000024 -1 0 0
779 2 93.94 7.395856948319995 0.7261000000000024 -1 0 0
785 1 2.135000000000005 8.628499773039998 0 0 0 0
789 1 6.405000000000001 8.628499773039998 0 0 0 0
793 1 10.675000000000004 8.628499773039998 0 0 0 0
797 1 14.945 8.628499773039998 0 0 0 0
801 1 19.214999999999996 8.628499773039998 0 0 0 0
805 1 23.485000000000007 8.628499773039998 0 0 0 0
809 1 27.755000000000003 8.628499773039998 0 0 0 0
813 1 32.025 8.628499773039998 0 0 0 0
817 1 36.29500000000001 8.628499773039998 0 0 0 0
821 1 40.565000000000005 8.628499773039998 0 0 0 0
825 1 44.835 8.628499773039998 0 0 0 0
737 1 49.105 8.628499773039998 0 -1 0 0
741 1 53.375 8.628499773039998 0 -1 0 0
745 1 57.644999999999996 8.628499773039998 0 -1 0 0
749 1 61.915 8.628499773039998 0 -1 0 0
753 1 66.185 8.628499773039998 0 -1 0 0
757 1 70.455 8.628499773039998 0 -1 0 0
761 1 74.725 8.628499773039998 0 -1 0 0
765 1 78.995 8.628499773039998 0 -1 0 0
769 1 83.26499999999999 8.628499773039998 0 -1 0 0
773 1 87.535 8.628499773039998 0 -1 0 0
777 1 91.805 8.628499773039998 0 -1 0 0
781 1 96.07499999999999 8.628499773039998 0 -1 0 0
782 1 0 12.326428247199999 0 0 0 0
788 2 2.135000000000005 11.093785422479996 0.7261000000000024 0 0 0
786 1 4.270000000000003 12.326428247199999 0 0 0 0
792 2 6.405000000000001 11.093785422479996 0.7261000000000024 0 0 0
790 1 8.540000000000006 12.326428247199999 0 0 0 0
796 2 10.675000000000004 11.093785422479996 0.7261000000000024 0 0 0
794 1 12.810000000000002 12.326428247199999 0 0 0 0
800 2 14.945 11.093785422479996 0.7261000000000024 0 0 0
798 1 17.080000000000005 12.326428247199999 0 0 0 0
804 2 19.214999999999996 11.093785422479996 0.7261000000000024 0 0 0
802 1 21.35 12.326428247199999 0 0 0 0
808 2 23.485000000000007 11.093785422479996 0.7261000000000024 0 0 0
806 1 25.619999999999997 12.326428247199999 0 0 0 0
812 2 27.755000000000003 11.093785422479996 0.7261000000000024 0 0 0
810 1 29.890000000000008 12.326428247199999 0 0 0 0
816 2 32.025 11.093785422479996 0.7261000000000024 0 0 0
814 1 34.160000000000004 12.326428247199999 0 0 0 0
820 2 36.29500000000001 11.093785422479996 0.7261000000000024 0 0 0
818 1 38.43 12.326428247199999 0 0 0 0
824 2 40.565000000000005 11.093785422479996 0.7261000000000024 0 0 0
822 1 42.70000000000001 12.326428247199999 0 0 0 0
828 2 44.835 11.093785422479996 0.7261000000000024 0 0 0
826 1 46.970000000000006 12.326428247199999 0 0 0 0
740 2 49.105 11.093785422479996 0.7261000000000024 -1 0 0
738 1 51.239999999999995 12.326428247199999 0 -1 0 0
744 2 53.375 11.093785422479996 0.7261000000000024 -1 0 0
742 1 55.51 12.326428247199999 0 -1 0 0
748 2 57.644999999999996 11.093785422479996 0.7261000000000024 -1 0 0
746 1 59.78 12.326428247199999 0 -1 0 0
752 2 61.915 11.093785422479996 0.7261000000000024 -1 0 0
750 1 64.05 12.326428247199999 0 -1 0 0
756 2 66.185 11.093785422479996 0.7261000000000024 -1 0 0
754 1 68.32 12.326428247199999 0 -1 0 0
760 2 70.455 11.093785422479996 0.7261000000000024 -1 0 0
758 1 72.59 12.326428247199999 0 -1 0 0
764 2 74.725 11.093785422479996 0.7261000000000024 -1 0 0
762 1 76.86 12.326428247199999 0 -1 0 0
768 2 78.995 11.093785422479996 0.7261000000000024 -1 0 0
766 1 81.13 12.326428247199999 0 -1 0 0
772 2 83.26499999999999 11.093785422479996 0.7261000000000024 -1 0 0
770 1 85.4 12.326428247199999 0 -1 0 0
776 2 87.535 11.093785422479996 0.7261000000000024 -1 0 0
774 1 89.66999999999999 12.326428247199999 0 -1 0 0
780 2 91.805 11.093785422479996 0.7261000000000024 -1 0 0
778 1 93.94 12.326428247199999 0 -1 0 0
784 2 96.07499999999999 11.093785422479996 0.7261000000000024 -1 0 0
875 2 0 14.79171389663999 0.7261000000000024 0 0 0
877 1 2.135000000000005 16.024356721359993 0 0 0 0
879 2 4.270000000000003 14.79171389663999 0.7261000000000024 0 0 0
881 1 6.405000000000001 16.024356721359993 0 0 0 0
883 2 8.540000000000006 14.79171389663999 0.7261000000000024 0 0 0
885 1 10.675000000000004 16.024356721359993 0 0 0 0
887 2 12.810000000000002 14.79171389663999 0.7261000000000024 0 0 0
889 1 14.945 16.024356721359993 0 0 0 0
891 2 17.080000000000005 14.79171389663999 0.7261000000000024 0 0 0
893 1 19.214999999999996 16.024356721359993 0 0 0 0
895 2 21.35 14.79171389663999 0.7261000000000024 0 0 0
897 1 23.485000000000007 16.024356721359993 0 0 0 0
899 2 25.619999999999997 14.79171389663999 0.7261000000000024 0 0 0
901 1 27.755000000000003 16.024356721359993 0 0 0 0
903 2 29.890000000000008 14.79171389663999 0.7261000000000024 0 0 0
905 1 32.025 16.024356721359993 0 0 0 0
907 2 34.160000000000004 14.79171389663999 0.7261000000000024 0 0 0
909 1 36.29500000000001 16.024356721359993 0 0 0 0
911 2 38.43 14.79171389663999 0.7261000000000024 0 0 0
913 1 40.565000000000005 16.024356721359993 0 0 0 0
915 2 42.70000000000001 14.79171389663999 0.7261000000000024 0 0 0
917 1 44.835 16.024356721359993 0 0 0 0
919 2 46.970000000000006 14.79171389663999 0.7261000000000024 0 0 0
829 1 49.105 16.024356721359993 0 -1 0 0
831 2 51.239999999999995 14.79171389663999 0.7261000000000024 -1 0 0
833 1 53.375 16.024356721359993 0 -1 0 0
835 2 55.51 14.79171389663999 0.7261000000000024 -1 0 0
837 1 57.644999999999996 16.024356721359993 0 -1 0 0
839 2 59.78 14.79171389663999 0.7261000000000024 -1 0 0
841 1 61.915 16.024356721359993 0 -1 0 0
843 2 64.05 14.79171389663999 0.7261000000000024 -1 0 0
845 1 66.185 16.024356721359993 0 -1 0 0
847 2 68.32 14.79171389663999 0.7261000000000024 -1 0 0
849 1 70.455 16.024356721359993 0 -1 0 0
851 2 72.59 14.79171389663999 0.7261000000000024 -1 0 0
853 1 74.725 16.024356721359993 0 -1 0 0
855 2 76.86 14.79171389663999 0.7261000000000024 -1 0 0
857 1 78.995 16.024356721359993 0 -1 0 0
859 2 81.13 14.79171389663999 0.7261000000000024 -1 0 0
861 1 83.26499999999999 16.024356721359993 0 -1 0 0
863 2 85.4 14.79171389663999 0.7261000000000024 -1 0 0
865 1 87.535 16.024356721359993 0 -1 0 0
867 2 89.66999999999999 14.79171389663999 0.7261000000000024 -1 0 0
869 1 91.805 16.024356721359993 0 -1 0 0
871 2 93.94 14.79171389663999 0.7261000000000024 -1 0 0
873 1 96.07499999999999 16.024356721359993 0 -1 0 0
880 2 2.135000000000005 18.4896423708 0.7261000000000024 0 0 0
884 2 6.405000000000001 18.4896423708 0.7261000000000024 0 0 0
888 2 10.675000000000004 18.4896423708 0.7261000000000024 0 0 0
892 2 14.945 18.4896423708 0.7261000000000024 0 0 0
896 2 19.214999999999996 18.4896423708 0.7261000000000024 0 0 0
900 2 23.485000000000007 18.4896423708 0.7261000000000024 0 0 0
904 2 27.755000000000003 18.4896423708 0.7261000000000024 0 0 0
908 2 32.025 18.4896423708 0.7261000000000024 0 0 0
912 2 36.29500000000001 18.4896423708 0.7261000000000024 0 0 0
916 2 40.565000000000005 18.4896423708 0.7261000000000024 0 0 0
920 2 44.835 18.4896423708 0.7261000000000024 0 0 0
832 2 49.105 18.4896423708 0.7261000000000024 -1 0 0
836 2 53.375 18.4896423708 0.7261000000000024 -1 0 0
840 2 57.644999999999996 18.4896423708 0.7261000000000024 -1 0 0
844 2 61.915 18.4896423708 0.7261000000000024 -1 0 0
848 2 66.185 18.4896423708 0.7261000000000024 -1 0 0
852 2 70.455 18.4896423708 0.7261000000000024 -1 0 0
856 2 74.725 18.4896423708 0.7261000000000024 -1 0 0
860 2 78.995 18.4896423708 0.7261000000000024 -1 0 0
864 2 83.26499999999999 18.4896423708 0.7261000000000024 -1 0 0
868 2 87.535 18.4896423708 0.7261000000000024 -1 0 0
872 2 91.805 18.4896423708 0.7261000000000024 -1 0 0
876 2 96.07499999999999 18.4896423708 0.7261000000000024 -1 0 0
874 1 0 19.72228519552 0 0 0 0
878 1 4.270000000000003 19.72228519552 0 0 0 0
882 1 8.540000000000006 19.72228519552 0 0 0 0
886 1 12.810000000000002 19.72228519552 0 0 0 0
890 1 17.080000000000005 19.72228519552 0 0 0 0
894 1 21.35 19.72228519552 0 0 0 0
898 1 25.619999999999997 19.72228519552 0 0 0 0
902 1 29.890000000000008 19.72228519552 0 0 0 0
906 1 34.160000000000004 19.72228519552 0 0 0 0
910 1 38.43 19.72228519552 0 0 0 0
914 1 42.70000000000001 19.72228519552 0 0 0 0
918 1 46.970000000000006 19.72228519552 0 0 0 0
830 1 51.239999999999995 19.72228519552 0 -1 0 0
834 1 55.51 19.72228519552 0 -1 0 0
838 1 59.78 19.72228519552 0 -1 0 0
842 1 64.05 19.72228519552 0 -1 0 0
846 1 68.32 19.72228519552 0 -1 0 0
850 1 72.59 19.72228519552 0 -1 0 0
854 1 76.86 19.72228519552 0 -1 0 0
858 1 81.13 19.72228519552 0 -1 0 0
862 1 85.4 19.72228519552 0 -1 0 0
866 1 89.66999999999999 19.72228519552 0 -1 0 0
870 1 93.94 19.72228519552 0 -1 0 0
967 2 0 22.187570844959993 0.7261000000000024 0 0 0
971 2 4.270000000000003 22.187570844959993 0.7261000000000024 0 0 0
975 2 8.540000000000006 22.187570844959993 0.7261000000000024 0 0 0
979 2 12.810000000000002 22.187570844959993 0.7261000000000024 0 0 0
983 2 17.080000000000005 22.187570844959993 0.7261000000000024 0 0 0
987 2 21.35 22.187570844959993 0.7261000000000024 0 0 0
991 2 25.619999999999997 22.187570844959993 0.7261000000000024 0 0 0
995 2 29.890000000000008 22.187570844959993 0.7261000000000024 0 0 0
999 2 34.160000000000004 22.187570844959993 0.7261000000000024 0 0 0
1003 2 38.43 22.187570844959993 0.7261000000000024 0 0 0
1007 2 42.70000000000001 22.187570844959993 0.7261000000000024 0 0 0
1011 2 46.970000000000006 22.187570844959993 0.7261000000000024 0 0 0
923 2 51.239999999999995 22.187570844959993 0.7261000000000024 -1 0 0
927 2 55.51 22.187570844959993 0.7261000000000024 -1 0 0
931 2 59.78 22.187570844959993 0.7261000000000024 -1 0 0
935 2 64.05 22.187570844959993 0.7261000000000024 -1 0 0
939 2 68.32 22.187570844959993 0.7261000000000024 -1 0 0
943 2 72.59 22.187570844959993 0.7261000000000024 -1 0 0
947 2 76.86 22.187570844959993 0.7261000000000024 -1 0 0
951 2 81.13 22.187570844959993 0.7261000000000024 -1 0 0
955 2 85.4 22.187570844959993 0.7261000000000024 -1 0 0
959 2 89.66999999999999 22.187570844959993 0.7261000000000024 -1 0 0
963 2 93.94 22.187570844959993 0.7261000000000024 -1 0 0
969 1 2.135000000000005 23.420213669679995 0 0 0 0
973 1 6.405000000000001 23.420213669679995 0 0 0 0
977 1 10.675000000000004 23.420213669679995 0 0 0 0
981 1 14.945 23.420213669679995 0 0 0 0
985 1 19.214999999999996 23.420213669679995 0 0 0 0
989 1 23.485000000000007 23.420213669679995 0 0 0 0
993 1 27.755000000000003 23.420213669679995 0 0 0 0
997 1 32.025 23.420213669679995 0 0 0 0
1001 1 36.29500000000001 23.420213669679995 0 0 0 0
1005 1 40.565000000000005 23.420213669679995 0 0 0 0
1009 1 44.835 23.420213669679995 0 0 0 0
921 1 49.105 23.420213669679995 0 -1 0 0
925 1 53.375 23.420213669679995 0 -1 0 0
929 1 57.644999999999996 23.420213669679995 0 -1 0 0
933 1 61.915 23.420213669679995 0 -1 0 0
937 1 66.185 23.420213669679995 0 -1 0 0
941 1 70.455 23.420213669679995 0 -1 0 0
945 1 74.725 23.420213669679995 0 -1 0 0
949 1 78.995 23.420213669679995 0 -1 0 0
953 1 83.26499999999999 23.420213669679995 0 -1 0 0
957 1 87.535 23.420213669679995 0 -1 0 0
961 1 91.805 23.420213669679995 0 -1 0 0
965 1 96.07499999999999 23.420213669679995 0 -1 0 0
972 2 2.135000000000005 25.88549931912 0.7261000000000024 0 0 0
976 2 6.405000000000001 25.88549931912 0.7261000000000024 0 0 0
980 2 10.675000000000004 25.88549931912 0.7261000000000024 0 0 0
984 2 14.945 25.88549931912 0.7261000000000024 0 0 0
988 2 19.214999999999996 25.88549931912 0.7261000000000024 0 0 0
992 2 23.485000000000007 25.88549931912 0.7261000000000024 0 0 0
996 2 27.755000000000003 25.88549931912 0.7261000000000024 0 0 0
1000 2 32.025 25.88549931912 0.7261000000000024 0 0 0
1004 2 36.29500000000001 25.88549931912 0.7261000000000024 0 0 0
1008 2 40.565000000000005 25.88549931912 0.7261000000000024 0 0 0
1012 2 44.835 25.88549931912 0.7261000000000024 0 0 0
924 2 49.105 25.88549931912 0.7261000000000024 -1 0 0
928 2 53.375 25.88549931912 0.7261000000000024 -1 0 0
932 2 57.644999999999996 25.88549931912 0.7261000000000024 -1 0 0
936 2 61.915 25.88549931912 0.7261000000000024 -1 0 0
940 2 66.185 25.88549931912 0.7261000000000024 -1 0 0
944 2 70.455 25.88549931912 0.7261000000000024 -1 0 0
948 2 74.725 25.88549931912 0.7261000000000024 -1 0 0
952 2 78.995 25.88549931912 0.7261000000000024 -1 0 0
956 2 83.26499999999999 25.88549931912 0.7261000000000024 -1 0 0
960 2 87.535 25.88549931912 0.7261000000000024 -1 0 0
964 2 91.805 25.88549931912 0.7261000000000024 -1 0 0
968 2 96.07499999999999 25.88549931912 0.7261000000000024 -1 0 0
966 1 0 27.11814214383999 0 0 0 0
970 1 4.270000000000003 27.11814214383999 0 0 0 0
974 1 8.540000000000006 27.11814214383999 0 0 0 0
978 1 12.810000000000002 27.11814214383999 0 0 0 0
982 1 17.080000000000005 27.11814214383999 0 0 0 0
986 1 21.35 27.11814214383999 0 0 0 0
990 1 25.619999999999997 27.11814214383999 0 0 0 0
994 1 29.890000000000008 27.11814214383999 0 0 0 0
998 1 34.160000000000004 27.11814214383999 0 0 0 0
1002 1 38.43 27.11814214383999 0 0 0 0
1006 1 42.70000000000001 27.11814214383999 0 0 0 0
1010 1 46.970000000000006 27.11814214383999 0 0 0 0
922 1 51.239999999999995 27.11814214383999 0 -1 0 0
926 1 55.51 27.11814214383999 0 -1 0 0
930 1 59.78 27.11814214383999 0 -1 0 0
934 1 64.05 27.11814214383999 0 -1 0 0
938 1 68.32 27.11814214383999 0 -1 0 0
942 1 72.59 27.11814214383999 0 -1 0 0
946 1 76.86 27.11814214383999 0 -1 0 0
950 1 81.13 27.11814214383999 0 -1 0 0
954 1 85.4 27.11814214383999 0 -1 0 0
958 1 89.66999999999999 27.11814214383999 0 -1 0 0
962 1 93.94 27.11814214383999 0 -1 0 0
1059 2 0 29.583427793279995 0.7261000000000024 0 0 0
1061 1 2.135000000000005 30.816070617999998 0 0 0 0
1063 2 4.270000000000003 29.583427793279995 0.7261000000000024 0 0 0
1065 1 6.405000000000001 30.816070617999998 0 0 0 0
1067 2 8.540000000000006 29.583427793279995 0.7261000000000024 0 0 0
1069 1 10.675000000000004 30.816070617999998 0 0 0 0
1071 2 12.810000000000002 29.583427793279995 0.7261000000000024 0 0 0
1073 1 14.945 30.816070617999998 0 0 0 0
1075 2 17.080000000000005 29.583427793279995 0.7261000000000024 0 0 0
1077 1 19.214999999999996 30.816070617999998 0 0 0 0
1079 2 21.35 29.583427793279995 0.7261000000000024 0 0 0
1081 1 23.485000000000007 30.816070617999998 0 0 0 0
1083 2 25.619999999999997 29.583427793279995 0.7261000000000024 0 0 0
1085 1 27.755000000000003 30.816070617999998 0 0 0 0
1087 2 29.890000000000008 29.583427793279995 0.7261000000000024 0 0 0
1089 1 32.025 30.816070617999998 0 0 0 0
1091 2 34.160000000000004 29.583427793279995 0.7261000000000024 0 0 0
1093 1 36.29500000000001 30.816070617999998 0 0 0 0
1095 2 38.43 29.583427793279995 0.7261000000000024 0 0 0
1097 1 40.565000000000005 30.816070617999998 0 0 0 0
1099 2 42.70000000000001 29.583427793279995 0.7261000000000024 0 0 0
1101 1 44.835 30.816070617999998 0 0 0 0
1103 2 46.970000000000006 29.583427793279995 0.7261000000000024 0 0 0
1013 1 49.105 30.816070617999998 0 -1 0 0
1015 2 51.239999999999995 29.583427793279995 0.7261000000000024 -1 0 0
1017 1 53.375 30.816070617999998 0 -1 0 0
1019 2 55.51 29.583427793279995 0.7261000000000024 -1 0 0
1021 1 57.644999999999996 30.816070617999998 0 -1 0 0
1023 2 59.78 29.583427793279995 0.7261000000000024 -1 0 0
1025 1 61.915 30.816070617999998 0 -1 0 0
1027 2 64.05 29.583427793279995 0.7261000000000024 -1 0 0
1029 1 66.185 30.816070617999998 0 -1 0 0
1031 2 68.32 29.583427793279995 0.7261000000000024 -1 0 0
1033 1 70.455 30.816070617999998 0 -1 0 0
1035 2 72.59 29.583427793279995 0.7261000000000024 -1 0 0
1037 1 74.725 30.816070617999998 0 -1 0 0
1039 2 76.86 29.583427793279995 0.7261000000000024 -1 0 0
1041 1 78.995 30.816070617999998 0 -1 0 0
1043 2 81.13 29.583427793279995 0.7261000000000024 -1 0 0
1045 1 83.26499999999999 30.816070617999998 0 -1 0 0
1047 2 85.4 29.583427793279995 0.7261000000000024 -1 0 0
1049 1 87.535 30.816070617999998 0 -1 0 0
1051 2 89.66999999999999 29.583427793279995 0.7261000000000024 -1 0 0
1053 1 91.805 30.816070617999998 0 -1 0 0
1055 2 93.94 29.583427793279995 0.7261000000000024 -1 0 0
1057 1 96.07499999999999 30.816070617999998 0 -1 0 0
1058 1 0 34.51399909215999 0 0 0 0
1064 2 2.135000000000005 33.28135626743999 0.7261000000000024 0 0 0
1062 1 4.270000000000003 34.51399909215999 0 0 0 0
1068 2 6.405000000000001 33.28135626743999 0.7261000000000024 0 0 0
1066 1 8.540000000000006 34.51399909215999 0 0 0 0
1072 2 10.675000000000004 33.28135626743999 0.7261000000000024 0 0 0
1070 1 12.810000000000002 34.51399909215999 0 0 0 0
1076 2 14.945 33.28135626743999 0.7261000000000024 0 0 0
1074 1 17.080000000000005 34.51399909215999 0 0 0 0
1080 2 19.214999999999996 33.28135626743999 0.7261000000000024 0 0 0
1078 1 21.35 34.51399909215999 0 0 0 0
1084 2 23.485000000000007 33.28135626743999 0.7261000000000024 0 0 0
1082 1 25.619999999999997 34.51399909215999 0 0 0 0
1088 2 27.755000000000003 33.28135626743999 0.7261000000000024 0 0 0
1086 1 29.890000000000008 34.51399909215999 0 0 0 0
1092 2 32.025 33.28135626743999 0.7261000000000024 0 0 0
1090 1 34.160000000000004 34.51399909215999 0 0 0 0
1096 2 36.29500000000001 33.28135626743999 0.7261000000000024 0 0 0
1094 1 38.43 34.51399909215999 0 0 0 0
1100 2 40.565000000000005 33.28135626743999 0.7261000000000024 0 0 0
1098 1 42.70000000000001 34.51399909215999 0 0 0 0
1104 2 44.835 33.28135626743999 0.7261000000000024 0 0 0
1102 1 46.970000000000006 34.51399909215999 0 0 0 0
1016 2 49.105 33.28135626743999 0.7261000000000024 -1 0 0
1014 1 51.239999999999995 34.51399909215999 0 -1 0 0
1020 2 53.375 33.28135626743999 0.7261000000000024 -1 0 0
1018 1 55.51 34.51399909215999 0 -1 0 0
1024 2 57.644999999999996 33.28135626743999 0.7261000000000024 -1 0 0
1022 1 59.78 34.51399909215999 0 -1 0 0
1028 2 61.915 33.28135626743999 0.7261000000000024 -1 0 0
1026 1 64.05 34.51399909215999 0 -1 0 0
1032 2 66.185 33.28135626743999 0.7261000000000024 -1 0 0
1030 1 68.32 34.51399909215999 0 -1 0 0
1036 2 70.455 33.28135626743999 0.7261000000000024 -1 0 0
1034 1 72.59 34.51399909215999 0 -1 0 0
1040 2 74.725 33.28135626743999 0.7261000000000024 -1 0 0
1038 1 76.86 34.51399909215999 0 -1 0 0
1044 2 78.995 33.28135626743999 0.7261000000000024 -1 0 0
1042 1 81.13 34.51399909215999 0 -1 0 0
1048 2 83.26499999999999 33.28135626743999 0.7261000000000024 -1 0 0
1046 1 85.4 34.51399909215999 0 -1 0 0
1052 2 87.535 33.28135626743999 0.7261000000000024 -1 0 0
1050 1 89.66999999999999 34.51399909215999 0 -1 0 0
1056 2 91.805 33.28135626743999 0.7261000000000024 -1 0 0
1054 1 93.94 34.51399909215999 0 -1 0 0
1060 2 96.07499999999999 33.28135626743999 0.7261000000000024 -1 0 0
1151 2 0 36.9792847416 0.7261000000000024 0 0 0
1155 2 4.270000000000003 36.9792847416 0.7261000000000024 0 0 0
1159 2 8.540000000000006 36.9792847416 0.7261000000000024 0 0 0
1163 2 12.810000000000002 36.9792847416 0.7261000000000024 0 0 0
1167 2 17.080000000000005 36.9792847416 0.7261000000000024 0 0 0
1171 2 21.35 36.9792847416 0.7261000000000024 0 0 0
1175 2 25.619999999999997 36.9792847416 0.7261000000000024 0 0 0
1179 2 29.890000000000008 36.9792847416 0.7261000000000024 0 0 0
1183 2 34.160000000000004 36.9792847416 0.7261000000000024 0 0 0
1187 2 38.43 36.9792847416 0.7261000000000024 0 0 0
1191 2 42.70000000000001 36.9792847416 0.7261000000000024 0 0 0
1195 2 46.970000000000006 36.9792847416 0.7261000000000024 0 0 0
1107 2 51.239999999999995 36.9792847416 0.7261000000000024 -1 0 0
1111 2 55.51 36.9792847416 0.7261000000000024 -1 0 0
1115 2 59.78 36.9792847416 0.7261000000000024 -1 0 0
1119 2 64.05 36.9792847416 0.7261000000000024 -1 0 0
1123 2 68.32 36.9792847416 0.7261000000000024 -1 0 0
1127 2 72.59 36.9792847416 0.7261000000000024 -1 0 0
1131 2 76.86 36.9792847416 0.7261000000000024 -1 0 0
1135 2 81.13 36.9792847416 0.7261000000000024 -1 0 0
1139 2 85.4 36.9792847416 0.7261000000000024 -1 0 0
1143 2 89.66999999999999 36.9792847416 0.7261000000000024 -1 0 0
1147 2 93.94 36.9792847416 0.7261000000000024 -1 0 0
1153 1 2.135000000000005 38.21192756632 0 0 0 0
1157 1 6.405000000000001 38.21192756632 0 0 0 0
1161 1 10.675000000000004 38.21192756632 0 0 0 0
1165 1 14.945 38.21192756632 0 0 0 0
1169 1 19.214999999999996 38.21192756632 0 0 0 0
1173 1 23.485000000000007 38.21192756632 0 0 0 0
1177 1 27.755000000000003 38.21192756632 0 0 0 0
1181 1 32.025 38.21192756632 0 0 0 0
1185 1 36.29500000000001 38.21192756632 0 0 0 0
1189 1 40.565000000000005 38.21192756632 0 0 0 0
1193 1 44.835 38.21192756632 0 0 0 0
1105 1 49.105 38.21192756632 0 -1 0 0
1109 1 53.375 38.21192756632 0 -1 0 0
1113 1 57.644999999999996 38.21192756632 0 -1 0 0
1117 1 61.915 38.21192756632 0 -1 0 0
1121 1 66.185 38.21192756632 0 -1 0 0
1125 1 70.455 38.21192756632 0 -1 0 0
1129 1 74.725 38.21192756632 0 -1 0 0
1133 1 78.995 38.21192756632 0 -1 0 0
1137 1 83.26499999999999 38.21192756632 0 -1 0 0
1141 1 87.535 38.21192756632 0 -1 0 0
1145 1 91.805 38.21192756632 0 -1 0 0
1149 1 96.07499999999999 38.21192756632 0 -1 0 0
1156 2 2.135000000000005 40.67721321575999 0.7261000000000024 0 0 0
1160 2 6.405000000000001 40.67721321575999 0.7261000000000024 0 0 0
1164 2 10.675000000000004 40.67721321575999 0.7261000000000024 0 0 0
1168 2 14.945 40.67721321575999 0.7261000000000024 0 0 0
1172 2 19.214999999999996 40.67721321575999 0.7261000000000024 0 0 0
1176 2 23.485000000000007 40.67721321575999 0.7261000000000024 0 0 0
1180 2 27.755000000000003 40.67721321575999 0.7261000000000024 0 0 0
1184 2 32.025 40.67721321575999 0.7261000000000024 0 0 0
1188 2 36.29500000000001 40.67721321575999 0.7261000000000024 0 0 0
1192 2 40.565000000000005 40.67721321575999 0.7261000000000024 0 0 0
1196 2 44.835 40.67721321575999 0.7261000000000024 0 0 0
1108 2 49.105 40.67721321575999 0.7261000000000024 -1 0 0
1112 2 53.375 40.67721321575999 0.7261000000000024 -1 0 0
1116 2 57.644999999999996 40.67721321575999 0.7261000000000024 -1 0 0
1120 2 61.915 40.67721321575999 0.7261000000000024 -1 0 0
1124 2 66.185 40.67721321575999 0.7261000000000024 -1 0 0
1128 2 70.455 40.67721321575999 0.7261000000000024 -1 0 0
1132 2 74.725 40.67721321575999 0.7261000000000024 -1 0 0
1136 2 78.995 40.67721321575999 0.7261000000000024 -1 0 0
1140 2 83.26499999999999 40.67721321575999 0.7261000000000024 -1 0 0
1144 2 87.535 40.67721321575999 0.7261000000000024 -1 0 0
1148 2 91.805 40.67721321575999 0.7261000000000024 -1 0 0
1152 2 96.07499999999999 40.67721321575999 0.7261000000000024 -1 0 0
1150 1 0 41.909856040479994 0 0 0 0
1154 1 4.270000000000003 41.909856040479994 0 0 0 0
1158 1 8.540000000000006 41.909856040479994 0 0 0 0
1162 1 12.810000000000002 41.909856040479994 0 0 0 0
1166 1 17.080000000000005 41.909856040479994 0 0 0 0
1170 1 21.35 41.909856040479994 0 0 0 0
1174 1 25.619999999999997 41.909856040479994 0 0 0 0
1178 1 29.890000000000008 41.909856040479994 0 0 0 0
1182 1 34.160000000000004 41.909856040479994 0 0 0 0
1186 1 38.43 41.909856040479994 0 0 0 0
1190 1 42.70000000000001 41.909856040479994 0 0 0 0
1194 1 46.970000000000006 41.909856040479994 0 0 0 0
1106 1 51.239999999999995 41.909856040479994 0 -1 0 0
1110 1 55.51 41.909856040479994 0 -1 0 0
1114 1 59.78 41.909856040479994 0 -1 0 0
1118 1 64.05 41.909856040479994 0 -1 0 0
1122 1 68.32 41.909856040479994 0 -1 0 0
1126 1 72.59 41.909856040479994 0 -1 0 0
1130 1 76.86 41.909856040479994 0 -1 0 0
1134 1 81.13 41.909856040479994 0 -1 0 0
1138 1 85.4 41.909856040479994 0 -1 0 0
1142 1 89.66999999999999 41.909856040479994 0 -1 0 0
1146 1 93.94 41.909856040479994 0 -1 0 0
1243 2 0 44.37514168992 0.7261000000000024 0 0 0
1247 2 4.270000000000003 44.37514168992 0.7261000000000024 0 0 0
1251 2 8.540000000000006 44.37514168992 0.7261000000000024 0 0 0
1255 2 12.810000000000002 44.37514168992 0.7261000000000024 0 0 0
1259 2 17.080000000000005 44.37514168992 0.7261000000000024 0 0 0
1263 2 21.35 44.37514168992 0.7261000000000024 0 0 0
1267 2 25.619999999999997 44.37514168992 0.7261000000000024 0 0 0
1271 2 29.890000000000008 44.37514168992 0.7261000000000024 0 0 0
1275 2 34.160000000000004 44.37514168992 0.7261000000000024 0 0 0
1279 2 38.43 44.37514168992 0.7261000000000024 0 0 0
1283 2 42.70000000000001 44.37514168992 0.7261000000000024 0 0 0
1287 2 46.970000000000006 44.37514168992 0.7261000000000024 0 0 0