LAMMPS data file via write_data, version 29 Aug 2024, timestep = 0, units = metal

4464 atoms
4 atom types

0 100.75 xlo xhi
0 101.324972242764 ylo yhi
0 106 zlo zhi

Masses

1 10.81
2 10.81
3 78.95999999999999
4 78.971

Atoms # atomic

2365 3 1.625 0.9381941874329982 0 0 0 0
2355 1 0 0 0.9429000000000016 0 0 0
2363 1 3.25 0 0.9429000000000016 0 0 0
2373 3 4.875 0.9381941874329982 0 0 0 0
2371 1 6.5 0 0.9429000000000016 0 0 0
2381 3 8.125 0.9381941874329982 0 0 0 0
2379 1 9.75 0 0.9429000000000016 0 0 0
2389 3 11.375 0.9381941874329982 0 0 0 0
2387 1 13 0 0.9429000000000016 0 0 0
2397 3 14.625 0.9381941874329982 0 0 0 0
2395 1 16.25 0 0.9429000000000016 0 0 0
2405 3 17.875 0.9381941874329982 0 0 0 0
2403 1 19.5 0 0.9429000000000016 0 0 0
2413 3 21.125 0.9381941874329982 0 0 0 0
2411 1 22.75 0 0.9429000000000016 0 0 0
2421 3 24.375 0.9381941874329982 0 0 0 0
2419 1 26 0 0.9429000000000016 0 0 0
2429 3 27.625 0.9381941874329982 0 0 0 0
2427 1 29.25 0 0.9429000000000016 0 0 0
2437 3 30.875 0.9381941874329982 0 0 0 0
2435 1 32.5 0 0.9429000000000016 0 0 0
2445 3 34.125 0.9381941874329982 0 0 0 0
2443 1 35.75 0 0.9429000000000016 0 0 0
2453 3 37.375 0.9381941874329982 0 0 0 0
2451 1 39 0 0.9429000000000016 0 0 0
2461 3 40.625 0.9381941874329982 0 0 0 0
2459 1 42.25 0 0.9429000000000016 0 0 0
2469 3 43.875 0.9381941874329982 0 0 0 0
2467 1 45.5 0 0.9429000000000016 0 0 0
2477 3 47.125 0.9381941874329982 0 0 0 0
2475 1 48.75 0 0.9429000000000016 0 0 0
2237 3 50.375 0.9381941874329982 0 -1 0 0
2235 1 52 0 0.9429000000000016 -1 0 0
2245 3 53.625 0.9381941874329982 0 -1 0 0
2243 1 55.25 0 0.9429000000000016 -1 0 0
2253 3 56.875 0.9381941874329982 0 -1 0 0
2251 1 58.5 0 0.9429000000000016 -1 0 0
2261 3 60.125 0.9381941874329982 0 -1 0 0
2259 1 61.75 0 0.9429000000000016 -1 0 0
2269 3 63.375 0.9381941874329982 0 -1 0 0
2267 1 65 0 0.9429000000000016 -1 0 0
2277 3 66.625 0.9381941874329982 0 -1 0 0
2275 1 68.25 0 0.9429000000000016 -1 0 0
2285 3 69.875 0.9381941874329982 0 -1 0 0
2283 1 71.5 0 0.9429000000000016 -1 0 0
2293 3 73.125 0.9381941874329982 0 -1 0 0
2291 1 74.75 0 0.9429000000000016 -1 0 0
2301 3 76.375 0.9381941874329982 0 -1 0 0
2299 1 78 0 0.9429000000000016 -1 0 0
2309 3 79.625 0.9381941874329982 0 -1 0 0
2307 1 81.25 0 0.9429000000000016 -1 0 0
2317 3 82.875 0.9381941874329982 0 -1 0 0
2315 1 84.5 0 0.9429000000000016 -1 0 0
2325 3 86.125 0.9381941874329982 0 -1 0 0
2323 1 87.75 0 0.9429000000000016 -1 0 0
2333 3 89.375 0.9381941874329982 0 -1 0 0
2331 1 91 0 0.9429000000000016 -1 0 0
2341 3 92.625 0.9381941874329982 0 -1 0 0
2339 1 94.25 0 0.9429000000000016 -1 0 0
2349 3 95.875 0.9381941874329982 0 -1 0 0
2347 1 97.5 0 0.9429000000000016 -1 0 0
2357 3 99.125 0.9381941874329982 0 -1 0 0
2364 1 1.625 2.8145825622990017 0.9429000000000016 0 0 0
2372 1 4.875 2.8145825622990017 0.9429000000000016 0 0 0
2380 1 8.125 2.8145825622990017 0.9429000000000016 0 0 0
2388 1 11.375 2.8145825622990017 0.9429000000000016 0 0 0
2396 1 14.625 2.8145825622990017 0.9429000000000016 0 0 0
2404 1 17.875 2.8145825622990017 0.9429000000000016 0 0 0
2412 1 21.125 2.8145825622990017 0.9429000000000016 0 0 0
2420 1 24.375 2.8145825622990017 0.9429000000000016 0 0 0
2428 1 27.625 2.8145825622990017 0.9429000000000016 0 0 0
2436 1 30.875 2.8145825622990017 0.9429000000000016 0 0 0
2444 1 34.125 2.8145825622990017 0.9429000000000016 0 0 0
2452 1 37.375 2.8145825622990017 0.9429000000000016 0 0 0
2460 1 40.625 2.8145825622990017 0.9429000000000016 0 0 0
2468 1 43.875 2.8145825622990017 0.9429000000000016 0 0 0
2476 1 47.125 2.8145825622990017 0.9429000000000016 0 0 0
2236 1 50.375 2.8145825622990017 0.9429000000000016 -1 0 0
2244 1 53.625 2.8145825622990017 0.9429000000000016 -1 0 0
2252 1 56.875 2.8145825622990017 0.9429000000000016 -1 0 0
2260 1 60.125 2.8145825622990017 0.9429000000000016 -1 0 0
2268 1 63.375 2.8145825622990017 0.9429000000000016 -1 0 0
2276 1 66.625 2.8145825622990017 0.9429000000000016 -1 0 0
2284 1 69.875 2.8145825622990017 0.9429000000000016 -1 0 0
2292 1 73.125 2.8145825622990017 0.9429000000000016 -1 0 0
2300 1 76.375 2.8145825622990017 0.9429000000000016 -1 0 0
2308 1 79.625 2.8145825622990017 0.9429000000000016 -1 0 0
2316 1 82.875 2.8145825622990017 0.9429000000000016 -1 0 0
2324 1 86.125 2.8145825622990017 0.9429000000000016 -1 0 0
2332 1 89.375 2.8145825622990017 0.9429000000000016 -1 0 0
2340 1 92.625 2.8145825622990017 0.9429000000000016 -1 0 0
2348 1 95.875 2.8145825622990017 0.9429000000000016 -1 0 0
2356 1 99.125 2.8145825622990017 0.9429000000000016 -1 0 0
2358 3 0 3.752776749732 0 0 0 0
2366 3 3.25 3.752776749732 0 0 0 0
2374 3 6.5 3.752776749732 0 0 0 0
2382 3 9.75 3.752776749732 0 0 0 0
2390 3 13 3.752776749732 0 0 0 0
2398 3 16.25 3.752776749732 0 0 0 0
2406 3 19.5 3.752776749732 0 0 0 0
2414 3 22.75 3.752776749732 0 0 0 0
2422 3 26 3.752776749732 0 0 0 0
2430 3 29.25 3.752776749732 0 0 0 0
2438 3 32.5 3.752776749732 0 0 0 0
2446 3 35.75 3.752776749732 0 0 0 0
2454 3 39 3.752776749732 0 0 0 0
2462 3 42.25 3.752776749732 0 0 0 0
2470 3 45.5 3.752776749732 0 0 0 0
2478 3 48.75 3.752776749732 0 0 0 0
2238 3 52 3.752776749732 0 -1 0 0
2246 3 55.25 3.752776749732 0 -1 0 0
2254 3 58.5 3.752776749732 0 -1 0 0
2262 3 61.75 3.752776749732 0 -1 0 0
2270 3 65 3.752776749732 0 -1 0 0
2278 3 68.25 3.752776749732 0 -1 0 0
2286 3 71.5 3.752776749732 0 -1 0 0
2294 3 74.75 3.752776749732 0 -1 0 0
2302 3 78 3.752776749732 0 -1 0 0
2310 3 81.25 3.752776749732 0 -1 0 0
2318 3 84.5 3.752776749732 0 -1 0 0
2326 3 87.75 3.752776749732 0 -1 0 0
2334 3 91 3.752776749732 0 -1 0 0
2342 3 94.25 3.752776749732 0 -1 0 0
2350 3 97.5 3.752776749732 0 -1 0 0
2613 3 1.625 6.567359312031002 0 0 0 0
2603 1 0 5.629165124597996 0.9429000000000016 0 0 0
2611 1 3.25 5.629165124597996 0.9429000000000016 0 0 0
2621 3 4.875 6.567359312031002 0 0 0 0
2619 1 6.5 5.629165124597996 0.9429000000000016 0 0 0
2629 3 8.125 6.567359312031002 0 0 0 0
2627 1 9.75 5.629165124597996 0.9429000000000016 0 0 0
2637 3 11.375 6.567359312031002 0 0 0 0
2635 1 13 5.629165124597996 0.9429000000000016 0 0 0
2645 3 14.625 6.567359312031002 0 0 0 0
2643 1 16.25 5.629165124597996 0.9429000000000016 0 0 0
2653 3 17.875 6.567359312031002 0 0 0 0
2651 1 19.5 5.629165124597996 0.9429000000000016 0 0 0
2661 3 21.125 6.567359312031002 0 0 0 0
2659 1 22.75 5.629165124597996 0.9429000000000016 0 0 0
2669 3 24.375 6.567359312031002 0 0 0 0
2667 1 26 5.629165124597996 0.9429000000000016 0 0 0
2677 3 27.625 6.567359312031002 0 0 0 0
2675 1 29.25 5.629165124597996 0.9429000000000016 0 0 0
2685 3 30.875 6.567359312031002 0 0 0 0
2683 1 32.5 5.629165124597996 0.9429000000000016 0 0 0
2693 3 34.125 6.567359312031002 0 0 0 0
2691 1 35.75 5.629165124597996 0.9429000000000016 0 0 0
2701 3 37.375 6.567359312031002 0 0 0 0
2699 1 39 5.629165124597996 0.9429000000000016 0 0 0
2709 3 40.625 6.567359312031002 0 0 0 0
2707 1 42.25 5.629165124597996 0.9429000000000016 0 0 0
2717 3 43.875 6.567359312031002 0 0 0 0
2715 1 45.5 5.629165124597996 0.9429000000000016 0 0 0
2725 3 47.125 6.567359312031002 0 0 0 0
2723 1 48.75 5.629165124597996 0.9429000000000016 0 0 0
2485 3 50.375 6.567359312031002 0 -1 0 0
2483 1 52 5.629165124597996 0.9429000000000016 -1 0 0
2493 3 53.625 6.567359312031002 0 -1 0 0
2491 1 55.25 5.629165124597996 0.9429000000000016 -1 0 0
2501 3 56.875 6.567359312031002 0 -1 0 0
2499 1 58.5 5.629165124597996 0.9429000000000016 -1 0 0
2509 3 60.125 6.567359312031002 0 -1 0 0
2507 1 61.75 5.629165124597996 0.9429000000000016 -1 0 0
2517 3 63.375 6.567359312031002 0 -1 0 0
2515 1 65 5.629165124597996 0.9429000000000016 -1 0 0
2525 3 66.625 6.567359312031002 0 -1 0 0
2523 1 68.25 5.629165124597996 0.9429000000000016 -1 0 0
2533 3 69.875 6.567359312031002 0 -1 0 0
2531 1 71.5 5.629165124597996 0.9429000000000016 -1 0 0
2541 3 73.125 6.567359312031002 0 -1 0 0
2539 1 74.75 5.629165124597996 0.9429000000000016 -1 0 0
2549 3 76.375 6.567359312031002 0 -1 0 0
2547 1 78 5.629165124597996 0.9429000000000016 -1 0 0
2557 3 79.625 6.567359312031002 0 -1 0 0
2555 1 81.25 5.629165124597996 0.9429000000000016 -1 0 0
2565 3 82.875 6.567359312031002 0 -1 0 0
2563 1 84.5 5.629165124597996 0.9429000000000016 -1 0 0
2573 3 86.125 6.567359312031002 0 -1 0 0
2571 1 87.75 5.629165124597996 0.9429000000000016 -1 0 0
2581 3 89.375 6.567359312031002 0 -1 0 0
2579 1 91 5.629165124597996 0.9429000000000016 -1 0 0
2589 3 92.625 6.567359312031002 0 -1 0 0
2587 1 94.25 5.629165124597996 0.9429000000000016 -1 0 0
2597 3 95.875 6.567359312031002 0 -1 0 0
2595 1 97.5 5.629165124597996 0.9429000000000016 -1 0 0
2605 3 99.125 6.567359312031002 0 -1 0 0
2606 3 0 9.381941874329996 0 0 0 0
2612 1 1.625 8.443747686896998 0.9429000000000016 0 0 0
2614 3 3.25 9.381941874329996 0 0 0 0
2620 1 4.875 8.443747686896998 0.9429000000000016 0 0 0
2622 3 6.5 9.381941874329996 0 0 0 0
2628 1 8.125 8.443747686896998 0.9429000000000016 0 0 0
2630 3 9.75 9.381941874329996 0 0 0 0
2636 1 11.375 8.443747686896998 0.9429000000000016 0 0 0
2638 3 13 9.381941874329996 0 0 0 0
2644 1 14.625 8.443747686896998 0.9429000000000016 0 0 0
2646 3 16.25 9.381941874329996 0 0 0 0
2652 1 17.875 8.443747686896998 0.9429000000000016 0 0 0
2654 3 19.5 9.381941874329996 0 0 0 0
2660 1 21.125 8.443747686896998 0.9429000000000016 0 0 0
2662 3 22.75 9.381941874329996 0 0 0 0
2668 1 24.375 8.443747686896998 0.9429000000000016 0 0 0
2670 3 26 9.381941874329996 0 0 0 0
2676 1 27.625 8.443747686896998 0.9429000000000016 0 0 0
2678 3 29.25 9.381941874329996 0 0 0 0
2684 1 30.875 8.443747686896998 0.9429000000000016 0 0 0
2686 3 32.5 9.381941874329996 0 0 0 0
2692 1 34.125 8.443747686896998 0.9429000000000016 0 0 0
2694 3 35.75 9.381941874329996 0 0 0 0
2700 1 37.375 8.443747686896998 0.9429000000000016 0 0 0
2702 3 39 9.381941874329996 0 0 0 0
2708 1 40.625 8.443747686896998 0.9429000000000016 0 0 0
2710 3 42.25 9.381941874329996 0 0 0 0
2716 1 43.875 8.443747686896998 0.9429000000000016 0 0 0
2718 3 45.5 9.381941874329996 0 0 0 0
2724 1 47.125 8.443747686896998 0.9429000000000016 0 0 0
2726 3 48.75 9.381941874329996 0 0 0 0
2484 1 50.375 8.443747686896998 0.9429000000000016 -1 0 0
2486 3 52 9.381941874329996 0 -1 0 0
2492 1 53.625 8.443747686896998 0.9429000000000016 -1 0 0
2494 3 55.25 9.381941874329996 0 -1 0 0
2500 1 56.875 8.443747686896998 0.9429000000000016 -1 0 0
2502 3 58.5 9.381941874329996 0 -1 0 0
2508 1 60.125 8.443747686896998 0.9429000000000016 -1 0 0
2510 3 61.75 9.381941874329996 0 -1 0 0
2516 1 63.375 8.443747686896998 0.9429000000000016 -1 0 0
2518 3 65 9.381941874329996 0 -1 0 0
2524 1 66.625 8.443747686896998 0.9429000000000016 -1 0 0
2526 3 68.25 9.381941874329996 0 -1 0 0
2532 1 69.875 8.443747686896998 0.9429000000000016 -1 0 0
2534 3 71.5 9.381941874329996 0 -1 0 0
2540 1 73.125 8.443747686896998 0.9429000000000016 -1 0 0
2542 3 74.75 9.381941874329996 0 -1 0 0
2548 1 76.375 8.443747686896998 0.9429000000000016 -1 0 0
2550 3 78 9.381941874329996 0 -1 0 0
2556 1 79.625 8.443747686896998 0.9429000000000016 -1 0 0
2558 3 81.25 9.381941874329996 0 -1 0 0
2564 1 82.875 8.443747686896998 0.9429000000000016 -1 0 0
2566 3 84.5 9.381941874329996 0 -1 0 0
2572 1 86.125 8.443747686896998 0.9429000000000016 -1 0 0
2574 3 87.75 9.381941874329996 0 -1 0 0
2580 1 89.375 8.443747686896998 0.9429000000000016 -1 0 0
2582 3 91 9.381941874329996 0 -1 0 0
2588 1 92.625 8.443747686896998 0.9429000000000016 -1 0 0
2590 3 94.25 9.381941874329996 0 -1 0 0
2596 1 95.875 8.443747686896998 0.9429000000000016 -1 0 0
2598 3 97.5 9.381941874329996 0 -1 0 0
2604 1 99.125 8.443747686896998 0.9429000000000016 -1 0 0
2851 1 0 11.258330249196 0.9429000000000016 0 0 0
2859 1 3.25 11.258330249196 0.9429000000000016 0 0 0
2867 1 6.5 11.258330249196 0.9429000000000016 0 0 0
2875 1 9.75 11.258330249196 0.9429000000000016 0 0 0
2883 1 13 11.258330249196 0.9429000000000016 0 0 0
2891 1 16.25 11.258330249196 0.9429000000000016 0 0 0
2899 1 19.5 11.258330249196 0.9429000000000016 0 0 0
2907 1 22.75 11.258330249196 0.9429000000000016 0 0 0
2915 1 26 11.258330249196 0.9429000000000016 0 0 0
2923 1 29.25 11.258330249196 0.9429000000000016 0 0 0
2931 1 32.5 11.258330249196 0.9429000000000016 0 0 0
2939 1 35.75 11.258330249196 0.9429000000000016 0 0 0
2947 1 39 11.258330249196 0.9429000000000016 0 0 0
2955 1 42.25 11.258330249196 0.9429000000000016 0 0 0
2963 1 45.5 11.258330249196 0.9429000000000016 0 0 0
2971 1 48.75 11.258330249196 0.9429000000000016 0 0 0
2731 1 52 11.258330249196 0.9429000000000016 -1 0 0
2739 1 55.25 11.258330249196 0.9429000000000016 -1 0 0
2747 1 58.5 11.258330249196 0.9429000000000016 -1 0 0
2755 1 61.75 11.258330249196 0.9429000000000016 -1 0 0
2763 1 65 11.258330249196 0.9429000000000016 -1 0 0
2771 1 68.25 11.258330249196 0.9429000000000016 -1 0 0
2779 1 71.5 11.258330249196 0.9429000000000016 -1 0 0
2787 1 74.75 11.258330249196 0.9429000000000016 -1 0 0
2795 1 78 11.258330249196 0.9429000000000016 -1 0 0
2803 1 81.25 11.258330249196 0.9429000000000016 -1 0 0
2811 1 84.5 11.258330249196 0.9429000000000016 -1 0 0
2819 1 87.75 11.258330249196 0.9429000000000016 -1 0 0
2827 1 91 11.258330249196 0.9429000000000016 -1 0 0
2835 1 94.25 11.258330249196 0.9429000000000016 -1 0 0
2843 1 97.5 11.258330249196 0.9429000000000016 -1 0 0
2861 3 1.625 12.196524436628998 0 0 0 0
2869 3 4.875 12.196524436628998 0 0 0 0
2877 3 8.125 12.196524436628998 0 0 0 0
2885 3 11.375 12.196524436628998 0 0 0 0
2893 3 14.625 12.196524436628998 0 0 0 0
2901 3 17.875 12.196524436628998 0 0 0 0
2909 3 21.125 12.196524436628998 0 0 0 0
2917 3 24.375 12.196524436628998 0 0 0 0
2925 3 27.625 12.196524436628998 0 0 0 0
2933 3 30.875 12.196524436628998 0 0 0 0
2941 3 34.125 12.196524436628998 0 0 0 0
2949 3 37.375 12.196524436628998 0 0 0 0
2957 3 40.625 12.196524436628998 0 0 0 0
2965 3 43.875 12.196524436628998 0 0 0 0
2973 3 47.125 12.196524436628998 0 0 0 0
2733 3 50.375 12.196524436628998 0 -1 0 0
2741 3 53.625 12.196524436628998 0 -1 0 0
2749 3 56.875 12.196524436628998 0 -1 0 0
2757 3 60.125 12.196524436628998 0 -1 0 0
2765 3 63.375 12.196524436628998 0 -1 0 0
2773 3 66.625 12.196524436628998 0 -1 0 0
2781 3 69.875 12.196524436628998 0 -1 0 0
2789 3 73.125 12.196524436628998 0 -1 0 0
2797 3 76.375 12.196524436628998 0 -1 0 0
2805 3 79.625 12.196524436628998 0 -1 0 0
2813 3 82.875 12.196524436628998 0 -1 0 0
2821 3 86.125 12.196524436628998 0 -1 0 0
2829 3 89.375 12.196524436628998 0 -1 0 0
2837 3 92.625 12.196524436628998 0 -1 0 0
2845 3 95.875 12.196524436628998 0 -1 0 0
2853 3 99.125 12.196524436628998 0 -1 0 0
2860 1 1.625 14.072912811495002 0.9429000000000016 0 0 0
2868 1 4.875 14.072912811495002 0.9429000000000016 0 0 0
2876 1 8.125 14.072912811495002 0.9429000000000016 0 0 0
2884 1 11.375 14.072912811495002 0.9429000000000016 0 0 0
2892 1 14.625 14.072912811495002 0.9429000000000016 0 0 0
2900 1 17.875 14.072912811495002 0.9429000000000016 0 0 0
2908 1 21.125 14.072912811495002 0.9429000000000016 0 0 0
2916 1 24.375 14.072912811495002 0.9429000000000016 0 0 0
2924 1 27.625 14.072912811495002 0.9429000000000016 0 0 0
2932 1 30.875 14.072912811495002 0.9429000000000016 0 0 0
2940 1 34.125 14.072912811495002 0.9429000000000016 0 0 0
2948 1 37.375 14.072912811495002 0.9429000000000016 0 0 0
2956 1 40.625 14.072912811495002 0.9429000000000016 0 0 0
2964 1 43.875 14.072912811495002 0.9429000000000016 0 0 0
2972 1 47.125 14.072912811495002 0.9429000000000016 0 0 0
2732 1 50.375 14.072912811495002 0.9429000000000016 -1 0 0
2740 1 53.625 14.072912811495002 0.9429000000000016 -1 0 0
2748 1 56.875 14.072912811495002 0.9429000000000016 -1 0 0
2756 1 60.125 14.072912811495002 0.9429000000000016 -1 0 0
2764 1 63.375 14.072912811495002 0.9429000000000016 -1 0 0
2772 1 66.625 14.072912811495002 0.9429000000000016 -1 0 0
2780 1 69.875 14.072912811495002 0.9429000000000016 -1 0 0
2788 1 73.125 14.072912811495002 0.9429000000000016 -1 0 0
2796 1 76.375 14.072912811495002 0.9429000000000016 -1 0 0
2804 1 79.625 14.072912811495002 0.9429000000000016 -1 0 0
2812 1 82.875 14.072912811495002 0.9429000000000016 -1 0 0
2820 1 86.125 14.072912811495002 0.9429000000000016 -1 0 0
2828 1 89.375 14.072912811495002 0.9429000000000016 -1 0 0
2836 1 92.625 14.072912811495002 0.9429000000000016 -1 0 0
2844 1 95.875 14.072912811495002 0.9429000000000016 -1 0 0
2852 1 99.125 14.072912811495002 0.9429000000000016 -1 0 0
2854 3 0 15.011106998928 0 0 0 0
2862 3 3.25 15.011106998928 0 0 0 0
2870 3 6.5 15.011106998928 0 0 0 0
2878 3 9.75 15.011106998928 0 0 0 0
2886 3 13 15.011106998928 0 0 0 0
2894 3 16.25 15.011106998928 0 0 0 0
2902 3 19.5 15.011106998928 0 0 0 0
2910 3 22.75 15.011106998928 0 0 0 0
2918 3 26 15.011106998928 0 0 0 0
2926 3 29.25 15.011106998928 0 0 0 0
2934 3 32.5 15.011106998928 0 0 0 0
2942 3 35.75 15.011106998928 0 0 0 0
2950 3 39 15.011106998928 0 0 0 0
2958 3 42.25 15.011106998928 0 0 0 0
2966 3 45.5 15.011106998928 0 0 0 0
2974 3 48.75 15.011106998928 0 0 0 0
2734 3 52 15.011106998928 0 -1 0 0
2742 3 55.25 15.011106998928 0 -1 0 0
2750 3 58.5 15.011106998928 0 -1 0 0
2758 3 61.75 15.011106998928 0 -1 0 0
2766 3 65 15.011106998928 0 -1 0 0
2774 3 68.25 15.011106998928 0 -1 0 0
2782 3 71.5 15.011106998928 0 -1 0 0
2790 3 74.75 15.011106998928 0 -1 0 0
2798 3 78 15.011106998928 0 -1 0 0
2806 3 81.25 15.011106998928 0 -1 0 0
2814 3 84.5 15.011106998928 0 -1 0 0
2822 3 87.75 15.011106998928 0 -1 0 0
2830 3 91 15.011106998928 0 -1 0 0
2838 3 94.25 15.011106998928 0 -1 0 0
2846 3 97.5 15.011106998928 0 -1 0 0
3109 3 1.625 17.825689561226994 0 0 0 0
3099 1 0 16.887495373793996 0.9429000000000016 0 0 0
3107 1 3.25 16.887495373793996 0.9429000000000016 0 0 0
3117 3 4.875 17.825689561226994 0 0 0 0
3115 1 6.5 16.887495373793996 0.9429000000000016 0 0 0
3125 3 8.125 17.825689561226994 0 0 0 0
3123 1 9.75 16.887495373793996 0.9429000000000016 0 0 0
3133 3 11.375 17.825689561226994 0 0 0 0
3131 1 13 16.887495373793996 0.9429000000000016 0 0 0
3141 3 14.625 17.825689561226994 0 0 0 0
3139 1 16.25 16.887495373793996 0.9429000000000016 0 0 0
3149 3 17.875 17.825689561226994 0 0 0 0
3147 1 19.5 16.887495373793996 0.9429000000000016 0 0 0
3157 3 21.125 17.825689561226994 0 0 0 0
3155 1 22.75 16.887495373793996 0.9429000000000016 0 0 0
3165 3 24.375 17.825689561226994 0 0 0 0
3163 1 26 16.887495373793996 0.9429000000000016 0 0 0
3173 3 27.625 17.825689561226994 0 0 0 0
3171 1 29.25 16.887495373793996 0.9429000000000016 0 0 0
3181 3 30.875 17.825689561226994 0 0 0 0
3179 1 32.5 16.887495373793996 0.9429000000000016 0 0 0
3189 3 34.125 17.825689561226994 0 0 0 0
3187 1 35.75 16.887495373793996 0.9429000000000016 0 0 0
3197 3 37.375 17.825689561226994 0 0 0 0
3195 1 39 16.887495373793996 0.9429000000000016 0 0 0
3205 3 40.625 17.825689561226994 0 0 0 0
3203 1 42.25 16.887495373793996 0.9429000000000016 0 0 0
3213 3 43.875 17.825689561226994 0 0 0 0
3211 1 45.5 16.887495373793996 0.9429000000000016 0 0 0
3221 3 47.125 17.825689561226994 0 0 0 0
3219 1 48.75 16.887495373793996 0.9429000000000016 0 0 0
2981 3 50.375 17.825689561226994 0 -1 0 0
2979 1 52 16.887495373793996 0.9429000000000016 -1 0 0
2989 3 53.625 17.825689561226994 0 -1 0 0
2987 1 55.25 16.887495373793996 0.9429000000000016 -1 0 0
2997 3 56.875 17.825689561226994 0 -1 0 0
2995 1 58.5 16.887495373793996 0.9429000000000016 -1 0 0
3005 3 60.125 17.825689561226994 0 -1 0 0
3003 1 61.75 16.887495373793996 0.9429000000000016 -1 0 0
3013 3 63.375 17.825689561226994 0 -1 0 0
3011 1 65 16.887495373793996 0.9429000000000016 -1 0 0
3021 3 66.625 17.825689561226994 0 -1 0 0
3019 1 68.25 16.887495373793996 0.9429000000000016 -1 0 0
3029 3 69.875 17.825689561226994 0 -1 0 0
3027 1 71.5 16.887495373793996 0.9429000000000016 -1 0 0
3037 3 73.125 17.825689561226994 0 -1 0 0
3035 1 74.75 16.887495373793996 0.9429000000000016 -1 0 0
3045 3 76.375 17.825689561226994 0 -1 0 0
3043 1 78 16.887495373793996 0.9429000000000016 -1 0 0
3053 3 79.625 17.825689561226994 0 -1 0 0
3051 1 81.25 16.887495373793996 0.9429000000000016 -1 0 0
3061 3 82.875 17.825689561226994 0 -1 0 0
3059 1 84.5 16.887495373793996 0.9429000000000016 -1 0 0
3069 3 86.125 17.825689561226994 0 -1 0 0
3067 1 87.75 16.887495373793996 0.9429000000000016 -1 0 0
3077 3 89.375 17.825689561226994 0 -1 0 0
3075 1 91 16.887495373793996 0.9429000000000016 -1 0 0
3085 3 92.625 17.825689561226994 0 -1 0 0
3083 1 94.25 16.887495373793996 0.9429000000000016 -1 0 0
3093 3 95.875 17.825689561226994 0 -1 0 0
3091 1 97.5 16.887495373793996 0.9429000000000016 -1 0 0
3101 3 99.125 17.825689561226994 0 -1 0 0
3108 1 1.625 19.702077936093005 0.9429000000000016 0 0 0
3116 1 4.875 19.702077936093005 0.9429000000000016 0 0 0
3124 1 8.125 19.702077936093005 0.9429000000000016 0 0 0
3132 1 11.375 19.702077936093005 0.9429000000000016 0 0 0
3140 1 14.625 19.702077936093005 0.9429000000000016 0 0 0
3148 1 17.875 19.702077936093005 0.9429000000000016 0 0 0
3156 1 21.125 19.702077936093005 0.9429000000000016 0 0 0
3164 1 24.375 19.702077936093005 0.9429000000000016 0 0 0
3172 1 27.625 19.702077936093005 0.9429000000000016 0 0 0
3180 1 30.875 19.702077936093005 0.9429000000000016 0 0 0
3188 1 34.125 19.702077936093005 0.9429000000000016 0 0 0
3196 1 37.375 19.702077936093005 0.9429000000000016 0 0 0
3204 1 40.625 19.702077936093005 0.9429000000000016 0 0 0
3212 1 43.875 19.702077936093005 0.9429000000000016 0 0 0
3220 1 47.125 19.702077936093005 0.9429000000000016 0 0 0
2980 1 50.375 19.702077936093005 0.9429000000000016 -1 0 0
2988 1 53.625 19.702077936093005 0.9429000000000016 -1 0 0
2996 1 56.875 19.702077936093005 0.9429000000000016 -1 0 0
3004 1 60.125 19.702077936093005 0.9429000000000016 -1 0 0
3012 1 63.375 19.702077936093005 0.9429000000000016 -1 0 0
3020 1 66.625 19.702077936093005 0.9429000000000016 -1 0 0
3028 1 69.875 19.702077936093005 0.9429000000000016 -1 0 0
3036 1 73.125 19.702077936093005 0.9429000000000016 -1 0 0
3044 1 76.375 19.702077936093005 0.9429000000000016 -1 0 0
3052 1 79.625 19.702077936093005 0.9429000000000016 -1 0 0
3060 1 82.875 19.702077936093005 0.9429000000000016 -1 0 0
3068 1 86.125 19.702077936093005 0.9429000000000016 -1 0 0
3076 1 89.375 19.702077936093005 0.9429000000000016 -1 0 0
3084 1 92.625 19.702077936093005 0.9429000000000016 -1 0 0
3092 1 95.875 19.702077936093005 0.9429000000000016 -1 0 0
3100 1 99.125 19.702077936093005 0.9429000000000016 -1 0 0
3102 3 0 20.640272123526003 0 0 0 0
3110 3 3.25 20.640272123526003 0 0 0 0
3118 3 6.5 20.640272123526003 0 0 0 0
3126 3 9.75 20.640272123526003 0 0 0 0
3134 3 13 20.640272123526003 0 0 0 0
3142 3 16.25 20.640272123526003 0 0 0 0
3150 3 19.5 20.640272123526003 0 0 0 0
3158 3 22.75 20.640272123526003 0 0 0 0
3166 3 26 20.640272123526003 0 0 0 0
3174 3 29.25 20.640272123526003 0 0 0 0
3182 3 32.5 20.640272123526003 0 0 0 0
3190 3 35.75 20.640272123526003 0 0 0 0
3198 3 39 20.640272123526003 0 0 0 0
3206 3 42.25 20.640272123526003 0 0 0 0
3214 3 45.5 20.640272123526003 0 0 0 0
3222 3 48.75 20.640272123526003 0 0 0 0
2982 3 52 20.640272123526003 0 -1 0 0
2990 3 55.25 20.640272123526003 0 -1 0 0
2998 3 58.5 20.640272123526003 0 -1 0 0
3006 3 61.75 20.640272123526003 0 -1 0 0
3014 3 65 20.640272123526003 0 -1 0 0
3022 3 68.25 20.640272123526003 0 -1 0 0
3030 3 71.5 20.640272123526003 0 -1 0 0
3038 3 74.75 20.640272123526003 0 -1 0 0
3046 3 78 20.640272123526003 0 -1 0 0
3054 3 81.25 20.640272123526003 0 -1 0 0
3062 3 84.5 20.640272123526003 0 -1 0 0
3070 3 87.75 20.640272123526003 0 -1 0 0
3078 3 91 20.640272123526003 0 -1 0 0
3086 3 94.25 20.640272123526003 0 -1 0 0
3094 3 97.5 20.640272123526003 0 -1 0 0
3347 1 0 22.516660498392 0.9429000000000016 0 0 0
3355 1 3.25 22.516660498392 0.9429000000000016 0 0 0
3363 1 6.5 22.516660498392 0.9429000000000016 0 0 0
3371 1 9.75 22.516660498392 0.9429000000000016 0 0 0
3379 1 13 22.516660498392 0.9429000000000016 0 0 0
3387 1 16.25 22.516660498392 0.9429000000000016 0 0 0
3395 1 19.5 22.516660498392 0.9429000000000016 0 0 0
3403 1 22.75 22.516660498392 0.9429000000000016 0 0 0
3411 1 26 22.516660498392 0.9429000000000016 0 0 0
3419 1 29.25 22.516660498392 0.9429000000000016 0 0 0
3427 1 32.5 22.516660498392 0.9429000000000016 0 0 0
3435 1 35.75 22.516660498392 0.9429000000000016 0 0 0
3443 1 39 22.516660498392 0.9429000000000016 0 0 0
3451 1 42.25 22.516660498392 0.9429000000000016 0 0 0
3459 1 45.5 22.516660498392 0.9429000000000016 0 0 0
3467 1 48.75 22.516660498392 0.9429000000000016 0 0 0
3227 1 52 22.516660498392 0.9429000000000016 -1 0 0
3235 1 55.25 22.516660498392 0.9429000000000016 -1 0 0
3243 1 58.5 22.516660498392 0.9429000000000016 -1 0 0
3251 1 61.75 22.516660498392 0.9429000000000016 -1 0 0
3259 1 65 22.516660498392 0.9429000000000016 -1 0 0
3267 1 68.25 22.516660498392 0.9429000000000016 -1 0 0
3275 1 71.5 22.516660498392 0.9429000000000016 -1 0 0
3283 1 74.75 22.516660498392 0.9429000000000016 -1 0 0
3291 1 78 22.516660498392 0.9429000000000016 -1 0 0
3299 1 81.25 22.516660498392 0.9429000000000016 -1 0 0
3307 1 84.5 22.516660498392 0.9429000000000016 -1 0 0
3315 1 87.75 22.516660498392 0.9429000000000016 -1 0 0
3323 1 91 22.516660498392 0.9429000000000016 -1 0 0
3331 1 94.25 22.516660498392 0.9429000000000016 -1 0 0
3339 1 97.5 22.516660498392 0.9429000000000016 -1 0 0
3357 3 1.625 23.454854685824998 0 0 0 0
3365 3 4.875 23.454854685824998 0 0 0 0
3373 3 8.125 23.454854685824998 0 0 0 0
3381 3 11.375 23.454854685824998 0 0 0 0
3389 3 14.625 23.454854685824998 0 0 0 0
3397 3 17.875 23.454854685824998 0 0 0 0
3405 3 21.125 23.454854685824998 0 0 0 0
3413 3 24.375 23.454854685824998 0 0 0 0
3421 3 27.625 23.454854685824998 0 0 0 0
3429 3 30.875 23.454854685824998 0 0 0 0
3437 3 34.125 23.454854685824998 0 0 0 0
3445 3 37.375 23.454854685824998 0 0 0 0
3453 3 40.625 23.454854685824998 0 0 0 0
3461 3 43.875 23.454854685824998 0 0 0 0
3469 3 47.125 23.454854685824998 0 0 0 0
3229 3 50.375 23.454854685824998 0 -1 0 0
3237 3 53.625 23.454854685824998 0 -1 0 0
3245 3 56.875 23.454854685824998 0 -1 0 0
3253 3 60.125 23.454854685824998 0 -1 0 0
3261 3 63.375 23.454854685824998 0 -1 0 0
3269 3 66.625 23.454854685824998 0 -1 0 0
3277 3 69.875 23.454854685824998 0 -1 0 0
3285 3 73.125 23.454854685824998 0 -1 0 0
3293 3 76.375 23.454854685824998 0 -1 0 0
3301 3 79.625 23.454854685824998 0 -1 0 0
3309 3 82.875 23.454854685824998 0 -1 0 0
3317 3 86.125 23.454854685824998 0 -1 0 0
3325 3 89.375 23.454854685824998 0 -1 0 0
3333 3 92.625 23.454854685824998 0 -1 0 0
3341 3 95.875 23.454854685824998 0 -1 0 0
3349 3 99.125 23.454854685824998 0 -1 0 0
3350 3 0 26.269437248123992 0 0 0 0
3356 1 1.625 25.331243060690994 0.9429000000000016 0 0 0
3358 3 3.25 26.269437248123992 0 0 0 0
3364 1 4.875 25.331243060690994 0.9429000000000016 0 0 0
3366 3 6.5 26.269437248123992 0 0 0 0
3372 1 8.125 25.331243060690994 0.9429000000000016 0 0 0
3374 3 9.75 26.269437248123992 0 0 0 0
3380 1 11.375 25.331243060690994 0.9429000000000016 0 0 0
3382 3 13 26.269437248123992 0 0 0 0
3388 1 14.625 25.331243060690994 0.9429000000000016 0 0 0
3390 3 16.25 26.269437248123992 0 0 0 0
3396 1 17.875 25.331243060690994 0.9429000000000016 0 0 0
3398 3 19.5 26.269437248123992 0 0 0 0
3404 1 21.125 25.331243060690994 0.9429000000000016 0 0 0
3406 3 22.75 26.269437248123992 0 0 0 0
3412 1 24.375 25.331243060690994 0.9429000000000016 0 0 0
3414 3 26 26.269437248123992 0 0 0 0
3420 1 27.625 25.331243060690994 0.9429000000000016 0 0 0
3422 3 29.25 26.269437248123992 0 0 0 0
3428 1 30.875 25.331243060690994 0.9429000000000016 0 0 0
3430 3 32.5 26.269437248123992 0 0 0 0
3436 1 34.125 25.331243060690994 0.9429000000000016 0 0 0
3438 3 35.75 26.269437248123992 0 0 0 0
3444 1 37.375 25.331243060690994 0.9429000000000016 0 0 0
3446 3 39 26.269437248123992 0 0 0 0
3452 1 40.625 25.331243060690994 0.9429000000000016 0 0 0
3454 3 42.25 26.269437248123992 0 0 0 0
3460 1 43.875 25.331243060690994 0.9429000000000016 0 0 0
3462 3 45.5 26.269437248123992 0 0 0 0
3468 1 47.125 25.331243060690994 0.9429000000000016 0 0 0
3470 3 48.75 26.269437248123992 0 0 0 0
3228 1 50.375 25.331243060690994 0.9429000000000016 -1 0 0
3230 3 52 26.269437248123992 0 -1 0 0
3236 1 53.625 25.331243060690994 0.9429000000000016 -1 0 0
3238 3 55.25 26.269437248123992 0 -1 0 0
3244 1 56.875 25.331243060690994 0.9429000000000016 -1 0 0
3246 3 58.5 26.269437248123992 0 -1 0 0
3252 1 60.125 25.331243060690994 0.9429000000000016 -1 0 0
3254 3 61.75 26.269437248123992 0 -1 0 0
3260 1 63.375 25.331243060690994 0.9429000000000016 -1 0 0
3262 3 65 26.269437248123992 0 -1 0 0
3268 1 66.625 25.331243060690994 0.9429000000000016 -1 0 0
3270 3 68.25 26.269437248123992 0 -1 0 0
3276 1 69.875 25.331243060690994 0.9429000000000016 -1 0 0
3278 3 71.5 26.269437248123992 0 -1 0 0
3284 1 73.125 25.331243060690994 0.9429000000000016 -1 0 0
3286 3 74.75 26.269437248123992 0 -1 0 0
3292 1 76.375 25.331243060690994 0.9429000000000016 -1 0 0
3294 3 78 26.269437248123992 0 -1 0 0
3300 1 79.625 25.331243060690994 0.9429000000000016 -1 0 0
3302 3 81.25 26.269437248123992 0 -1 0 0
3308 1 82.875 25.331243060690994 0.9429000000000016 -1 0 0
3310 3 84.5 26.269437248123992 0 -1 0 0
3316 1 86.125 25.331243060690994 0.9429000000000016 -1 0 0
3318 3 87.75 26.269437248123992 0 -1 0 0
3324 1 89.375 25.331243060690994 0.9429000000000016 -1 0 0
3326 3 91 26.269437248123992 0 -1 0 0
3332 1 92.625 25.331243060690994 0.9429000000000016 -1 0 0
3334 3 94.25 26.269437248123992 0 -1 0 0
3340 1 95.875 25.331243060690994 0.9429000000000016 -1 0 0
3342 3 97.5 26.269437248123992 0 -1 0 0
3348 1 99.125 25.331243060690994 0.9429000000000016 -1 0 0
3595 1 0 28.145825622990003 0.9429000000000016 0 0 0
3603 1 3.25 28.145825622990003 0.9429000000000016 0 0 0
3611 1 6.5 28.145825622990003 0.9429000000000016 0 0 0
3619 1 9.75 28.145825622990003 0.9429000000000016 0 0 0
3627 1 13 28.145825622990003 0.9429000000000016 0 0 0
3635 1 16.25 28.145825622990003 0.9429000000000016 0 0 0
3643 1 19.5 28.145825622990003 0.9429000000000016 0 0 0
3651 1 22.75 28.145825622990003 0.9429000000000016 0 0 0
3659 1 26 28.145825622990003 0.9429000000000016 0 0 0