LAMMPS data file via write_data, version 29 Aug 2024, timestep = 1, units = metal

8928 atoms
8 atom types

0 100.75 xlo xhi
0 101.324972242764 ylo yhi
-50 113.40934058430014 zlo zhi

Masses

1 10.81
2 10.81
3 10.81
4 10.81
5 78.971
6 78.971
7 78.971
8 78.971

Atoms # atomic

2365 5 1.6250027556607103 0.9381921577538035 0.000391961161217657 0 0 0
2373 5 4.87500275566071 0.9381921577538035 0.0003919611612176569 0 0 0
2364 1 1.6250018844066247 2.81458212138388 0.9434569333587336 0 0 0
2372 1 4.8750018844066245 2.81458212138388 0.9434569333587336 0 0 0
2358 5 2.7556607103521172e-06 3.7527747200528023 0.00039196116121625586 0 0 0
2366 5 3.2500027556607103 3.7527747200528023 0.0003919611612162558 0 0 0
2603 1 1.8844066246837877e-06 5.62916468368288 0.9434569333587333 0 0 0
2611 1 3.2500018844066245 5.62916468368288 0.9434569333587333 0 0 0
2381 5 8.125002755660711 0.9381921577538035 0.000391961161217657 0 0 0
2389 5 11.375002755660711 0.9381921577538035 0.00039196116121765703 0 0 0
2380 1 8.125001884406625 2.81458212138388 0.9434569333587336 0 0 0
2388 1 11.375001884406625 2.81458212138388 0.9434569333587336 0 0 0
2374 5 6.50000275566071 3.7527747200528023 0.00039196116121625586 0 0 0
2382 5 9.750002755660711 3.7527747200528023 0.0003919611612162558 0 0 0
2619 1 6.5000018844066245 5.62916468368288 0.9434569333587333 0 0 0
2627 1 9.750001884406625 5.62916468368288 0.9434569333587333 0 0 0
2397 5 14.625002755660711 0.9381921577538035 0.0003919611612176569 0 0 0
2396 1 14.625001884406625 2.81458212138388 0.9434569333587336 0 0 0
2390 5 13.000002755660711 3.7527747200528023 0.0003919611612162558 0 0 0
2398 5 16.25000275566071 3.7527747200528023 0.0003919611612162558 0 0 0
2635 1 13.000001884406625 5.62916468368288 0.9434569333587333 0 0 0
2643 1 16.250001884406625 5.62916468368288 0.9434569333587333 0 0 0
2405 5 17.87500275566071 0.9381921577538035 0.0003919611612176569 0 0 0
2413 5 21.12500275566071 0.9381921577538035 0.0003919611612176569 0 0 0
2404 1 17.875001884406625 2.81458212138388 0.9434569333587336 0 0 0
2412 1 21.125001884406625 2.81458212138388 0.9434569333587336 0 0 0
2406 5 19.50000275566071 3.7527747200528023 0.0003919611612162558 0 0 0
2414 5 22.75000275566071 3.7527747200528023 0.0003919611612162558 0 0 0
2651 1 19.500001884406625 5.62916468368288 0.9434569333587333 0 0 0
2659 1 22.750001884406625 5.62916468368288 0.9434569333587333 0 0 0
2421 5 24.37500275566071 0.9381921577538035 0.000391961161217657 0 0 0
2429 5 27.62500275566071 0.9381921577538035 0.0003919611612176569 0 0 0
2420 1 24.375001884406625 2.81458212138388 0.9434569333587336 0 0 0
2428 1 27.625001884406625 2.81458212138388 0.9434569333587336 0 0 0
2422 5 26.00000275566071 3.7527747200528023 0.0003919611612162558 0 0 0
2430 5 29.25000275566071 3.7527747200528023 0.00039196116121625586 0 0 0
2667 1 26.000001884406625 5.62916468368288 0.9434569333587333 0 0 0
2675 1 29.250001884406625 5.62916468368288 0.9434569333587333 0 0 0
2437 5 30.87500275566071 0.9381921577538035 0.000391961161217657 0 0 0
2445 5 34.12500275566071 0.9381921577538035 0.0003919611612176569 0 0 0
2436 1 30.875001884406625 2.81458212138388 0.9434569333587336 0 0 0
2444 1 34.12500188440662 2.81458212138388 0.9434569333587336 0 0 0
2438 5 32.50000275566071 3.7527747200528023 0.0003919611612162558 0 0 0
2683 1 32.50000188440662 5.62916468368288 0.9434569333587333 0 0 0
2453 5 37.37500275566071 0.9381921577538035 0.000391961161217657 0 0 0
2461 5 40.62500275566071 0.9381921577538035 0.0003919611612176569 0 0 0
2452 1 37.37500188440662 2.81458212138388 0.9434569333587336 0 0 0
2460 1 40.62500188440662 2.81458212138388 0.9434569333587336 0 0 0
2446 5 35.75000275566071 3.7527747200528023 0.00039196116121625586 0 0 0
2454 5 39.00000275566071 3.7527747200528023 0.0003919611612162558 0 0 0
2691 1 35.75000188440662 5.62916468368288 0.9434569333587333 0 0 0
2699 1 39.00000188440662 5.62916468368288 0.9434569333587333 0 0 0
2469 5 43.87500275566071 0.9381921577538035 0.000391961161217657 0 0 0
2477 5 47.12500275566071 0.9381921577538035 0.00039196116121765703 0 0 0
2468 1 43.87500188440662 2.81458212138388 0.9434569333587336 0 0 0
2476 1 47.12500188440662 2.81458212138388 0.9434569333587336 0 0 0
2462 5 42.25000275566071 3.7527747200528023 0.00039196116121625586 0 0 0
2470 5 45.50000275566071 3.7527747200528023 0.0003919611612162558 0 0 0
2707 1 42.25000188440662 5.62916468368288 0.9434569333587333 0 0 0
2715 1 45.50000188440662 5.62916468368288 0.9434569333587333 0 0 0
2237 5 50.37500275566071 0.9381921577538035 0.00039196116121765703 -1 0 0
2236 1 50.37500188440662 2.81458212138388 0.9434569333587336 -1 0 0
2478 5 48.75000275566071 3.7527747200528023 0.00039196116121625586 0 0 0
2238 5 52.00000275566071 3.7527747200528023 0.0003919611612162558 -1 0 0
2723 1 48.75000188440662 5.62916468368288 0.9434569333587333 0 0 0
2483 1 52.00000188440662 5.62916468368288 0.9434569333587333 -1 0 0
2245 5 53.62500275566071 0.9381921577538035 0.000391961161217657 -1 0 0
2253 5 56.87500275566071 0.9381921577538035 0.0003919611612176569 -1 0 0
2244 1 53.62500188440662 2.81458212138388 0.9434569333587336 -1 0 0
2252 1 56.87500188440662 2.81458212138388 0.9434569333587336 -1 0 0
2246 5 55.25000275566071 3.7527747200528023 0.0003919611612162558 -1 0 0
2254 5 58.50000275566071 3.7527747200528023 0.00039196116121625586 -1 0 0
2491 1 55.25000188440662 5.62916468368288 0.9434569333587333 -1 0 0
2499 1 58.50000188440662 5.62916468368288 0.9434569333587333 -1 0 0
2261 5 60.12500275566071 0.9381921577538035 0.000391961161217657 -1 0 0
2269 5 63.37500275566071 0.9381921577538035 0.0003919611612176569 -1 0 0
2260 1 60.12500188440662 2.81458212138388 0.9434569333587336 -1 0 0
2268 1 63.37500188440662 2.81458212138388 0.9434569333587336 -1 0 0
2262 5 61.75000275566071 3.7527747200528023 0.0003919611612162558 -1 0 0
2270 5 65.00000275566072 3.7527747200528023 0.00039196116121625586 -1 0 0
2507 1 61.75000188440662 5.62916468368288 0.9434569333587333 -1 0 0
2515 1 65.00000188440663 5.62916468368288 0.9434569333587333 -1 0 0
2277 5 66.62500275566072 0.9381921577538035 0.000391961161217657 -1 0 0
2285 5 69.87500275566072 0.9381921577538035 0.0003919611612176569 -1 0 0
2276 1 66.62500188440663 2.81458212138388 0.9434569333587336 -1 0 0
2284 1 69.87500188440663 2.81458212138388 0.9434569333587336 -1 0 0
2278 5 68.25000275566072 3.7527747200528023 0.0003919611612162558 -1 0 0
2523 1 68.25000188440663 5.62916468368288 0.9434569333587333 -1 0 0
2293 5 73.12500275566072 0.9381921577538035 0.000391961161217657 -1 0 0
2301 5 76.37500275566072 0.9381921577538035 0.00039196116121765703 -1 0 0
2292 1 73.12500188440663 2.81458212138388 0.9434569333587336 -1 0 0
2300 1 76.37500188440663 2.81458212138388 0.9434569333587336 -1 0 0
2286 5 71.50000275566072 3.7527747200528023 0.00039196116121625586 -1 0 0
2294 5 74.75000275566072 3.7527747200528023 0.0003919611612162558 -1 0 0
2531 1 71.50000188440663 5.62916468368288 0.9434569333587333 -1 0 0
2539 1 74.75000188440663 5.62916468368288 0.9434569333587333 -1 0 0
2309 5 79.62500275566072 0.9381921577538035 0.0003919611612176569 -1 0 0
2317 5 82.87500275566072 0.9381921577538035 0.0003919611612176569 -1 0 0
2308 1 79.62500188440663 2.81458212138388 0.9434569333587336 -1 0 0
2316 1 82.87500188440663 2.81458212138388 0.9434569333587336 -1 0 0
2302 5 78.00000275566072 3.7527747200528023 0.0003919611612162558 -1 0 0
2310 5 81.25000275566072 3.7527747200528023 0.0003919611612162558 -1 0 0
2547 1 78.00000188440663 5.62916468368288 0.9434569333587333 -1 0 0
2555 1 81.25000188440663 5.62916468368288 0.9434569333587333 -1 0 0
2325 5 86.12500275566072 0.9381921577538035 0.0003919611612176569 -1 0 0
2324 1 86.12500188440663 2.81458212138388 0.9434569333587336 -1 0 0
2318 5 84.50000275566072 3.7527747200528023 0.0003919611612162558 -1 0 0
2326 5 87.75000275566072 3.7527747200528023 0.0003919611612162558 -1 0 0
2563 1 84.50000188440663 5.62916468368288 0.9434569333587333 -1 0 0
2571 1 87.75000188440663 5.62916468368288 0.9434569333587333 -1 0 0
2333 5 89.37500275566072 0.9381921577538035 0.000391961161217657 -1 0 0
2341 5 92.62500275566072 0.9381921577538035 0.0003919611612176569 -1 0 0
2332 1 89.37500188440663 2.81458212138388 0.9434569333587336 -1 0 0
2340 1 92.62500188440663 2.81458212138388 0.9434569333587336 -1 0 0
2334 5 91.00000275566072 3.7527747200528023 0.0003919611612162558 -1 0 0
2342 5 94.25000275566072 3.7527747200528023 0.00039196116121625586 -1 0 0
2579 1 91.00000188440663 5.62916468368288 0.9434569333587333 -1 0 0
2587 1 94.25000188440663 5.62916468368288 0.9434569333587333 -1 0 0
2349 5 95.87500275566072 0.9381921577538035 0.000391961161217657 -1 0 0
2357 5 99.12500275566072 0.9381921577538035 0.0003919611612176569 -1 0 0
2348 1 95.87500188440663 2.81458212138388 0.9434569333587336 -1 0 0
2356 1 99.12500188440663 2.81458212138388 0.9434569333587336 -1 0 0
2350 5 97.50000275566072 3.7527747200528023 0.0003919611612162558 -1 0 0
2595 1 97.50000188440663 5.62916468368288 0.9434569333587333 -1 0 0
2613 5 1.6250027556607103 6.567357282351802 0.00039196116121799433 0 0 0
2621 5 4.87500275566071 6.567357282351802 0.0003919611612179943 0 0 0
2606 5 2.7556607103521422e-06 9.381939844650802 0.000391961161217657 0 0 0
2612 1 1.6250018844066247 8.443747245981879 0.943456933358735 0 0 0
2614 5 3.2500027556607103 9.381939844650802 0.000391961161217657 0 0 0
2620 1 4.8750018844066245 8.443747245981879 0.943456933358735 0 0 0
2851 1 1.8844066246837938e-06 11.258329808280878 0.9434569333587337 0 0 0
2859 1 3.2500018844066245 11.258329808280878 0.9434569333587337 0 0 0
2629 5 8.125002755660711 6.567357282351802 0.00039196116121799433 0 0 0
2637 5 11.375002755660711 6.567357282351802 0.0003919611612179943 0 0 0
2622 5 6.50000275566071 9.381939844650802 0.0003919611612176569 0 0 0
2628 1 8.125001884406625 8.443747245981879 0.943456933358735 0 0 0
2630 5 9.750002755660711 9.381939844650802 0.0003919611612176569 0 0 0
2636 1 11.375001884406625 8.443747245981879 0.943456933358735 0 0 0
2867 1 6.5000018844066245 11.258329808280878 0.9434569333587337 0 0 0
2875 1 9.750001884406625 11.258329808280878 0.9434569333587337 0 0 0
2645 5 14.625002755660711 6.567357282351802 0.0003919611612179943 0 0 0
2638 5 13.000002755660711 9.381939844650802 0.0003919611612176569 0 0 0
2644 1 14.625001884406625 8.443747245981879 0.943456933358735 0 0 0
2646 5 16.25000275566071 9.381939844650802 0.0003919611612176569 0 0 0
2883 1 13.000001884406625 11.258329808280878 0.9434569333587337 0 0 0
2891 1 16.250001884406625 11.258329808280878 0.9434569333587337 0 0 0
2653 5 17.87500275566071 6.567357282351802 0.0003919611612179943 0 0 0
2661 5 21.12500275566071 6.567357282351802 0.0003919611612179943 0 0 0
2652 1 17.875001884406625 8.443747245981879 0.943456933358735 0 0 0
2654 5 19.50000275566071 9.381939844650802 0.0003919611612176569 0 0 0
2660 1 21.125001884406625 8.443747245981879 0.943456933358735 0 0 0
2662 5 22.75000275566071 9.381939844650802 0.00039196116121765687 0 0 0
2899 1 19.500001884406625 11.258329808280878 0.9434569333587337 0 0 0
2907 1 22.750001884406625 11.258329808280878 0.9434569333587337 0 0 0
2669 5 24.37500275566071 6.567357282351802 0.0003919611612179943 0 0 0
2677 5 27.62500275566071 6.567357282351802 0.0003919611612179943 0 0 0
2668 1 24.375001884406625 8.443747245981879 0.943456933358735 0 0 0
2670 5 26.00000275566071 9.381939844650802 0.000391961161217657 0 0 0
2676 1 27.625001884406625 8.443747245981879 0.943456933358735 0 0 0
2678 5 29.25000275566071 9.381939844650802 0.00039196116121765687 0 0 0
2915 1 26.000001884406625 11.258329808280878 0.9434569333587337 0 0 0
2923 1 29.250001884406625 11.258329808280878 0.9434569333587337 0 0 0
2685 5 30.87500275566071 6.567357282351802 0.00039196116121799433 0 0 0
2693 5 34.12500275566071 6.567357282351802 0.0003919611612179943 0 0 0
2684 1 30.875001884406625 8.443747245981879 0.943456933358735 0 0 0
2686 5 32.50000275566071 9.381939844650802 0.000391961161217657 0 0 0
2692 1 34.12500188440662 8.443747245981879 0.943456933358735 0 0 0
2931 1 32.50000188440662 11.258329808280878 0.9434569333587337 0 0 0
2701 5 37.37500275566071 6.567357282351802 0.00039196116121799433 0 0 0
2709 5 40.62500275566071 6.567357282351802 0.0003919611612179943 0 0 0
2694 5 35.75000275566071 9.381939844650802 0.00039196116121765687 0 0 0
2700 1 37.37500188440662 8.443747245981879 0.943456933358735 0 0 0
2702 5 39.00000275566071 9.381939844650802 0.000391961161217657 0 0 0
2708 1 40.62500188440662 8.443747245981879 0.943456933358735 0 0 0
2939 1 35.75000188440662 11.258329808280878 0.9434569333587337 0 0 0
2947 1 39.00000188440662 11.258329808280878 0.9434569333587337 0 0 0
2717 5 43.87500275566071 6.567357282351802 0.00039196116121799433 0 0 0
2725 5 47.12500275566071 6.567357282351802 0.0003919611612179943 0 0 0
2710 5 42.25000275566071 9.381939844650802 0.0003919611612176569 0 0 0
2716 1 43.87500188440662 8.443747245981879 0.943456933358735 0 0 0
2718 5 45.50000275566071 9.381939844650802 0.0003919611612176569 0 0 0
2724 1 47.12500188440662 8.443747245981879 0.943456933358735 0 0 0
2955 1 42.25000188440662 11.258329808280878 0.9434569333587337 0 0 0
2963 1 45.50000188440662 11.258329808280878 0.9434569333587337 0 0 0
2485 5 50.37500275566071 6.567357282351802 0.0003919611612179943 -1 0 0
2726 5 48.75000275566071 9.381939844650802 0.0003919611612176569 0 0 0
2484 1 50.37500188440662 8.443747245981879 0.943456933358735 -1 0 0
2486 5 52.00000275566071 9.381939844650802 0.00039196116121765687 -1 0 0
2971 1 48.75000188440662 11.258329808280878 0.9434569333587337 0 0 0
2731 1 52.00000188440662 11.258329808280878 0.9434569333587337 -1 0 0
2493 5 53.62500275566071 6.567357282351802 0.0003919611612179943 -1 0 0
2501 5 56.87500275566071 6.567357282351802 0.0003919611612179943 -1 0 0
2492 1 53.62500188440662 8.443747245981879 0.943456933358735 -1 0 0
2494 5 55.25000275566071 9.381939844650802 0.000391961161217657 -1 0 0
2500 1 56.87500188440662 8.443747245981879 0.943456933358735 -1 0 0
2502 5 58.50000275566071 9.381939844650802 0.00039196116121765687 -1 0 0
2739 1 55.25000188440662 11.258329808280878 0.9434569333587337 -1 0 0
2747 1 58.50000188440662 11.258329808280878 0.9434569333587337 -1 0 0
2509 5 60.12500275566071 6.567357282351802 0.00039196116121799433 -1 0 0
2517 5 63.37500275566071 6.567357282351802 0.0003919611612179943 -1 0 0
2508 1 60.12500188440662 8.443747245981879 0.943456933358735 -1 0 0
2510 5 61.75000275566071 9.381939844650802 0.000391961161217657 -1 0 0
2516 1 63.37500188440662 8.443747245981879 0.943456933358735 -1 0 0
2518 5 65.00000275566072 9.381939844650802 0.00039196116121765687 -1 0 0
2755 1 61.75000188440662 11.258329808280878 0.9434569333587337 -1 0 0
2763 1 65.00000188440663 11.258329808280878 0.9434569333587337 -1 0 0
2525 5 66.62500275566072 6.567357282351802 0.00039196116121799433 -1 0 0
2533 5 69.87500275566072 6.567357282351802 0.0003919611612179943 -1 0 0
2524 1 66.62500188440663 8.443747245981879 0.943456933358735 -1 0 0
2526 5 68.25000275566072 9.381939844650802 0.000391961161217657 -1 0 0
2532 1 69.87500188440663 8.443747245981879 0.943456933358735 -1 0 0
2771 1 68.25000188440663 11.258329808280878 0.9434569333587337 -1 0 0
2541 5 73.12500275566072 6.567357282351802 0.00039196116121799433 -1 0 0
2549 5 76.37500275566072 6.567357282351802 0.0003919611612179943 -1 0 0
2534 5 71.50000275566072 9.381939844650802 0.0003919611612176569 -1 0 0
2540 1 73.12500188440663 8.443747245981879 0.943456933358735 -1 0 0
2542 5 74.75000275566072 9.381939844650802 0.0003919611612176569 -1 0 0
2548 1 76.37500188440663 8.443747245981879 0.943456933358735 -1 0 0
2779 1 71.50000188440663 11.258329808280878 0.9434569333587337 -1 0 0
2787 1 74.75000188440663 11.258329808280878 0.9434569333587337 -1 0 0
2557 5 79.62500275566072 6.567357282351802 0.0003919611612179943 -1 0 0
2565 5 82.87500275566072 6.567357282351802 0.0003919611612179943 -1 0 0
2550 5 78.00000275566072 9.381939844650802 0.0003919611612176569 -1 0 0
2556 1 79.62500188440663 8.443747245981879 0.943456933358735 -1 0 0
2558 5 81.25000275566072 9.381939844650802 0.0003919611612176569 -1 0 0
2564 1 82.87500188440663 8.443747245981879 0.943456933358735 -1 0 0
2795 1 78.00000188440663 11.258329808280878 0.9434569333587337 -1 0 0
2803 1 81.25000188440663 11.258329808280878 0.9434569333587337 -1 0 0
2573 5 86.12500275566072 6.567357282351802 0.0003919611612179943 -1 0 0
2566 5 84.50000275566072 9.381939844650802 0.0003919611612176569 -1 0 0
2572 1 86.12500188440663 8.443747245981879 0.943456933358735 -1 0 0
2574 5 87.75000275566072 9.381939844650802 0.00039196116121765687 -1 0 0
2811 1 84.50000188440663 11.258329808280878 0.9434569333587337 -1 0 0
2819 1 87.75000188440663 11.258329808280878 0.9434569333587337 -1 0 0
2581 5 89.37500275566072 6.567357282351802 0.0003919611612179943 -1 0 0
2589 5 92.62500275566072 6.567357282351802 0.0003919611612179943 -1 0 0
2580 1 89.37500188440663 8.443747245981879 0.943456933358735 -1 0 0
2582 5 91.00000275566072 9.381939844650802 0.000391961161217657 -1 0 0
2588 1 92.62500188440663 8.443747245981879 0.943456933358735 -1 0 0
2590 5 94.25000275566072 9.381939844650802 0.00039196116121765687 -1 0 0
2827 1 91.00000188440663 11.258329808280878 0.9434569333587337 -1 0 0
2835 1 94.25000188440663 11.258329808280878 0.9434569333587337 -1 0 0
2597 5 95.87500275566072 6.567357282351802 0.00039196116121799433 -1 0 0
2605 5 99.12500275566072 6.567357282351802 0.0003919611612179943 -1 0 0
2596 1 95.87500188440663 8.443747245981879 0.943456933358735 -1 0 0
2598 5 97.50000275566072 9.381939844650802 0.000391961161217657 -1 0 0
2604 1 99.12500188440663 8.443747245981879 0.943456933358735 -1 0 0
2843 1 97.50000188440663 11.258329808280878 0.9434569333587337 -1 0 0
2861 5 1.6250027556607103 12.196522406949803 0.0003919611612175859 0 0 0
2869 5 4.87500275566071 12.196522406949803 0.00039196116121758596 0 0 0
2860 1 1.6250018844066247 14.07291237057988 0.9434569333587336 0 0 0
2868 1 4.8750018844066245 14.07291237057988 0.9434569333587336 0 0 0
2854 5 2.7556607103521045e-06 15.011104969248802 0.00039196116121646745 0 0 0
2862 5 3.2500027556607103 15.011104969248802 0.00039196116121646734 0 0 0
3109 5 1.6250027556607103 17.825687531547803 0.0003919611612187588 0 0 0
3099 1 1.8844066246837718e-06 16.887494932878877 0.9434569333587349 0 0 0
3107 1 3.2500018844066245 16.887494932878877 0.9434569333587349 0 0 0
3117 5 4.87500275566071 17.825687531547803 0.00039196116121875874 0 0 0
2877 5 8.125002755660711 12.196522406949803 0.0003919611612175859 0 0 0
2885 5 11.375002755660711 12.196522406949803 0.00039196116121758596 0 0 0
2876 1 8.125001884406625 14.07291237057988 0.9434569333587336 0 0 0
2884 1 11.375001884406625 14.07291237057988 0.9434569333587336 0 0 0
2870 5 6.50000275566071 15.011104969248802 0.00039196116121646745 0 0 0
2878 5 9.750002755660711 15.011104969248802 0.00039196116121646734 0 0 0
3115 1 6.5000018844066245 16.887494932878877 0.9434569333587349 0 0 0
3125 5 8.125002755660711 17.825687531547803 0.0003919611612187588 0 0 0
3123 1 9.750001884406625 16.887494932878877 0.9434569333587349 0 0 0
3133 5 11.375002755660711 17.825687531547803 0.00039196116121875874 0 0 0
2893 5 14.625002755660711 12.196522406949803 0.00039196116121758596 0 0 0
2892 1 14.625001884406625 14.07291237057988 0.9434569333587336 0 0 0
2886 5 13.000002755660711 15.011104969248802 0.0003919611612164674 0 0 0
2894 5 16.25000275566071 15.011104969248802 0.00039196116121646734 0 0 0
3131 1 13.000001884406625 16.887494932878877 0.9434569333587349 0 0 0
3141 5 14.625002755660711 17.825687531547803 0.0003919611612187588 0 0 0
3139 1 16.250001884406625 16.887494932878877 0.9434569333587349 0 0 0
2901 5 17.87500275566071 12.196522406949803 0.00039196116121758596 0 0 0
2909 5 21.12500275566071 12.196522406949803 0.00039196116121758596 0 0 0
2900 1 17.875001884406625 14.07291237057988 0.9434569333587336 0 0 0
2908 1 21.125001884406625 14.07291237057988 0.9434569333587336 0 0 0
2902 5 19.50000275566071 15.011104969248802 0.0003919611612164674 0 0 0
2910 5 22.75000275566071 15.011104969248802 0.00039196116121646734 0 0 0
3149 5 17.87500275566071 17.825687531547803 0.00039196116121875874 0 0 0
3147 1 19.500001884406625 16.887494932878877 0.9434569333587349 0 0 0
3157 5 21.12500275566071 17.825687531547803 0.0003919611612187588 0 0 0
3155 1 22.750001884406625 16.887494932878877 0.9434569333587349 0 0 0
2917 5 24.37500275566071 12.196522406949803 0.0003919611612175859 0 0 0
2925 5 27.62500275566071 12.196522406949803 0.00039196116121758596 0 0 0
2916 1 24.375001884406625 14.07291237057988 0.9434569333587336 0 0 0
2924 1 27.625001884406625 14.07291237057988 0.9434569333587336 0 0 0
2918 5 26.00000275566071 15.011104969248802 0.0003919611612164674 0 0 0
2926 5 29.25000275566071 15.011104969248802 0.00039196116121646745 0 0 0
3165 5 24.37500275566071 17.825687531547803 0.0003919611612187588 0 0 0
3163 1 26.000001884406625 16.887494932878877 0.9434569333587349 0 0 0
3173 5 27.62500275566071 17.825687531547803 0.00039196116121875874 0 0 0
3171 1 29.250001884406625 16.887494932878877 0.9434569333587349 0 0 0
2933 5 30.87500275566071 12.196522406949803 0.0003919611612175859 0 0 0
2941 5 34.12500275566071 12.196522406949803 0.00039196116121758596 0 0 0
2932 1 30.875001884406625 14.07291237057988 0.9434569333587336 0 0 0
2940 1 34.12500188440662 14.07291237057988 0.9434569333587336 0 0 0
2934 5 32.50000275566071 15.011104969248802 0.00039196116121646734 0 0 0
3181 5 30.87500275566071 17.825687531547803 0.0003919611612187588 0 0 0
3179 1 32.50000188440662 16.887494932878877 0.9434569333587349 0 0 0
3189 5 34.12500275566071 17.825687531547803 0.00039196116121875874 0 0 0
2949 5 37.37500275566071 12.196522406949803 0.0003919611612175859 0 0 0
2957 5 40.62500275566071 12.196522406949803 0.00039196116121758596 0 0 0
2948 1 37.37500188440662 14.07291237057988 0.9434569333587336 0 0 0
2956 1 40.62500188440662 14.07291237057988 0.9434569333587336 0 0 0
2942 5 35.75000275566071 15.011104969248802 0.00039196116121646745 0 0 0
2950 5 39.00000275566071 15.011104969248802 0.00039196116121646734 0 0 0
3187 1 35.75000188440662 16.887494932878877 0.9434569333587349 0 0 0
3197 5 37.37500275566071 17.825687531547803 0.0003919611612187588 0 0 0
3195 1 39.00000188440662 16.887494932878877 0.9434569333587349 0 0 0
3205 5 40.62500275566071 17.825687531547803 0.00039196116121875874 0 0 0
2965 5 43.87500275566071 12.196522406949803 0.0003919611612175859 0 0 0
2973 5 47.12500275566071 12.196522406949803 0.00039196116121758596 0 0 0
2964 1 43.87500188440662 14.07291237057988 0.9434569333587336 0 0 0
2972 1 47.12500188440662 14.07291237057988 0.9434569333587336 0 0 0
2958 5 42.25000275566071 15.011104969248802 0.00039196116121646745 0 0 0
2966 5 45.50000275566071 15.011104969248802 0.00039196116121646734 0 0 0
3203 1 42.25000188440662 16.887494932878877 0.9434569333587349 0 0 0
3213 5 43.87500275566071 17.825687531547803 0.0003919611612187588 0 0 0
3211 1 45.50000188440662 16.887494932878877 0.9434569333587349 0 0 0
3221 5 47.12500275566071 17.825687531547803 0.00039196116121875874 0 0 0
2733 5 50.37500275566071 12.196522406949803 0.00039196116121758596 -1 0 0
2732 1 50.37500188440662 14.07291237057988 0.9434569333587336 -1 0 0
2974 5 48.75000275566071 15.011104969248802 0.0003919611612164674 0 0 0
2734 5 52.00000275566071 15.011104969248802 0.00039196116121646734 -1 0 0
3219 1 48.75000188440662 16.887494932878877 0.9434569333587349 0 0 0
2981 5 50.37500275566071 17.825687531547803 0.0003919611612187588 -1 0 0
2979 1 52.00000188440662 16.887494932878877 0.9434569333587349 -1 0 0
2741 5 53.62500275566071 12.196522406949803 0.0003919611612175859 -1 0 0
2749 5 56.87500275566071 12.196522406949803 0.00039196116121758596 -1 0 0
2740 1 53.62500188440662 14.07291237057988 0.9434569333587336 -1 0 0
2748 1 56.87500188440662 14.07291237057988 0.9434569333587336 -1 0 0
2742 5 55.25000275566071 15.011104969248802 0.0003919611612164674 -1 0 0
2750 5 58.50000275566071 15.011104969248802 0.00039196116121646745 -1 0 0
2989 5 53.62500275566071 17.825687531547803 0.0003919611612187588 -1 0 0
2987 1 55.25000188440662 16.887494932878877 0.9434569333587349 -1 0 0
2997 5 56.87500275566071 17.825687531547803 0.00039196116121875874 -1 0 0
2995 1 58.50000188440662 16.887494932878877 0.9434569333587349 -1 0 0
2757 5 60.12500275566071 12.196522406949803 0.0003919611612175859 -1 0 0
2765 5 63.37500275566071 12.196522406949803 0.00039196116121758596 -1 0 0
2756 1 60.12500188440662 14.07291237057988 0.9434569333587336 -1 0 0
2764 1 63.37500188440662 14.07291237057988 0.9434569333587336 -1 0 0
2758 5 61.75000275566071 15.011104969248802 0.00039196116121646734 -1 0 0
2766 5 65.00000275566072 15.011104969248802 0.00039196116121646745 -1 0 0
3005 5 60.12500275566071 17.825687531547803 0.0003919611612187588 -1 0 0
3003 1 61.75000188440662 16.887494932878877 0.9434569333587349 -1 0 0
3013 5 63.37500275566071 17.825687531547803 0.00039196116121875874 -1 0 0
3011 1 65.00000188440663 16.887494932878877 0.9434569333587349 -1 0 0
2773 5 66.62500275566072 12.196522406949803 0.0003919611612175859 -1 0 0
2781 5 69.87500275566072 12.196522406949803 0.00039196116121758596 -1 0 0
2772 1 66.62500188440663 14.07291237057988 0.9434569333587336 -1 0 0
2780 1 69.87500188440663 14.07291237057988 0.9434569333587336 -1 0 0
2774 5 68.25000275566072 15.011104969248802 0.00039196116121646734 -1 0 0
3021 5 66.62500275566072 17.825687531547803 0.0003919611612187588 -1 0 0
3019 1 68.25000188440663 16.887494932878877 0.9434569333587349 -1 0 0
3029 5 69.87500275566072 17.825687531547803 0.00039196116121875874 -1 0 0
2789 5 73.12500275566072 12.196522406949803 0.0003919611612175859 -1 0 0
2797 5 76.37500275566072 12.196522406949803 0.00039196116121758596 -1 0 0
2788 1 73.12500188440663 14.07291237057988 0.9434569333587336 -1 0 0
2796 1 76.37500188440663 14.07291237057988 0.9434569333587336 -1 0 0
2782 5 71.50000275566072 15.011104969248802 0.00039196116121646745 -1 0 0
2790 5 74.75000275566072 15.011104969248802 0.00039196116121646734 -1 0 0
3027 1 71.50000188440663 16.887494932878877 0.9434569333587349 -1 0 0
3037 5 73.12500275566072 17.825687531547803 0.0003919611612187588 -1 0 0
3035 1 74.75000188440663 16.887494932878877 0.9434569333587349 -1 0 0
3045 5 76.37500275566072 17.825687531547803 0.00039196116121875874 -1 0 0
2805 5 79.62500275566072 12.196522406949803 0.00039196116121758596 -1 0 0
2813 5 82.87500275566072 12.196522406949803 0.00039196116121758596 -1 0 0
2804 1 79.62500188440663 14.07291237057988 0.9434569333587336 -1 0 0
2812 1 82.87500188440663 14.07291237057988 0.9434569333587336 -1 0 0
2798 5 78.00000275566072 15.011104969248802 0.0003919611612164674 -1 0 0
2806 5 81.25000275566072 15.011104969248802 0.00039196116121646734 -1 0 0
3043 1 78.00000188440663 16.887494932878877 0.9434569333587349 -1 0 0
3053 5 79.62500275566072 17.825687531547803 0.0003919611612187588 -1 0 0
3051 1 81.25000188440663 16.887494932878877 0.9434569333587349 -1 0 0
3061 5 82.87500275566072 17.825687531547803 0.00039196116121875874 -1 0 0
2821 5 86.12500275566072 12.196522406949803 0.00039196116121758596 -1 0 0
2820 1 86.12500188440663 14.07291237057988 0.9434569333587336 -1 0 0
2814 5 84.50000275566072 15.011104969248802 0.0003919611612164674 -1 0 0
2822 5 87.75000275566072 15.011104969248802 0.00039196116121646734 -1 0 0
3059 1 84.50000188440663 16.887494932878877 0.9434569333587349 -1 0 0
3069 5 86.12500275566072 17.825687531547803 0.0003919611612187588 -1 0 0
3067 1 87.75000188440663 16.887494932878877 0.9434569333587349 -1 0 0
2829 5 89.37500275566072 12.196522406949803 0.0003919611612175859 -1 0 0
2837 5 92.62500275566072 12.196522406949803 0.00039196116121758596 -1 0 0
2828 1 89.37500188440663 14.07291237057988 0.9434569333587336 -1 0 0
2836 1 92.62500188440663 14.07291237057988 0.9434569333587336 -1 0 0
2830 5 91.00000275566072 15.011104969248802 0.0003919611612164674 -1 0 0
2838 5 94.25000275566072 15.011104969248802 0.00039196116121646745 -1 0 0
3077 5 89.37500275566072 17.825687531547803 0.0003919611612187588 -1 0 0
3075 1 91.00000188440663 16.887494932878877 0.9434569333587349 -1 0 0
3085 5 92.62500275566072 17.825687531547803 0.00039196116121875874 -1 0 0
3083 1 94.25000188440663 16.887494932878877 0.9434569333587349 -1 0 0
2845 5 95.87500275566072 12.196522406949803 0.0003919611612175859 -1 0 0
2853 5 99.12500275566072 12.196522406949803 0.00039196116121758596 -1 0 0
2844 1 95.87500188440663 14.07291237057988 0.9434569333587336 -1 0 0
2852 1 99.12500188440663 14.07291237057988 0.9434569333587336 -1 0 0
2846 5 97.50000275566072 15.011104969248802 0.00039196116121646734 -1 0 0
3093 5 95.87500275566072 17.825687531547803 0.0003919611612187588 -1 0 0
3091 1 97.50000188440663 16.887494932878877 0.9434569333587349 -1 0 0
3101 5 99.12500275566072 17.825687531547803 0.00039196116121875885 -1 0 0
3108 1 1.6250018844066247 19.702077495177882 0.9434569333587325 0 0 0
3116 1 4.8750018844066245 19.702077495177882 0.9434569333587325 0 0 0
3102 5 2.755660710352167e-06 20.640270093846805 0.0003919611612163942 0 0 0
3110 5 3.2500027556607103 20.640270093846805 0.0003919611612163942 0 0 0
3347 1 1.8844066246837718e-06 22.51666005747688 0.9434569333587347 0 0 0
3355 1 3.2500018844066245 22.51666005747688 0.9434569333587347 0 0 0
3357 5 1.6250027556607103 23.4548526561458 0.0003919611612165384 0 0 0
3365 5 4.87500275566071 23.4548526561458 0.00039196116121653846 0 0 0
3124 1 8.125001884406625 19.702077495177882 0.9434569333587325 0 0 0
3132 1 11.375001884406625 19.702077495177882 0.9434569333587325 0 0 0
3118 5 6.50000275566071 20.640270093846805 0.0003919611612163942 0 0 0
3126 5 9.750002755660711 20.640270093846805 0.0003919611612163942 0 0 0
3363 1 6.5000018844066245 22.51666005747688 0.9434569333587347 0 0 0
3371 1 9.750001884406625 22.51666005747688 0.9434569333587347 0 0 0
3373 5 8.125002755660711 23.4548526561458 0.0003919611612165384 0 0 0
3381 5 11.375002755660711 23.4548526561458 0.00039196116121653846 0 0 0