LAMMPS data file via write_data, version 29 Aug 2024, timestep = 1, units = metal

13392 atoms
12 atom types

0 100.75 xlo xhi
0 101.324972242764 ylo yhi
-50 120.81868116860028 zlo zhi

Masses

1 10.81
2 10.81
3 10.81
4 10.81
5 10.81
6 10.81
7 78.971
8 78.971
9 78.971
10 78.971
11 78.971
12 78.971

Atoms # atomic

2365 7 1.6250028837773194 0.9381920633896407 0.0004101842808850704 0 0 0
2373 7 4.875002883777319 0.9381920633896407 0.0004101842808850704 0 0 0
2364 1 1.6250019720167526 2.814582100884785 0.9434828263916336 0 0 0
2372 1 4.875001972016753 2.814582100884785 0.9434828263916336 0 0 0
2358 7 2.8837773194863843e-06 3.7527746256886396 0.00041018428088360415 0 0 0
2366 7 3.2500028837773196 3.7527746256886396 0.0004101842808836041 0 0 0
2603 1 1.9720167524755346e-06 5.6291646631837855 0.9434828263916333 0 0 0
2611 1 3.2500019720167526 5.6291646631837855 0.9434828263916333 0 0 0
2381 7 8.12500288377732 0.9381920633896407 0.0004101842808850704 0 0 0
2389 7 11.37500288377732 0.9381920633896407 0.0004101842808850704 0 0 0
2380 1 8.125001972016753 2.814582100884785 0.9434828263916336 0 0 0
2388 1 11.375001972016753 2.814582100884785 0.9434828263916336 0 0 0
2374 7 6.500002883777319 3.7527746256886396 0.00041018428088360415 0 0 0
2382 7 9.75000288377732 3.7527746256886396 0.0004101842808836041 0 0 0
2619 1 6.500001972016753 5.6291646631837855 0.9434828263916333 0 0 0
2627 1 9.750001972016753 5.6291646631837855 0.9434828263916333 0 0 0
2397 7 14.62500288377732 0.9381920633896407 0.00041018428088507037 0 0 0
2396 1 14.625001972016753 2.814582100884785 0.9434828263916336 0 0 0
2390 7 13.00000288377732 3.7527746256886396 0.0004101842808836041 0 0 0
2398 7 16.25000288377732 3.7527746256886396 0.0004101842808836041 0 0 0
2635 1 13.000001972016753 5.6291646631837855 0.9434828263916333 0 0 0
2643 1 16.25000197201675 5.6291646631837855 0.9434828263916333 0 0 0
2405 7 17.87500288377732 0.9381920633896407 0.0004101842808850704 0 0 0
2413 7 21.12500288377732 0.9381920633896407 0.00041018428088507037 0 0 0
2404 1 17.87500197201675 2.814582100884785 0.9434828263916336 0 0 0
2412 1 21.12500197201675 2.814582100884785 0.9434828263916336 0 0 0
2406 7 19.50000288377732 3.7527746256886396 0.0004101842808836041 0 0 0
2414 7 22.75000288377732 3.7527746256886396 0.0004101842808836041 0 0 0
2651 1 19.50000197201675 5.6291646631837855 0.9434828263916333 0 0 0
2659 1 22.75000197201675 5.6291646631837855 0.9434828263916333 0 0 0
2421 7 24.37500288377732 0.9381920633896407 0.00041018428088507037 0 0 0
2429 7 27.62500288377732 0.9381920633896407 0.0004101842808850704 0 0 0
2420 1 24.37500197201675 2.814582100884785 0.9434828263916336 0 0 0
2428 1 27.62500197201675 2.814582100884785 0.9434828263916336 0 0 0
2422 7 26.00000288377732 3.7527746256886396 0.0004101842808836041 0 0 0
2430 7 29.25000288377732 3.7527746256886396 0.00041018428088360415 0 0 0
2667 1 26.00000197201675 5.6291646631837855 0.9434828263916333 0 0 0
2675 1 29.25000197201675 5.6291646631837855 0.9434828263916333 0 0 0
2437 7 30.87500288377732 0.9381920633896407 0.0004101842808850704 0 0 0
2445 7 34.12500288377732 0.9381920633896407 0.0004101842808850704 0 0 0
2436 1 30.87500197201675 2.814582100884785 0.9434828263916336 0 0 0
2444 1 34.125001972016754 2.814582100884785 0.9434828263916336 0 0 0
2438 7 32.50000288377732 3.7527746256886396 0.0004101842808836041 0 0 0
2683 1 32.500001972016754 5.6291646631837855 0.9434828263916333 0 0 0
2453 7 37.37500288377732 0.9381920633896407 0.0004101842808850704 0 0 0
2461 7 40.62500288377732 0.9381920633896407 0.0004101842808850704 0 0 0
2452 1 37.375001972016754 2.814582100884785 0.9434828263916336 0 0 0
2460 1 40.625001972016754 2.814582100884785 0.9434828263916336 0 0 0
2446 7 35.75000288377732 3.7527746256886396 0.00041018428088360415 0 0 0
2454 7 39.00000288377732 3.7527746256886396 0.0004101842808836041 0 0 0
2691 1 35.750001972016754 5.6291646631837855 0.9434828263916333 0 0 0
2699 1 39.000001972016754 5.6291646631837855 0.9434828263916333 0 0 0
2469 7 43.87500288377732 0.9381920633896407 0.0004101842808850704 0 0 0
2477 7 47.12500288377732 0.9381920633896407 0.0004101842808850704 0 0 0
2468 1 43.875001972016754 2.814582100884785 0.9434828263916336 0 0 0
2476 1 47.125001972016754 2.814582100884785 0.9434828263916336 0 0 0
2462 7 42.25000288377732 3.7527746256886396 0.00041018428088360415 0 0 0
2470 7 45.50000288377732 3.7527746256886396 0.0004101842808836041 0 0 0
2707 1 42.250001972016754 5.6291646631837855 0.9434828263916333 0 0 0
2715 1 45.500001972016754 5.6291646631837855 0.9434828263916333 0 0 0
2237 7 50.37500288377732 0.9381920633896407 0.0004101842808850704 -1 0 0
2236 1 50.375001972016754 2.814582100884785 0.9434828263916336 -1 0 0
2478 7 48.75000288377732 3.7527746256886396 0.00041018428088360415 0 0 0
2238 7 52.00000288377732 3.7527746256886396 0.0004101842808836041 -1 0 0
2723 1 48.750001972016754 5.6291646631837855 0.9434828263916333 0 0 0
2483 1 52.000001972016754 5.6291646631837855 0.9434828263916333 -1 0 0
2245 7 53.62500288377732 0.9381920633896407 0.00041018428088507037 -1 0 0
2253 7 56.87500288377732 0.9381920633896407 0.0004101842808850704 -1 0 0
2244 1 53.625001972016754 2.814582100884785 0.9434828263916336 -1 0 0
2252 1 56.875001972016754 2.814582100884785 0.9434828263916336 -1 0 0
2246 7 55.25000288377732 3.7527746256886396 0.0004101842808836041 -1 0 0
2254 7 58.50000288377732 3.7527746256886396 0.00041018428088360415 -1 0 0
2491 1 55.250001972016754 5.6291646631837855 0.9434828263916333 -1 0 0
2499 1 58.500001972016754 5.6291646631837855 0.9434828263916333 -1 0 0
2261 7 60.12500288377732 0.9381920633896407 0.0004101842808850704 -1 0 0
2269 7 63.37500288377732 0.9381920633896407 0.0004101842808850704 -1 0 0
2260 1 60.125001972016754 2.814582100884785 0.9434828263916336 -1 0 0
2268 1 63.375001972016754 2.814582100884785 0.9434828263916336 -1 0 0
2262 7 61.75000288377732 3.7527746256886396 0.0004101842808836041 -1 0 0
2270 7 65.00000288377731 3.7527746256886396 0.00041018428088360415 -1 0 0
2507 1 61.750001972016754 5.6291646631837855 0.9434828263916333 -1 0 0
2515 1 65.00000197201675 5.6291646631837855 0.9434828263916333 -1 0 0
2277 7 66.62500288377731 0.9381920633896407 0.0004101842808850704 -1 0 0
2285 7 69.87500288377731 0.9381920633896407 0.0004101842808850704 -1 0 0
2276 1 66.62500197201675 2.814582100884785 0.9434828263916336 -1 0 0
2284 1 69.87500197201675 2.814582100884785 0.9434828263916336 -1 0 0
2278 7 68.25000288377731 3.7527746256886396 0.0004101842808836041 -1 0 0
2523 1 68.25000197201675 5.6291646631837855 0.9434828263916333 -1 0 0
2293 7 73.12500288377731 0.9381920633896407 0.0004101842808850704 -1 0 0
2301 7 76.37500288377731 0.9381920633896407 0.0004101842808850704 -1 0 0
2292 1 73.12500197201675 2.814582100884785 0.9434828263916336 -1 0 0
2300 1 76.37500197201675 2.814582100884785 0.9434828263916336 -1 0 0
2286 7 71.50000288377731 3.7527746256886396 0.00041018428088360415 -1 0 0
2294 7 74.75000288377731 3.7527746256886396 0.0004101842808836041 -1 0 0
2531 1 71.50000197201675 5.6291646631837855 0.9434828263916333 -1 0 0
2539 1 74.75000197201675 5.6291646631837855 0.9434828263916333 -1 0 0
2309 7 79.62500288377731 0.9381920633896407 0.00041018428088507037 -1 0 0
2317 7 82.87500288377731 0.9381920633896407 0.0004101842808850704 -1 0 0
2308 1 79.62500197201675 2.814582100884785 0.9434828263916336 -1 0 0
2316 1 82.87500197201675 2.814582100884785 0.9434828263916336 -1 0 0
2302 7 78.00000288377731 3.7527746256886396 0.0004101842808836041 -1 0 0
2310 7 81.25000288377731 3.7527746256886396 0.0004101842808836041 -1 0 0
2547 1 78.00000197201675 5.6291646631837855 0.9434828263916333 -1 0 0
2555 1 81.25000197201675 5.6291646631837855 0.9434828263916333 -1 0 0
2325 7 86.12500288377731 0.9381920633896407 0.00041018428088507037 -1 0 0
2324 1 86.12500197201675 2.814582100884785 0.9434828263916336 -1 0 0
2318 7 84.50000288377731 3.7527746256886396 0.0004101842808836041 -1 0 0
2326 7 87.75000288377731 3.7527746256886396 0.0004101842808836041 -1 0 0
2563 1 84.50000197201675 5.6291646631837855 0.9434828263916333 -1 0 0
2571 1 87.75000197201675 5.6291646631837855 0.9434828263916333 -1 0 0
2333 7 89.37500288377731 0.9381920633896407 0.00041018428088507037 -1 0 0
2341 7 92.62500288377731 0.9381920633896407 0.0004101842808850704 -1 0 0
2332 1 89.37500197201675 2.814582100884785 0.9434828263916336 -1 0 0
2340 1 92.62500197201675 2.814582100884785 0.9434828263916336 -1 0 0
2334 7 91.00000288377731 3.7527746256886396 0.0004101842808836041 -1 0 0
2342 7 94.25000288377731 3.7527746256886396 0.00041018428088360415 -1 0 0
2579 1 91.00000197201675 5.6291646631837855 0.9434828263916333 -1 0 0
2587 1 94.25000197201675 5.6291646631837855 0.9434828263916333 -1 0 0
2349 7 95.87500288377731 0.9381920633896407 0.0004101842808850704 -1 0 0
2357 7 99.12500288377731 0.9381920633896407 0.0004101842808850704 -1 0 0
2348 1 95.87500197201675 2.814582100884785 0.9434828263916336 -1 0 0
2356 1 99.12500197201675 2.814582100884785 0.9434828263916336 -1 0 0
2350 7 97.50000288377731 3.7527746256886396 0.0004101842808836041 -1 0 0
2595 1 97.50000197201675 5.6291646631837855 0.9434828263916333 -1 0 0
2613 7 1.6250028837773194 6.567357187987638 0.00041018428088542333 0 0 0
2621 7 4.875002883777319 6.567357187987638 0.00041018428088542333 0 0 0
2606 7 2.8837773194864106e-06 9.381939750286639 0.00041018428088507037 0 0 0
2612 1 1.6250019720167526 8.443747225482785 0.9434828263916352 0 0 0
2614 7 3.2500028837773196 9.381939750286639 0.0004101842808850703 0 0 0
2620 1 4.875001972016753 8.443747225482785 0.9434828263916352 0 0 0
2851 1 1.9720167524755346e-06 11.258329787781783 0.9434828263916337 0 0 0
2859 1 3.2500019720167526 11.258329787781783 0.9434828263916337 0 0 0
2629 7 8.12500288377732 6.567357187987638 0.00041018428088542333 0 0 0
2637 7 11.37500288377732 6.567357187987638 0.00041018428088542333 0 0 0
2622 7 6.500002883777319 9.381939750286639 0.0004101842808850703 0 0 0
2628 1 8.125001972016753 8.443747225482785 0.9434828263916352 0 0 0
2630 7 9.75000288377732 9.381939750286639 0.0004101842808850703 0 0 0
2636 1 11.375001972016753 8.443747225482785 0.9434828263916352 0 0 0
2867 1 6.500001972016753 11.258329787781783 0.9434828263916337 0 0 0
2875 1 9.750001972016753 11.258329787781783 0.9434828263916337 0 0 0
2645 7 14.62500288377732 6.567357187987638 0.00041018428088542333 0 0 0
2638 7 13.00000288377732 9.381939750286639 0.00041018428088507037 0 0 0
2644 1 14.625001972016753 8.443747225482785 0.9434828263916352 0 0 0
2646 7 16.25000288377732 9.381939750286639 0.0004101842808850703 0 0 0
2883 1 13.000001972016753 11.258329787781783 0.9434828263916337 0 0 0
2891 1 16.25000197201675 11.258329787781783 0.9434828263916337 0 0 0
2653 7 17.87500288377732 6.567357187987638 0.00041018428088542333 0 0 0
2661 7 21.12500288377732 6.567357187987638 0.00041018428088542333 0 0 0
2652 1 17.87500197201675 8.443747225482785 0.9434828263916352 0 0 0
2654 7 19.50000288377732 9.381939750286639 0.00041018428088507037 0 0 0
2660 1 21.12500197201675 8.443747225482785 0.9434828263916352 0 0 0
2662 7 22.75000288377732 9.381939750286639 0.00041018428088507037 0 0 0
2899 1 19.50000197201675 11.258329787781783 0.9434828263916337 0 0 0
2907 1 22.75000197201675 11.258329787781783 0.9434828263916337 0 0 0
2669 7 24.37500288377732 6.567357187987638 0.00041018428088542333 0 0 0
2677 7 27.62500288377732 6.567357187987638 0.00041018428088542333 0 0 0
2668 1 24.37500197201675 8.443747225482785 0.9434828263916352 0 0 0
2670 7 26.00000288377732 9.381939750286639 0.0004101842808850703 0 0 0
2676 1 27.62500197201675 8.443747225482785 0.9434828263916352 0 0 0
2678 7 29.25000288377732 9.381939750286639 0.00041018428088507037 0 0 0
2915 1 26.00000197201675 11.258329787781783 0.9434828263916337 0 0 0
2923 1 29.25000197201675 11.258329787781783 0.9434828263916337 0 0 0
2685 7 30.87500288377732 6.567357187987638 0.00041018428088542333 0 0 0
2693 7 34.12500288377732 6.567357187987638 0.00041018428088542333 0 0 0
2684 1 30.87500197201675 8.443747225482785 0.9434828263916352 0 0 0
2686 7 32.50000288377732 9.381939750286639 0.0004101842808850703 0 0 0
2692 1 34.125001972016754 8.443747225482785 0.9434828263916352 0 0 0
2931 1 32.500001972016754 11.258329787781783 0.9434828263916337 0 0 0
2701 7 37.37500288377732 6.567357187987638 0.00041018428088542333 0 0 0
2709 7 40.62500288377732 6.567357187987638 0.00041018428088542333 0 0 0
2694 7 35.75000288377732 9.381939750286639 0.00041018428088507037 0 0 0
2700 1 37.375001972016754 8.443747225482785 0.9434828263916352 0 0 0
2702 7 39.00000288377732 9.381939750286639 0.0004101842808850703 0 0 0
2708 1 40.625001972016754 8.443747225482785 0.9434828263916352 0 0 0
2939 1 35.750001972016754 11.258329787781783 0.9434828263916337 0 0 0
2947 1 39.000001972016754 11.258329787781783 0.9434828263916337 0 0 0
2717 7 43.87500288377732 6.567357187987638 0.00041018428088542333 0 0 0
2725 7 47.12500288377732 6.567357187987638 0.00041018428088542333 0 0 0
2710 7 42.25000288377732 9.381939750286639 0.0004101842808850703 0 0 0
2716 1 43.875001972016754 8.443747225482785 0.9434828263916352 0 0 0
2718 7 45.50000288377732 9.381939750286639 0.0004101842808850703 0 0 0
2724 1 47.125001972016754 8.443747225482785 0.9434828263916352 0 0 0
2955 1 42.250001972016754 11.258329787781783 0.9434828263916337 0 0 0
2963 1 45.500001972016754 11.258329787781783 0.9434828263916337 0 0 0
2485 7 50.37500288377732 6.567357187987638 0.00041018428088542333 -1 0 0
2726 7 48.75000288377732 9.381939750286639 0.00041018428088507037 0 0 0
2484 1 50.375001972016754 8.443747225482785 0.9434828263916352 -1 0 0
2486 7 52.00000288377732 9.381939750286639 0.00041018428088507037 -1 0 0
2971 1 48.750001972016754 11.258329787781783 0.9434828263916337 0 0 0
2731 1 52.000001972016754 11.258329787781783 0.9434828263916337 -1 0 0
2493 7 53.62500288377732 6.567357187987638 0.00041018428088542333 -1 0 0
2501 7 56.87500288377732 6.567357187987638 0.00041018428088542333 -1 0 0
2492 1 53.625001972016754 8.443747225482785 0.9434828263916352 -1 0 0
2494 7 55.25000288377732 9.381939750286639 0.0004101842808850703 -1 0 0
2500 1 56.875001972016754 8.443747225482785 0.9434828263916352 -1 0 0
2502 7 58.50000288377732 9.381939750286639 0.00041018428088507037 -1 0 0
2739 1 55.250001972016754 11.258329787781783 0.9434828263916337 -1 0 0
2747 1 58.500001972016754 11.258329787781783 0.9434828263916337 -1 0 0
2509 7 60.12500288377732 6.567357187987638 0.00041018428088542333 -1 0 0
2517 7 63.37500288377732 6.567357187987638 0.00041018428088542333 -1 0 0
2508 1 60.125001972016754 8.443747225482785 0.9434828263916352 -1 0 0
2510 7 61.75000288377732 9.381939750286639 0.0004101842808850703 -1 0 0
2516 1 63.375001972016754 8.443747225482785 0.9434828263916352 -1 0 0
2518 7 65.00000288377731 9.381939750286639 0.00041018428088507037 -1 0 0
2755 1 61.750001972016754 11.258329787781783 0.9434828263916337 -1 0 0
2763 1 65.00000197201675 11.258329787781783 0.9434828263916337 -1 0 0
2525 7 66.62500288377731 6.567357187987638 0.00041018428088542333 -1 0 0
2533 7 69.87500288377731 6.567357187987638 0.00041018428088542333 -1 0 0
2524 1 66.62500197201675 8.443747225482785 0.9434828263916352 -1 0 0
2526 7 68.25000288377731 9.381939750286639 0.0004101842808850703 -1 0 0
2532 1 69.87500197201675 8.443747225482785 0.9434828263916352 -1 0 0
2771 1 68.25000197201675 11.258329787781783 0.9434828263916337 -1 0 0
2541 7 73.12500288377731 6.567357187987638 0.00041018428088542333 -1 0 0
2549 7 76.37500288377731 6.567357187987638 0.00041018428088542333 -1 0 0
2534 7 71.50000288377731 9.381939750286639 0.0004101842808850703 -1 0 0
2540 1 73.12500197201675 8.443747225482785 0.9434828263916352 -1 0 0
2542 7 74.75000288377731 9.381939750286639 0.0004101842808850703 -1 0 0
2548 1 76.37500197201675 8.443747225482785 0.9434828263916352 -1 0 0
2779 1 71.50000197201675 11.258329787781783 0.9434828263916337 -1 0 0
2787 1 74.75000197201675 11.258329787781783 0.9434828263916337 -1 0 0
2557 7 79.62500288377731 6.567357187987638 0.00041018428088542333 -1 0 0
2565 7 82.87500288377731 6.567357187987638 0.00041018428088542333 -1 0 0
2550 7 78.00000288377731 9.381939750286639 0.00041018428088507037 -1 0 0
2556 1 79.62500197201675 8.443747225482785 0.9434828263916352 -1 0 0
2558 7 81.25000288377731 9.381939750286639 0.0004101842808850703 -1 0 0
2564 1 82.87500197201675 8.443747225482785 0.9434828263916352 -1 0 0
2795 1 78.00000197201675 11.258329787781783 0.9434828263916337 -1 0 0
2803 1 81.25000197201675 11.258329787781783 0.9434828263916337 -1 0 0
2573 7 86.12500288377731 6.567357187987638 0.00041018428088542333 -1 0 0
2566 7 84.50000288377731 9.381939750286639 0.00041018428088507037 -1 0 0
2572 1 86.12500197201675 8.443747225482785 0.9434828263916352 -1 0 0
2574 7 87.75000288377731 9.381939750286639 0.00041018428088507037 -1 0 0
2811 1 84.50000197201675 11.258329787781783 0.9434828263916337 -1 0 0
2819 1 87.75000197201675 11.258329787781783 0.9434828263916337 -1 0 0
2581 7 89.37500288377731 6.567357187987638 0.00041018428088542333 -1 0 0
2589 7 92.62500288377731 6.567357187987638 0.00041018428088542333 -1 0 0
2580 1 89.37500197201675 8.443747225482785 0.9434828263916352 -1 0 0
2582 7 91.00000288377731 9.381939750286639 0.0004101842808850703 -1 0 0
2588 1 92.62500197201675 8.443747225482785 0.9434828263916352 -1 0 0
2590 7 94.25000288377731 9.381939750286639 0.00041018428088507037 -1 0 0
2827 1 91.00000197201675 11.258329787781783 0.9434828263916337 -1 0 0
2835 1 94.25000197201675 11.258329787781783 0.9434828263916337 -1 0 0
2597 7 95.87500288377731 6.567357187987638 0.00041018428088542333 -1 0 0
2605 7 99.12500288377731 6.567357187987638 0.0004101842808854233 -1 0 0
2596 1 95.87500197201675 8.443747225482785 0.9434828263916352 -1 0 0
2598 7 97.50000288377731 9.381939750286639 0.0004101842808850703 -1 0 0
2604 1 99.12500197201675 8.443747225482785 0.9434828263916352 -1 0 0
2843 1 97.50000197201675 11.258329787781783 0.9434828263916337 -1 0 0
2861 7 1.6250028837773194 12.19652231258564 0.000410184280884996 0 0 0
2869 7 4.875002883777319 12.19652231258564 0.0004101842808849961 0 0 0
2860 1 1.6250019720167526 14.072912350080784 0.9434828263916336 0 0 0
2868 1 4.875001972016753 14.072912350080784 0.9434828263916336 0 0 0
2854 7 2.8837773194863975e-06 15.011104874884639 0.0004101842808838255 0 0 0
2862 7 3.2500028837773196 15.011104874884639 0.00041018428088382544 0 0 0
3109 7 1.6250028837773194 17.82568743718364 0.0004101842808862235 0 0 0
3099 1 1.9720167524755134e-06 16.887494912379783 0.9434828263916349 0 0 0
3107 1 3.2500019720167526 16.887494912379783 0.9434828263916349 0 0 0
3117 7 4.875002883777319 17.82568743718364 0.0004101842808862235 0 0 0
2877 7 8.12500288377732 12.19652231258564 0.000410184280884996 0 0 0
2885 7 11.37500288377732 12.19652231258564 0.0004101842808849961 0 0 0
2876 1 8.125001972016753 14.072912350080784 0.9434828263916336 0 0 0
2884 1 11.375001972016753 14.072912350080784 0.9434828263916336 0 0 0
2870 7 6.500002883777319 15.011104874884639 0.00041018428088382555 0 0 0
2878 7 9.75000288377732 15.011104874884639 0.00041018428088382544 0 0 0
3115 1 6.500001972016753 16.887494912379783 0.9434828263916349 0 0 0
3125 7 8.12500288377732 17.82568743718364 0.0004101842808862235 0 0 0
3123 1 9.750001972016753 16.887494912379783 0.9434828263916349 0 0 0
3133 7 11.37500288377732 17.82568743718364 0.0004101842808862234 0 0 0
2893 7 14.62500288377732 12.19652231258564 0.00041018428088499605 0 0 0
2892 1 14.625001972016753 14.072912350080784 0.9434828263916336 0 0 0
2886 7 13.00000288377732 15.011104874884639 0.0004101842808838255 0 0 0
2894 7 16.25000288377732 15.011104874884639 0.00041018428088382544 0 0 0
3131 1 13.000001972016753 16.887494912379783 0.9434828263916349 0 0 0
3141 7 14.62500288377732 17.82568743718364 0.0004101842808862235 0 0 0
3139 1 16.25000197201675 16.887494912379783 0.9434828263916349 0 0 0
2901 7 17.87500288377732 12.19652231258564 0.000410184280884996 0 0 0
2909 7 21.12500288377732 12.19652231258564 0.00041018428088499605 0 0 0
2900 1 17.87500197201675 14.072912350080784 0.9434828263916336 0 0 0
2908 1 21.12500197201675 14.072912350080784 0.9434828263916336 0 0 0
2902 7 19.50000288377732 15.011104874884639 0.0004101842808838255 0 0 0
2910 7 22.75000288377732 15.011104874884639 0.00041018428088382544 0 0 0
3149 7 17.87500288377732 17.82568743718364 0.0004101842808862234 0 0 0
3147 1 19.50000197201675 16.887494912379783 0.9434828263916349 0 0 0
3157 7 21.12500288377732 17.82568743718364 0.0004101842808862235 0 0 0
3155 1 22.75000197201675 16.887494912379783 0.9434828263916349 0 0 0
2917 7 24.37500288377732 12.19652231258564 0.00041018428088499605 0 0 0
2925 7 27.62500288377732 12.19652231258564 0.000410184280884996 0 0 0
2916 1 24.37500197201675 14.072912350080784 0.9434828263916336 0 0 0
2924 1 27.62500197201675 14.072912350080784 0.9434828263916336 0 0 0
2918 7 26.00000288377732 15.011104874884639 0.0004101842808838255 0 0 0
2926 7 29.25000288377732 15.011104874884639 0.00041018428088382555 0 0 0
3165 7 24.37500288377732 17.82568743718364 0.0004101842808862235 0 0 0
3163 1 26.00000197201675 16.887494912379783 0.9434828263916349 0 0 0
3173 7 27.62500288377732 17.82568743718364 0.0004101842808862235 0 0 0
3171 1 29.25000197201675 16.887494912379783 0.9434828263916349 0 0 0
2933 7 30.87500288377732 12.19652231258564 0.000410184280884996 0 0 0
2941 7 34.12500288377732 12.19652231258564 0.0004101842808849961 0 0 0
2932 1 30.87500197201675 14.072912350080784 0.9434828263916336 0 0 0
2940 1 34.125001972016754 14.072912350080784 0.9434828263916336 0 0 0
2934 7 32.50000288377732 15.011104874884639 0.00041018428088382544 0 0 0
3181 7 30.87500288377732 17.82568743718364 0.0004101842808862235 0 0 0
3179 1 32.500001972016754 16.887494912379783 0.9434828263916349 0 0 0
3189 7 34.12500288377732 17.82568743718364 0.0004101842808862235 0 0 0
2949 7 37.37500288377732 12.19652231258564 0.000410184280884996 0 0 0
2957 7 40.62500288377732 12.19652231258564 0.0004101842808849961 0 0 0
2948 1 37.375001972016754 14.072912350080784 0.9434828263916336 0 0 0
2956 1 40.625001972016754 14.072912350080784 0.9434828263916336 0 0 0
2942 7 35.75000288377732 15.011104874884639 0.00041018428088382555 0 0 0
2950 7 39.00000288377732 15.011104874884639 0.00041018428088382544 0 0 0
3187 1 35.750001972016754 16.887494912379783 0.9434828263916349 0 0 0
3197 7 37.37500288377732 17.82568743718364 0.0004101842808862235 0 0 0
3195 1 39.000001972016754 16.887494912379783 0.9434828263916349 0 0 0
3205 7 40.62500288377732 17.82568743718364 0.0004101842808862235 0 0 0
2965 7 43.87500288377732 12.19652231258564 0.000410184280884996 0 0 0
2973 7 47.12500288377732 12.19652231258564 0.0004101842808849961 0 0 0
2964 1 43.875001972016754 14.072912350080784 0.9434828263916336 0 0 0
2972 1 47.125001972016754 14.072912350080784 0.9434828263916336 0 0 0
2958 7 42.25000288377732 15.011104874884639 0.00041018428088382555 0 0 0
2966 7 45.50000288377732 15.011104874884639 0.00041018428088382544 0 0 0
3203 1 42.250001972016754 16.887494912379783 0.9434828263916349 0 0 0
3213 7 43.87500288377732 17.82568743718364 0.0004101842808862235 0 0 0
3211 1 45.500001972016754 16.887494912379783 0.9434828263916349 0 0 0
3221 7 47.12500288377732 17.82568743718364 0.0004101842808862234 0 0 0
2733 7 50.37500288377732 12.19652231258564 0.00041018428088499605 -1 0 0
2732 1 50.375001972016754 14.072912350080784 0.9434828263916336 -1 0 0
2974 7 48.75000288377732 15.011104874884639 0.0004101842808838255 0 0 0
2734 7 52.00000288377732 15.011104874884639 0.00041018428088382544 -1 0 0
3219 1 48.750001972016754 16.887494912379783 0.9434828263916349 0 0 0
2981 7 50.37500288377732 17.82568743718364 0.0004101842808862235 -1 0 0
2979 1 52.000001972016754 16.887494912379783 0.9434828263916349 -1 0 0
2741 7 53.62500288377732 12.19652231258564 0.00041018428088499605 -1 0 0
2749 7 56.87500288377732 12.19652231258564 0.000410184280884996 -1 0 0
2740 1 53.625001972016754 14.072912350080784 0.9434828263916336 -1 0 0
2748 1 56.875001972016754 14.072912350080784 0.9434828263916336 -1 0 0
2742 7 55.25000288377732 15.011104874884639 0.0004101842808838255 -1 0 0
2750 7 58.50000288377732 15.011104874884639 0.00041018428088382555 -1 0 0
2989 7 53.62500288377732 17.82568743718364 0.0004101842808862235 -1 0 0
2987 1 55.250001972016754 16.887494912379783 0.9434828263916349 -1 0 0
2997 7 56.87500288377732 17.82568743718364 0.0004101842808862235 -1 0 0
2995 1 58.500001972016754 16.887494912379783 0.9434828263916349 -1 0 0
2757 7 60.12500288377732 12.19652231258564 0.000410184280884996 -1 0 0
2765 7 63.37500288377732 12.19652231258564 0.0004101842808849961 -1 0 0
2756 1 60.125001972016754 14.072912350080784 0.9434828263916336 -1 0 0
2764 1 63.375001972016754 14.072912350080784 0.9434828263916336 -1 0 0
2758 7 61.75000288377732 15.011104874884639 0.00041018428088382544 -1 0 0
2766 7 65.00000288377731 15.011104874884639 0.00041018428088382555 -1 0 0
3005 7 60.12500288377732 17.82568743718364 0.0004101842808862235 -1 0 0
3003 1 61.750001972016754 16.887494912379783 0.9434828263916349 -1 0 0
3013 7 63.37500288377732 17.82568743718364 0.0004101842808862235 -1 0 0
3011 1 65.00000197201675 16.887494912379783 0.9434828263916349 -1 0 0
2773 7 66.62500288377731 12.19652231258564 0.000410184280884996 -1 0 0
2781 7 69.87500288377731 12.19652231258564 0.0004101842808849961 -1 0 0
2772 1 66.62500197201675 14.072912350080784 0.9434828263916336 -1 0 0
2780 1 69.87500197201675 14.072912350080784 0.9434828263916336 -1 0 0
2774 7 68.25000288377731 15.011104874884639 0.00041018428088382544 -1 0 0
3021 7 66.62500288377731 17.82568743718364 0.0004101842808862235 -1 0 0
3019 1 68.25000197201675 16.887494912379783 0.9434828263916349 -1 0 0
3029 7 69.87500288377731 17.82568743718364 0.0004101842808862235 -1 0 0
2789 7 73.12500288377731 12.19652231258564 0.000410184280884996 -1 0 0
2797 7 76.37500288377731 12.19652231258564 0.0004101842808849961 -1 0 0
2788 1 73.12500197201675 14.072912350080784 0.9434828263916336 -1 0 0
2796 1 76.37500197201675 14.072912350080784 0.9434828263916336 -1 0 0
2782 7 71.50000288377731 15.011104874884639 0.00041018428088382555 -1 0 0
2790 7 74.75000288377731 15.011104874884639 0.00041018428088382544 -1 0 0
3027 1 71.50000197201675 16.887494912379783 0.9434828263916349 -1 0 0
3037 7 73.12500288377731 17.82568743718364 0.0004101842808862235 -1 0 0
3035 1 74.75000197201675 16.887494912379783 0.9434828263916349 -1 0 0
3045 7 76.37500288377731 17.82568743718364 0.0004101842808862234 -1 0 0
2805 7 79.62500288377731 12.19652231258564 0.00041018428088499605 -1 0 0
2813 7 82.87500288377731 12.19652231258564 0.000410184280884996 -1 0 0
2804 1 79.62500197201675 14.072912350080784 0.9434828263916336 -1 0 0
2812 1 82.87500197201675 14.072912350080784 0.9434828263916336 -1 0 0
2798 7 78.00000288377731 15.011104874884639 0.0004101842808838255 -1 0 0
2806 7 81.25000288377731 15.011104874884639 0.00041018428088382544 -1 0 0
3043 1 78.00000197201675 16.887494912379783 0.9434828263916349 -1 0 0
3053 7 79.62500288377731 17.82568743718364 0.0004101842808862235 -1 0 0
3051 1 81.25000197201675 16.887494912379783 0.9434828263916349 -1 0 0
3061 7 82.87500288377731 17.82568743718364 0.0004101842808862234 -1 0 0
2821 7 86.12500288377731 12.19652231258564 0.00041018428088499605 -1 0 0
2820 1 86.12500197201675 14.072912350080784 0.9434828263916336 -1 0 0
2814 7 84.50000288377731 15.011104874884639 0.0004101842808838255 -1 0 0
2822 7 87.75000288377731 15.011104874884639 0.00041018428088382544 -1 0 0
3059 1 84.50000197201675 16.887494912379783 0.9434828263916349 -1 0 0
3069 7 86.12500288377731 17.82568743718364 0.0004101842808862235 -1 0 0
3067 1 87.75000197201675 16.887494912379783 0.9434828263916349 -1 0 0
2829 7 89.37500288377731 12.19652231258564 0.00041018428088499605 -1 0 0
2837 7 92.62500288377731 12.19652231258564 0.000410184280884996 -1 0 0
2828 1 89.37500197201675 14.072912350080784 0.9434828263916336 -1 0 0
2836 1 92.62500197201675 14.072912350080784 0.9434828263916336 -1 0 0
2830 7 91.00000288377731 15.011104874884639 0.0004101842808838255 -1 0 0
2838 7 94.25000288377731 15.011104874884639 0.00041018428088382555 -1 0 0
3077 7 89.37500288377731 17.82568743718364 0.0004101842808862235 -1 0 0
3075 1 91.00000197201675 16.887494912379783 0.9434828263916349 -1 0 0
3085 7 92.62500288377731 17.82568743718364 0.0004101842808862235 -1 0 0
3083 1 94.25000197201675 16.887494912379783 0.9434828263916349 -1 0 0
2845 7 95.87500288377731 12.19652231258564 0.000410184280884996 -1 0 0
2853 7 99.12500288377731 12.19652231258564 0.000410184280884996 -1 0 0
2844 1 95.87500197201675 14.072912350080784 0.9434828263916336 -1 0 0
2852 1 99.12500197201675 14.072912350080784 0.9434828263916336 -1 0 0
2846 7 97.50000288377731 15.011104874884639 0.00041018428088382544 -1 0 0
3093 7 95.87500288377731 17.82568743718364 0.0004101842808862235 -1 0 0
3091 1 97.50000197201675 16.887494912379783 0.9434828263916349 -1 0 0
3101 7 99.12500288377731 17.82568743718364 0.0004101842808862235 -1 0 0
3108 1 1.6250019720167526 19.702077474678784 0.9434828263916325 0 0 0
3116 1 4.875001972016753 19.702077474678784 0.9434828263916325 0 0 0
3102 7 2.883777319486437e-06 20.640269999482644 0.00041018428088374895 0 0 0
3110 7 3.2500028837773196 20.640269999482644 0.00041018428088374895 0 0 0
3347 1 1.972016752475502e-06 22.516660036977786 0.9434828263916348 0 0 0
3355 1 3.2500019720167526 22.516660036977786 0.9434828263916348 0 0 0
3357 7 1.6250028837773194 23.45485256178164 0.0004101842808838998 0 0 0
3365 7 4.875002883777319 23.45485256178164 0.00041018428088389987 0 0 0
3124 1 8.125001972016753 19.702077474678784 0.9434828263916325 0 0 0
3132 1 11.375001972016753 19.702077474678784 0.9434828263916325 0 0 0
3118 7 6.500002883777319 20.640269999482644 0.00041018428088374895 0 0 0
3126 7 9.75000288377732 20.640269999482644 0.00041018428088374895 0 0 0
3363 1 6.500001972016753 22.516660036977786 0.9434828263916348 0 0 0
3371 1 9.750001972016753 22.516660036977786 0.9434828263916348 0 0 0