LAMMPS data file via write_data, version 29 Aug 2024, timestep = 0, units = metal

3060 atoms
3 atom types

0 100.42026954708 xlo xhi
0 98.56203841367 ylo yhi
0 18.173842831485 zlo zhi

Masses

1 50.9415
2 78.95999999999999
3 78.971

Atoms # atomic

1534 1 1.6736711591180011 0 1.5806993209560005 0 0 0
1540 1 5.021013477354003 0 1.5806993209560005 0 0 0
1546 1 8.368355795589999 0 1.5806993209560005 0 0 0
1552 1 11.715698113826 0 1.5806993209560005 0 0 0
1558 1 15.063040432062003 0 1.5806993209560005 0 0 0
1564 1 18.410382750298005 0 1.5806993209560005 0 0 0
1570 1 21.757725068534008 0 1.5806993209560005 0 0 0
1576 1 25.105067386769996 0 1.5806993209560005 0 0 0
1582 1 28.452409705005998 0 1.5806993209560005 0 0 0
1588 1 31.799752023242 0 1.5806993209560005 0 0 0
1594 1 35.147094341478 0 1.5806993209560005 0 0 0
1600 1 38.494436659714005 0 1.5806993209560005 0 0 0
1606 1 41.84177897795001 0 1.5806993209560005 0 0 0
1612 1 45.189121296185995 0 1.5806993209560005 0 0 0
1618 1 48.536463614422 0 1.5806993209560005 0 0 0
1444 1 51.883805932658 0 1.5806993209560005 -1 0 0
1450 1 55.231148250893995 0 1.5806993209560005 -1 0 0
1456 1 58.57849056913 0 1.5806993209560005 -1 0 0
1462 1 61.925832887366 0 1.5806993209560005 -1 0 0
1468 1 65.273175205602 0 1.5806993209560005 -1 0 0
1474 1 68.620517523838 0 1.5806993209560005 -1 0 0
1480 1 71.967859842074 0 1.5806993209560005 -1 0 0
1486 1 75.31520216031 0 1.5806993209560005 -1 0 0
1492 1 78.662544478546 0 1.5806993209560005 -1 0 0
1498 1 82.009886796782 0 1.5806993209560005 -1 0 0
1504 1 85.357229115018 0 1.5806993209560005 -1 0 0
1510 1 88.70457143325399 0 1.5806993209560005 -1 0 0
1516 1 92.05191375148999 0 1.5806993209560005 -1 0 0
1522 1 95.399256069726 0 1.5806993209560005 -1 0 0
1528 1 98.746598387962 0 1.5806993209560005 -1 0 0
1536 3 1.6736711591180011 1.9325889885040013 0 0 0 0
1713 1 0 2.8988834827550036 1.5806993209560005 0 0 0
1719 1 3.3473423182360023 2.8988834827550036 1.5806993209560005 0 0 0
1542 3 5.021013477354003 1.9325889885040013 0 0 0 0
1725 1 6.6946846364720045 2.8988834827550036 1.5806993209560005 0 0 0
1548 3 8.368355795589999 1.9325889885040013 0 0 0 0
1731 1 10.042026954708 2.8988834827550036 1.5806993209560005 0 0 0
1554 3 11.715698113826 1.9325889885040013 0 0 0 0
1737 1 13.389369272944002 2.8988834827550036 1.5806993209560005 0 0 0
1560 3 15.063040432062003 1.9325889885040013 0 0 0 0
1743 1 16.736711591180004 2.8988834827550036 1.5806993209560005 0 0 0
1566 3 18.410382750298005 1.9325889885040013 0 0 0 0
1749 1 20.084053909416006 2.8988834827550036 1.5806993209560005 0 0 0
1572 3 21.757725068534008 1.9325889885040013 0 0 0 0
1755 1 23.43139622765201 2.8988834827550036 1.5806993209560005 0 0 0
1578 3 25.105067386769996 1.9325889885040013 0 0 0 0
1761 1 26.778738545887997 2.8988834827550036 1.5806993209560005 0 0 0
1584 3 28.452409705005998 1.9325889885040013 0 0 0 0
1767 1 30.126080864124 2.8988834827550036 1.5806993209560005 0 0 0
1590 3 31.799752023242 1.9325889885040013 0 0 0 0
1773 1 33.47342318236 2.8988834827550036 1.5806993209560005 0 0 0
1596 3 35.147094341478 1.9325889885040013 0 0 0 0
1779 1 36.820765500596 2.8988834827550036 1.5806993209560005 0 0 0
1602 3 38.494436659714005 1.9325889885040013 0 0 0 0
1785 1 40.168107818832006 2.8988834827550036 1.5806993209560005 0 0 0
1608 3 41.84177897795001 1.9325889885040013 0 0 0 0
1791 1 43.51545013706801 2.8988834827550036 1.5806993209560005 0 0 0
1614 3 45.189121296185995 1.9325889885040013 0 0 0 0
1797 1 46.862792455303996 2.8988834827550036 1.5806993209560005 0 0 0
1620 3 48.536463614422 1.9325889885040013 0 0 0 0
1446 3 51.883805932658 1.9325889885040013 0 -1 0 0
1623 1 50.21013477354 2.8988834827550036 1.5806993209560005 -1 0 0
1629 1 53.557477091776 2.8988834827550036 1.5806993209560005 -1 0 0
1452 3 55.231148250893995 1.9325889885040013 0 -1 0 0
1635 1 56.904819410011996 2.8988834827550036 1.5806993209560005 -1 0 0
1458 3 58.57849056913 1.9325889885040013 0 -1 0 0
1641 1 60.252161728248 2.8988834827550036 1.5806993209560005 -1 0 0
1464 3 61.925832887366 1.9325889885040013 0 -1 0 0
1647 1 63.599504046484 2.8988834827550036 1.5806993209560005 -1 0 0
1470 3 65.273175205602 1.9325889885040013 0 -1 0 0
1653 1 66.94684636472 2.8988834827550036 1.5806993209560005 -1 0 0
1476 3 68.620517523838 1.9325889885040013 0 -1 0 0
1659 1 70.29418868295599 2.8988834827550036 1.5806993209560005 -1 0 0
1482 3 71.967859842074 1.9325889885040013 0 -1 0 0
1665 1 73.64153100119199 2.8988834827550036 1.5806993209560005 -1 0 0
1488 3 75.31520216031 1.9325889885040013 0 -1 0 0
1671 1 76.988873319428 2.8988834827550036 1.5806993209560005 -1 0 0
1494 3 78.662544478546 1.9325889885040013 0 -1 0 0
1677 1 80.336215637664 2.8988834827550036 1.5806993209560005 -1 0 0
1500 3 82.009886796782 1.9325889885040013 0 -1 0 0
1683 1 83.6835579559 2.8988834827550036 1.5806993209560005 -1 0 0
1506 3 85.357229115018 1.9325889885040013 0 -1 0 0
1689 1 87.030900274136 2.8988834827550036 1.5806993209560005 -1 0 0
1512 3 88.70457143325399 1.9325889885040013 0 -1 0 0
1695 1 90.378242592372 2.8988834827550036 1.5806993209560005 -1 0 0
1518 3 92.05191375148999 1.9325889885040013 0 -1 0 0
1701 1 93.725584910608 2.8988834827550036 1.5806993209560005 -1 0 0
1524 3 95.399256069726 1.9325889885040013 0 -1 0 0
1707 1 97.07292722884401 2.8988834827550036 1.5806993209560005 -1 0 0
1530 3 98.746598387962 1.9325889885040013 0 -1 0 0
1715 3 0 4.831472471259005 0 0 0 0
1721 3 3.3473423182360023 4.831472471259005 0 0 0 0
1727 3 6.6946846364720045 4.831472471259005 0 0 0 0
1733 3 10.042026954708 4.831472471259005 0 0 0 0
1739 3 13.389369272944002 4.831472471259005 0 0 0 0
1745 3 16.736711591180004 4.831472471259005 0 0 0 0
1751 3 20.084053909416006 4.831472471259005 0 0 0 0
1757 3 23.43139622765201 4.831472471259005 0 0 0 0
1763 3 26.778738545887997 4.831472471259005 0 0 0 0
1769 3 30.126080864124 4.831472471259005 0 0 0 0
1775 3 33.47342318236 4.831472471259005 0 0 0 0
1781 3 36.820765500596 4.831472471259005 0 0 0 0
1787 3 40.168107818832006 4.831472471259005 0 0 0 0
1793 3 43.51545013706801 4.831472471259005 0 0 0 0
1799 3 46.862792455303996 4.831472471259005 0 0 0 0
1625 3 50.21013477354 4.831472471259005 0 -1 0 0
1631 3 53.557477091776 4.831472471259005 0 -1 0 0
1637 3 56.904819410011996 4.831472471259005 0 -1 0 0
1643 3 60.252161728248 4.831472471259005 0 -1 0 0
1649 3 63.599504046484 4.831472471259005 0 -1 0 0
1655 3 66.94684636472 4.831472471259005 0 -1 0 0
1661 3 70.29418868295599 4.831472471259005 0 -1 0 0
1667 3 73.64153100119199 4.831472471259005 0 -1 0 0
1673 3 76.988873319428 4.831472471259005 0 -1 0 0
1679 3 80.336215637664 4.831472471259005 0 -1 0 0
1685 3 83.6835579559 4.831472471259005 0 -1 0 0
1691 3 87.030900274136 4.831472471259005 0 -1 0 0
1697 3 90.378242592372 4.831472471259005 0 -1 0 0
1703 3 93.725584910608 4.831472471259005 0 -1 0 0
1709 3 97.07292722884401 4.831472471259005 0 -1 0 0
1714 1 1.6736711591180011 5.79776696551 1.5806993209560005 0 0 0
1720 1 5.021013477354003 5.79776696551 1.5806993209560005 0 0 0
1726 1 8.368355795589999 5.79776696551 1.5806993209560005 0 0 0
1732 1 11.715698113826 5.79776696551 1.5806993209560005 0 0 0
1738 1 15.063040432062003 5.79776696551 1.5806993209560005 0 0 0
1744 1 18.410382750298005 5.79776696551 1.5806993209560005 0 0 0
1750 1 21.757725068534008 5.79776696551 1.5806993209560005 0 0 0
1756 1 25.105067386769996 5.79776696551 1.5806993209560005 0 0 0
1762 1 28.452409705005998 5.79776696551 1.5806993209560005 0 0 0
1768 1 31.799752023242 5.79776696551 1.5806993209560005 0 0 0
1774 1 35.147094341478 5.79776696551 1.5806993209560005 0 0 0
1780 1 38.494436659714005 5.79776696551 1.5806993209560005 0 0 0
1786 1 41.84177897795001 5.79776696551 1.5806993209560005 0 0 0
1792 1 45.189121296185995 5.79776696551 1.5806993209560005 0 0 0
1798 1 48.536463614422 5.79776696551 1.5806993209560005 0 0 0
1624 1 51.883805932658 5.79776696551 1.5806993209560005 -1 0 0
1630 1 55.231148250893995 5.79776696551 1.5806993209560005 -1 0 0
1636 1 58.57849056913 5.79776696551 1.5806993209560005 -1 0 0
1642 1 61.925832887366 5.79776696551 1.5806993209560005 -1 0 0
1648 1 65.273175205602 5.79776696551 1.5806993209560005 -1 0 0
1654 1 68.620517523838 5.79776696551 1.5806993209560005 -1 0 0
1660 1 71.967859842074 5.79776696551 1.5806993209560005 -1 0 0
1666 1 75.31520216031 5.79776696551 1.5806993209560005 -1 0 0
1672 1 78.662544478546 5.79776696551 1.5806993209560005 -1 0 0
1678 1 82.009886796782 5.79776696551 1.5806993209560005 -1 0 0
1684 1 85.357229115018 5.79776696551 1.5806993209560005 -1 0 0
1690 1 88.70457143325399 5.79776696551 1.5806993209560005 -1 0 0
1696 1 92.05191375148999 5.79776696551 1.5806993209560005 -1 0 0
1702 1 95.399256069726 5.79776696551 1.5806993209560005 -1 0 0
1708 1 98.746598387962 5.79776696551 1.5806993209560005 -1 0 0
1716 3 1.6736711591180011 7.730355954014001 0 0 0 0
1893 1 0 8.696650448265004 1.5806993209560005 0 0 0
1899 1 3.3473423182360023 8.696650448265004 1.5806993209560005 0 0 0
1722 3 5.021013477354003 7.730355954014001 0 0 0 0
1905 1 6.6946846364720045 8.696650448265004 1.5806993209560005 0 0 0
1728 3 8.368355795589999 7.730355954014001 0 0 0 0
1911 1 10.042026954708 8.696650448265004 1.5806993209560005 0 0 0
1734 3 11.715698113826 7.730355954014001 0 0 0 0
1917 1 13.389369272944002 8.696650448265004 1.5806993209560005 0 0 0
1740 3 15.063040432062003 7.730355954014001 0 0 0 0
1923 1 16.736711591180004 8.696650448265004 1.5806993209560005 0 0 0
1746 3 18.410382750298005 7.730355954014001 0 0 0 0
1929 1 20.084053909416006 8.696650448265004 1.5806993209560005 0 0 0
1752 3 21.757725068534008 7.730355954014001 0 0 0 0
1935 1 23.43139622765201 8.696650448265004 1.5806993209560005 0 0 0
1758 3 25.105067386769996 7.730355954014001 0 0 0 0
1941 1 26.778738545887997 8.696650448265004 1.5806993209560005 0 0 0
1764 3 28.452409705005998 7.730355954014001 0 0 0 0
1947 1 30.126080864124 8.696650448265004 1.5806993209560005 0 0 0
1770 3 31.799752023242 7.730355954014001 0 0 0 0
1953 1 33.47342318236 8.696650448265004 1.5806993209560005 0 0 0
1776 3 35.147094341478 7.730355954014001 0 0 0 0
1959 1 36.820765500596 8.696650448265004 1.5806993209560005 0 0 0
1782 3 38.494436659714005 7.730355954014001 0 0 0 0
1965 1 40.168107818832006 8.696650448265004 1.5806993209560005 0 0 0
1788 3 41.84177897795001 7.730355954014001 0 0 0 0
1971 1 43.51545013706801 8.696650448265004 1.5806993209560005 0 0 0
1794 3 45.189121296185995 7.730355954014001 0 0 0 0
1977 1 46.862792455303996 8.696650448265004 1.5806993209560005 0 0 0
1800 3 48.536463614422 7.730355954014001 0 0 0 0
1626 3 51.883805932658 7.730355954014001 0 -1 0 0
1803 1 50.21013477354 8.696650448265004 1.5806993209560005 -1 0 0
1809 1 53.557477091776 8.696650448265004 1.5806993209560005 -1 0 0
1632 3 55.231148250893995 7.730355954014001 0 -1 0 0
1815 1 56.904819410011996 8.696650448265004 1.5806993209560005 -1 0 0
1638 3 58.57849056913 7.730355954014001 0 -1 0 0
1821 1 60.252161728248 8.696650448265004 1.5806993209560005 -1 0 0
1644 3 61.925832887366 7.730355954014001 0 -1 0 0
1827 1 63.599504046484 8.696650448265004 1.5806993209560005 -1 0 0
1650 3 65.273175205602 7.730355954014001 0 -1 0 0
1833 1 66.94684636472 8.696650448265004 1.5806993209560005 -1 0 0
1656 3 68.620517523838 7.730355954014001 0 -1 0 0
1839 1 70.29418868295599 8.696650448265004 1.5806993209560005 -1 0 0
1662 3 71.967859842074 7.730355954014001 0 -1 0 0
1845 1 73.64153100119199 8.696650448265004 1.5806993209560005 -1 0 0
1668 3 75.31520216031 7.730355954014001 0 -1 0 0
1851 1 76.988873319428 8.696650448265004 1.5806993209560005 -1 0 0
1674 3 78.662544478546 7.730355954014001 0 -1 0 0
1857 1 80.336215637664 8.696650448265004 1.5806993209560005 -1 0 0
1680 3 82.009886796782 7.730355954014001 0 -1 0 0
1863 1 83.6835579559 8.696650448265004 1.5806993209560005 -1 0 0
1686 3 85.357229115018 7.730355954014001 0 -1 0 0
1869 1 87.030900274136 8.696650448265004 1.5806993209560005 -1 0 0
1692 3 88.70457143325399 7.730355954014001 0 -1 0 0
1875 1 90.378242592372 8.696650448265004 1.5806993209560005 -1 0 0
1698 3 92.05191375148999 7.730355954014001 0 -1 0 0
1881 1 93.725584910608 8.696650448265004 1.5806993209560005 -1 0 0
1704 3 95.399256069726 7.730355954014001 0 -1 0 0
1887 1 97.07292722884401 8.696650448265004 1.5806993209560005 -1 0 0
1710 3 98.746598387962 7.730355954014001 0 -1 0 0
1895 3 0 10.629239436769005 0 0 0 0
1901 3 3.3473423182360023 10.629239436769005 0 0 0 0
1907 3 6.6946846364720045 10.629239436769005 0 0 0 0
1913 3 10.042026954708 10.629239436769005 0 0 0 0
1919 3 13.389369272944002 10.629239436769005 0 0 0 0
1925 3 16.736711591180004 10.629239436769005 0 0 0 0
1931 3 20.084053909416006 10.629239436769005 0 0 0 0
1937 3 23.43139622765201 10.629239436769005 0 0 0 0
1943 3 26.778738545887997 10.629239436769005 0 0 0 0
1949 3 30.126080864124 10.629239436769005 0 0 0 0
1955 3 33.47342318236 10.629239436769005 0 0 0 0
1961 3 36.820765500596 10.629239436769005 0 0 0 0
1967 3 40.168107818832006 10.629239436769005 0 0 0 0
1973 3 43.51545013706801 10.629239436769005 0 0 0 0
1979 3 46.862792455303996 10.629239436769005 0 0 0 0
1805 3 50.21013477354 10.629239436769005 0 -1 0 0
1811 3 53.557477091776 10.629239436769005 0 -1 0 0
1817 3 56.904819410011996 10.629239436769005 0 -1 0 0
1823 3 60.252161728248 10.629239436769005 0 -1 0 0
1829 3 63.599504046484 10.629239436769005 0 -1 0 0
1835 3 66.94684636472 10.629239436769005 0 -1 0 0
1841 3 70.29418868295599 10.629239436769005 0 -1 0 0
1847 3 73.64153100119199 10.629239436769005 0 -1 0 0
1853 3 76.988873319428 10.629239436769005 0 -1 0 0
1859 3 80.336215637664 10.629239436769005 0 -1 0 0
1865 3 83.6835579559 10.629239436769005 0 -1 0 0
1871 3 87.030900274136 10.629239436769005 0 -1 0 0
1877 3 90.378242592372 10.629239436769005 0 -1 0 0
1883 3 93.725584910608 10.629239436769005 0 -1 0 0
1889 3 97.07292722884401 10.629239436769005 0 -1 0 0
1894 1 1.6736711591180011 11.59553393102 1.5806993209560005 0 0 0
1900 1 5.021013477354003 11.59553393102 1.5806993209560005 0 0 0
1906 1 8.368355795589999 11.59553393102 1.5806993209560005 0 0 0
1912 1 11.715698113826 11.59553393102 1.5806993209560005 0 0 0
1918 1 15.063040432062003 11.59553393102 1.5806993209560005 0 0 0
1924 1 18.410382750298005 11.59553393102 1.5806993209560005 0 0 0
1930 1 21.757725068534008 11.59553393102 1.5806993209560005 0 0 0
1936 1 25.105067386769996 11.59553393102 1.5806993209560005 0 0 0
1942 1 28.452409705005998 11.59553393102 1.5806993209560005 0 0 0
1948 1 31.799752023242 11.59553393102 1.5806993209560005 0 0 0
1954 1 35.147094341478 11.59553393102 1.5806993209560005 0 0 0
1960 1 38.494436659714005 11.59553393102 1.5806993209560005 0 0 0
1966 1 41.84177897795001 11.59553393102 1.5806993209560005 0 0 0
1972 1 45.189121296185995 11.59553393102 1.5806993209560005 0 0 0
1978 1 48.536463614422 11.59553393102 1.5806993209560005 0 0 0
1804 1 51.883805932658 11.59553393102 1.5806993209560005 -1 0 0
1810 1 55.231148250893995 11.59553393102 1.5806993209560005 -1 0 0
1816 1 58.57849056913 11.59553393102 1.5806993209560005 -1 0 0
1822 1 61.925832887366 11.59553393102 1.5806993209560005 -1 0 0
1828 1 65.273175205602 11.59553393102 1.5806993209560005 -1 0 0
1834 1 68.620517523838 11.59553393102 1.5806993209560005 -1 0 0
1840 1 71.967859842074 11.59553393102 1.5806993209560005 -1 0 0
1846 1 75.31520216031 11.59553393102 1.5806993209560005 -1 0 0
1852 1 78.662544478546 11.59553393102 1.5806993209560005 -1 0 0
1858 1 82.009886796782 11.59553393102 1.5806993209560005 -1 0 0
1864 1 85.357229115018 11.59553393102 1.5806993209560005 -1 0 0
1870 1 88.70457143325399 11.59553393102 1.5806993209560005 -1 0 0
1876 1 92.05191375148999 11.59553393102 1.5806993209560005 -1 0 0
1882 1 95.399256069726 11.59553393102 1.5806993209560005 -1 0 0
1888 1 98.746598387962 11.59553393102 1.5806993209560005 -1 0 0
1896 3 1.6736711591180011 13.528122919524002 0 0 0 0
1902 3 5.021013477354003 13.528122919524002 0 0 0 0
1908 3 8.368355795589999 13.528122919524002 0 0 0 0
1914 3 11.715698113826 13.528122919524002 0 0 0 0
1920 3 15.063040432062003 13.528122919524002 0 0 0 0
1926 3 18.410382750298005 13.528122919524002 0 0 0 0
1932 3 21.757725068534008 13.528122919524002 0 0 0 0
1938 3 25.105067386769996 13.528122919524002 0 0 0 0
1944 3 28.452409705005998 13.528122919524002 0 0 0 0
1950 3 31.799752023242 13.528122919524002 0 0 0 0
1956 3 35.147094341478 13.528122919524002 0 0 0 0
1962 3 38.494436659714005 13.528122919524002 0 0 0 0
1968 3 41.84177897795001 13.528122919524002 0 0 0 0
1974 3 45.189121296185995 13.528122919524002 0 0 0 0
1980 3 48.536463614422 13.528122919524002 0 0 0 0
1806 3 51.883805932658 13.528122919524002 0 -1 0 0
1812 3 55.231148250893995 13.528122919524002 0 -1 0 0
1818 3 58.57849056913 13.528122919524002 0 -1 0 0
1824 3 61.925832887366 13.528122919524002 0 -1 0 0
1830 3 65.273175205602 13.528122919524002 0 -1 0 0
1836 3 68.620517523838 13.528122919524002 0 -1 0 0
1842 3 71.967859842074 13.528122919524002 0 -1 0 0
1848 3 75.31520216031 13.528122919524002 0 -1 0 0
1854 3 78.662544478546 13.528122919524002 0 -1 0 0
1860 3 82.009886796782 13.528122919524002 0 -1 0 0
1866 3 85.357229115018 13.528122919524002 0 -1 0 0
1872 3 88.70457143325399 13.528122919524002 0 -1 0 0
1878 3 92.05191375148999 13.528122919524002 0 -1 0 0
1884 3 95.399256069726 13.528122919524002 0 -1 0 0
1890 3 98.746598387962 13.528122919524002 0 -1 0 0
2073 1 0 14.494417413775004 1.5806993209560005 0 0 0
2079 1 3.3473423182360023 14.494417413775004 1.5806993209560005 0 0 0
2085 1 6.6946846364720045 14.494417413775004 1.5806993209560005 0 0 0
2091 1 10.042026954708 14.494417413775004 1.5806993209560005 0 0 0
2097 1 13.389369272944002 14.494417413775004 1.5806993209560005 0 0 0
2103 1 16.736711591180004 14.494417413775004 1.5806993209560005 0 0 0
2109 1 20.084053909416006 14.494417413775004 1.5806993209560005 0 0 0
2115 1 23.43139622765201 14.494417413775004 1.5806993209560005 0 0 0
2121 1 26.778738545887997 14.494417413775004 1.5806993209560005 0 0 0
2127 1 30.126080864124 14.494417413775004 1.5806993209560005 0 0 0
2133 1 33.47342318236 14.494417413775004 1.5806993209560005 0 0 0
2139 1 36.820765500596 14.494417413775004 1.5806993209560005 0 0 0
2145 1 40.168107818832006 14.494417413775004 1.5806993209560005 0 0 0
2151 1 43.51545013706801 14.494417413775004 1.5806993209560005 0 0 0
2157 1 46.862792455303996 14.494417413775004 1.5806993209560005 0 0 0
1983 1 50.21013477354 14.494417413775004 1.5806993209560005 -1 0 0
1989 1 53.557477091776 14.494417413775004 1.5806993209560005 -1 0 0
1995 1 56.904819410011996 14.494417413775004 1.5806993209560005 -1 0 0
2001 1 60.252161728248 14.494417413775004 1.5806993209560005 -1 0 0
2007 1 63.599504046484 14.494417413775004 1.5806993209560005 -1 0 0
2013 1 66.94684636472 14.494417413775004 1.5806993209560005 -1 0 0
2019 1 70.29418868295599 14.494417413775004 1.5806993209560005 -1 0 0
2025 1 73.64153100119199 14.494417413775004 1.5806993209560005 -1 0 0
2031 1 76.988873319428 14.494417413775004 1.5806993209560005 -1 0 0
2037 1 80.336215637664 14.494417413775004 1.5806993209560005 -1 0 0
2043 1 83.6835579559 14.494417413775004 1.5806993209560005 -1 0 0
2049 1 87.030900274136 14.494417413775004 1.5806993209560005 -1 0 0
2055 1 90.378242592372 14.494417413775004 1.5806993209560005 -1 0 0
2061 1 93.725584910608 14.494417413775004 1.5806993209560005 -1 0 0
2067 1 97.07292722884401 14.494417413775004 1.5806993209560005 -1 0 0
2075 3 0 16.427006402279005 0 0 0 0
2074 1 1.6736711591180011 17.393300896530008 1.5806993209560005 0 0 0
2081 3 3.3473423182360023 16.427006402279005 0 0 0 0
2080 1 5.021013477354003 17.393300896530008 1.5806993209560005 0 0 0
2087 3 6.6946846364720045 16.427006402279005 0 0 0 0
2086 1 8.368355795589999 17.393300896530008 1.5806993209560005 0 0 0
2093 3 10.042026954708 16.427006402279005 0 0 0 0
2092 1 11.715698113826 17.393300896530008 1.5806993209560005 0 0 0
2099 3 13.389369272944002 16.427006402279005 0 0 0 0
2098 1 15.063040432062003 17.393300896530008 1.5806993209560005 0 0 0
2105 3 16.736711591180004 16.427006402279005 0 0 0 0
2104 1 18.410382750298005 17.393300896530008 1.5806993209560005 0 0 0
2111 3 20.084053909416006 16.427006402279005 0 0 0 0
2110 1 21.757725068534008 17.393300896530008 1.5806993209560005 0 0 0
2117 3 23.43139622765201 16.427006402279005 0 0 0 0
2123 3 26.778738545887997 16.427006402279005 0 0 0 0
2116 1 25.105067386769996 17.393300896530008 1.5806993209560005 0 0 0
2122 1 28.452409705005998 17.393300896530008 1.5806993209560005 0 0 0
2129 3 30.126080864124 16.427006402279005 0 0 0 0
2128 1 31.799752023242 17.393300896530008 1.5806993209560005 0 0 0
2135 3 33.47342318236 16.427006402279005 0 0 0 0
2134 1 35.147094341478 17.393300896530008 1.5806993209560005 0 0 0
2141 3 36.820765500596 16.427006402279005 0 0 0 0
2140 1 38.494436659714005 17.393300896530008 1.5806993209560005 0 0 0
2147 3 40.168107818832006 16.427006402279005 0 0 0 0
2146 1 41.84177897795001 17.393300896530008 1.5806993209560005 0 0 0
2153 3 43.51545013706801 16.427006402279005 0 0 0 0
2152 1 45.189121296185995 17.393300896530008 1.5806993209560005 0 0 0
2159 3 46.862792455303996 16.427006402279005 0 0 0 0
2158 1 48.536463614422 17.393300896530008 1.5806993209560005 0 0 0
1985 3 50.21013477354 16.427006402279005 0 -1 0 0
1984 1 51.883805932658 17.393300896530008 1.5806993209560005 -1 0 0
1991 3 53.557477091776 16.427006402279005 0 -1 0 0
1990 1 55.231148250893995 17.393300896530008 1.5806993209560005 -1 0 0
1997 3 56.904819410011996 16.427006402279005 0 -1 0 0
1996 1 58.57849056913 17.393300896530008 1.5806993209560005 -1 0 0
2003 3 60.252161728248 16.427006402279005 0 -1 0 0
2002 1 61.925832887366 17.393300896530008 1.5806993209560005 -1 0 0
2009 3 63.599504046484 16.427006402279005 0 -1 0 0
2008 1 65.273175205602 17.393300896530008 1.5806993209560005 -1 0 0
2015 3 66.94684636472 16.427006402279005 0 -1 0 0
2014 1 68.620517523838 17.393300896530008 1.5806993209560005 -1 0 0
2021 3 70.29418868295599 16.427006402279005 0 -1 0 0
2020 1 71.967859842074 17.393300896530008 1.5806993209560005 -1 0 0
2027 3 73.64153100119199 16.427006402279005 0 -1 0 0
2033 3 76.988873319428 16.427006402279005 0 -1 0 0
2026 1 75.31520216031 17.393300896530008 1.5806993209560005 -1 0 0
2032 1 78.662544478546 17.393300896530008 1.5806993209560005 -1 0 0
2039 3 80.336215637664 16.427006402279005 0 -1 0 0
2038 1 82.009886796782 17.393300896530008 1.5806993209560005 -1 0 0
2045 3 83.6835579559 16.427006402279005 0 -1 0 0
2044 1 85.357229115018 17.393300896530008 1.5806993209560005 -1 0 0
2051 3 87.030900274136 16.427006402279005 0 -1 0 0
2050 1 88.70457143325399 17.393300896530008 1.5806993209560005 -1 0 0
2057 3 90.378242592372 16.427006402279005 0 -1 0 0
2056 1 92.05191375148999 17.393300896530008 1.5806993209560005 -1 0 0
2063 3 93.725584910608 16.427006402279005 0 -1 0 0
2062 1 95.399256069726 17.393300896530008 1.5806993209560005 -1 0 0
2069 3 97.07292722884401 16.427006402279005 0 -1 0 0
2068 1 98.746598387962 17.393300896530008 1.5806993209560005 -1 0 0
2076 3 1.6736711591180011 19.325889885034 0 0 0 0
2082 3 5.021013477354003 19.325889885034 0 0 0 0
2088 3 8.368355795589999 19.325889885034 0 0 0 0
2094 3 11.715698113826 19.325889885034 0 0 0 0
2100 3 15.063040432062003 19.325889885034 0 0 0 0
2106 3 18.410382750298005 19.325889885034 0 0 0 0
2112 3 21.757725068534008 19.325889885034 0 0 0 0
2118 3 25.105067386769996 19.325889885034 0 0 0 0
2124 3 28.452409705005998 19.325889885034 0 0 0 0
2130 3 31.799752023242 19.325889885034 0 0 0 0
2136 3 35.147094341478 19.325889885034 0 0 0 0
2142 3 38.494436659714005 19.325889885034 0 0 0 0
2148 3 41.84177897795001 19.325889885034 0 0 0 0
2154 3 45.189121296185995 19.325889885034 0 0 0 0
2160 3 48.536463614422 19.325889885034 0 0 0 0
1986 3 51.883805932658 19.325889885034 0 -1 0 0
1992 3 55.231148250893995 19.325889885034 0 -1 0 0
1998 3 58.57849056913 19.325889885034 0 -1 0 0
2004 3 61.925832887366 19.325889885034 0 -1 0 0
2010 3 65.273175205602 19.325889885034 0 -1 0 0
2016 3 68.620517523838 19.325889885034 0 -1 0 0
2022 3 71.967859842074 19.325889885034 0 -1 0 0
2028 3 75.31520216031 19.325889885034 0 -1 0 0
2034 3 78.662544478546 19.325889885034 0 -1 0 0
2040 3 82.009886796782 19.325889885034 0 -1 0 0
2046 3 85.357229115018 19.325889885034 0 -1 0 0
2052 3 88.70457143325399 19.325889885034 0 -1 0 0
2058 3 92.05191375148999 19.325889885034 0 -1 0 0
2064 3 95.399256069726 19.325889885034 0 -1 0 0
2070 3 98.746598387962 19.325889885034 0 -1 0 0
2253 1 0 20.292184379285004 1.5806993209560005 0 0 0
2259 1 3.3473423182360023 20.292184379285004 1.5806993209560005 0 0 0
2265 1 6.6946846364720045 20.292184379285004 1.5806993209560005 0 0 0
2271 1 10.042026954708 20.292184379285004 1.5806993209560005 0 0 0
2277 1 13.389369272944002 20.292184379285004 1.5806993209560005 0 0 0
2283 1 16.736711591180004 20.292184379285004 1.5806993209560005 0 0 0
2289 1 20.084053909416006 20.292184379285004 1.5806993209560005 0 0 0
2295 1 23.43139622765201 20.292184379285004 1.5806993209560005 0 0 0
2301 1 26.778738545887997 20.292184379285004 1.5806993209560005 0 0 0
2307 1 30.126080864124 20.292184379285004 1.5806993209560005 0 0 0
2313 1 33.47342318236 20.292184379285004 1.5806993209560005 0 0 0
2319 1 36.820765500596 20.292184379285004 1.5806993209560005 0 0 0
2325 1 40.168107818832006 20.292184379285004 1.5806993209560005 0 0 0
2331 1 43.51545013706801 20.292184379285004 1.5806993209560005 0 0 0
2337 1 46.862792455303996 20.292184379285004 1.5806993209560005 0 0 0
2163 1 50.21013477354 20.292184379285004 1.5806993209560005 -1 0 0
2169 1 53.557477091776 20.292184379285004 1.5806993209560005 -1 0 0
2175 1 56.904819410011996 20.292184379285004 1.5806993209560005 -1 0 0
2181 1 60.252161728248 20.292184379285004 1.5806993209560005 -1 0 0
2187 1 63.599504046484 20.292184379285004 1.5806993209560005 -1 0 0
2193 1 66.94684636472 20.292184379285004 1.5806993209560005 -1 0 0
2199 1 70.29418868295599 20.292184379285004 1.5806993209560005 -1 0 0
2205 1 73.64153100119199 20.292184379285004 1.5806993209560005 -1 0 0
2211 1 76.988873319428 20.292184379285004 1.5806993209560005 -1 0 0
2217 1 80.336215637664 20.292184379285004 1.5806993209560005 -1 0 0
2223 1 83.6835579559 20.292184379285004 1.5806993209560005 -1 0 0
2229 1 87.030900274136 20.292184379285004 1.5806993209560005 -1 0 0
2235 1 90.378242592372 20.292184379285004 1.5806993209560005 -1 0 0
2241 1 93.725584910608 20.292184379285004 1.5806993209560005 -1 0 0
2247 1 97.07292722884401 20.292184379285004 1.5806993209560005 -1 0 0
2255 3 0 22.224773367789 0 0 0 0
2254 1 1.6736711591180011 23.19106786204 1.5806993209560005 0 0 0
2261 3 3.3473423182360023 22.224773367789 0 0 0 0
2260 1 5.021013477354003 23.19106786204 1.5806993209560005 0 0 0
2267 3 6.6946846364720045 22.224773367789 0 0 0 0
2266 1 8.368355795589999 23.19106786204 1.5806993209560005 0 0 0
2273 3 10.042026954708 22.224773367789 0 0 0 0
2272 1 11.715698113826 23.19106786204 1.5806993209560005 0 0 0
2279 3 13.389369272944002 22.224773367789 0 0 0 0
2278 1 15.063040432062003 23.19106786204 1.5806993209560005 0 0 0
2285 3 16.736711591180004 22.224773367789 0 0 0 0
2284 1 18.410382750298005 23.19106786204 1.5806993209560005 0 0 0
2291 3 20.084053909416006 22.224773367789 0 0 0 0
2290 1 21.757725068534008 23.19106786204 1.5806993209560005 0 0 0
2297 3 23.43139622765201 22.224773367789 0 0 0 0
2303 3 26.778738545887997 22.224773367789 0 0 0 0
2296 1 25.105067386769996 23.19106786204 1.5806993209560005 0 0 0
2302 1 28.452409705005998 23.19106786204 1.5806993209560005 0 0 0
2309 3 30.126080864124 22.224773367789 0 0 0 0
2308 1 31.799752023242 23.19106786204 1.5806993209560005 0 0 0
2315 3 33.47342318236 22.224773367789 0 0 0 0
2314 1 35.147094341478 23.19106786204 1.5806993209560005 0 0 0
2321 3 36.820765500596 22.224773367789 0 0 0 0
2320 1 38.494436659714005 23.19106786204 1.5806993209560005 0 0 0
2327 3 40.168107818832006 22.224773367789 0 0 0 0
2326 1 41.84177897795001 23.19106786204 1.5806993209560005 0 0 0
2333 3 43.51545013706801 22.224773367789 0 0 0 0
2332 1 45.189121296185995 23.19106786204 1.5806993209560005 0 0 0
2339 3 46.862792455303996 22.224773367789 0 0 0 0
2338 1 48.536463614422 23.19106786204 1.5806993209560005 0 0 0
2165 3 50.21013477354 22.224773367789 0 -1 0 0
2164 1 51.883805932658 23.19106786204 1.5806993209560005 -1 0 0
2171 3 53.557477091776 22.224773367789 0 -1 0 0
2170 1 55.231148250893995 23.19106786204 1.5806993209560005 -1 0 0
2177 3 56.904819410011996 22.224773367789 0 -1 0 0
2176 1 58.57849056913 23.19106786204 1.5806993209560005 -1 0 0
2183 3 60.252161728248 22.224773367789 0 -1 0 0
2182 1 61.925832887366 23.19106786204 1.5806993209560005 -1 0 0
2189 3 63.599504046484 22.224773367789 0 -1 0 0
2188 1 65.273175205602 23.19106786204 1.5806993209560005 -1 0 0
2195 3 66.94684636472 22.224773367789 0 -1 0 0
2194 1 68.620517523838 23.19106786204 1.5806993209560005 -1 0 0
2201 3 70.29418868295599 22.224773367789 0 -1 0 0
2200 1 71.967859842074 23.19106786204 1.5806993209560005 -1 0 0
2207 3 73.64153100119199 22.224773367789 0 -1 0 0
2213 3 76.988873319428 22.224773367789 0 -1 0 0
2206 1 75.31520216031 23.19106786204 1.5806993209560005 -1 0 0
2212 1 78.662544478546 23.19106786204 1.5806993209560005 -1 0 0
2219 3 80.336215637664 22.224773367789 0 -1 0 0
2218 1 82.009886796782 23.19106786204 1.5806993209560005 -1 0 0
2225 3 83.6835579559 22.224773367789 0 -1 0 0
2224 1 85.357229115018 23.19106786204 1.5806993209560005 -1 0 0
2231 3 87.030900274136 22.224773367789 0 -1 0 0
2230 1 88.70457143325399 23.19106786204 1.5806993209560005 -1 0 0
2237 3 90.378242592372 22.224773367789 0 -1 0 0
2236 1 92.05191375148999 23.19106786204 1.5806993209560005 -1 0 0
2243 3 93.725584910608 22.224773367789 0 -1 0 0
2242 1 95.399256069726 23.19106786204 1.5806993209560005 -1 0 0
2249 3 97.07292722884401 22.224773367789 0 -1 0 0
2248 1 98.746598387962 23.19106786204 1.5806993209560005 -1 0 0
2256 3 1.6736711591180011 25.12365685054401 0 0 0 0
2433 1 0 26.089951344794997 1.5806993209560005 0 0 0