LAMMPS data file via write_data, version 29 Aug 2024, timestep = 2, units = metal

6120 atoms
6 atom types

0 100.42026954708 xlo xhi
0 98.56203841367 ylo yhi
-50 50 zlo zhi

Masses

1 50.9415
2 50.9415
3 78.971
4 78.971
5 78.971
6 78.971

Atoms # atomic

1536 4 1.6736711591180011 1.932586448928593 0.0513180755033609 0 0 0
1713 1 0 2.898456673571401 1.577862998457244 0 0 0
1719 1 3.3473423182360023 2.898456673571401 1.5778629984572439 0 0 0
1542 4 5.021013477354003 1.932586448928593 0.051318075503360774 0 0 0
1715 4 2.4333669749509676e-16 4.831469931683595 0.05131807550336061 0 0 0
1721 4 3.3473423182360023 4.831469931683595 0.05131807550336051 0 0 0
1714 1 1.6736711591180011 5.797340156326401 1.5778629984572454 0 0 0
1720 1 5.021013477354003 5.797340156326401 1.5778629984572454 0 0 0
1725 1 6.694684636472002 2.898456673571401 1.577862998457244 0 0 0
1548 4 8.36835579559 1.9325864489285924 0.0513180755033599 0 0 0
1731 1 10.042026954708 2.898456673571401 1.577862998457244 0 0 0
1554 4 11.715698113826 1.932586448928593 0.051318075503360955 0 0 0
1727 4 6.694684636472003 4.8314699316835945 0.05131807550335932 0 0 0
1733 4 10.042026954708 4.831469931683595 0.05131807550336024 0 0 0
1726 1 8.368355795590002 5.797340156326401 1.5778629984572454 0 0 0
1732 1 11.715698113826 5.797340156326401 1.5778629984572454 0 0 0
1737 1 13.389369272944002 2.898456673571401 1.577862998457244 0 0 0
1560 4 15.063040432062003 1.932586448928593 0.05131807550336094 0 0 0
1743 1 16.736711591180004 2.898456673571401 1.577862998457244 0 0 0
1739 4 13.389369272944002 4.831469931683595 0.0513180755033605 0 0 0
1745 4 16.736711591180004 4.831469931683595 0.0513180755033605 0 0 0
1738 1 15.063040432062003 5.797340156326401 1.5778629984572454 0 0 0
1566 4 18.410382750298005 1.932586448928593 0.05131807550336094 0 0 0
1749 1 20.084053909416006 2.8984566735714012 1.577862998457244 0 0 0
1572 4 21.757725068534008 1.9325864489285929 0.05131807550336057 0 0 0
1755 1 23.431396227652 2.8984566735714012 1.5778629984572439 0 0 0
1751 4 20.084053909416006 4.831469931683595 0.051318075503360525 0 0 0
1757 4 23.431396227652005 4.8314699316835945 0.05131807550335835 0 0 0
1744 1 18.410382750298005 5.797340156326401 1.5778629984572454 0 0 0
1750 1 21.757725068534008 5.797340156326401 1.5778629984572456 0 0 0
1578 4 25.10506738677 1.9325864489285915 0.051318075503358915 0 0 0
1761 1 26.778738545887997 2.898456673571401 1.577862998457244 0 0 0
1584 4 28.452409705005998 1.9325864489285933 0.05131807550336097 0 0 0
1763 4 26.778738545887997 4.8314699316835945 0.05131807550336006 0 0 0
1756 1 25.105067386770003 5.797340156326401 1.5778629984572454 0 0 0
1762 1 28.452409705005998 5.797340156326401 1.5778629984572454 0 0 0
1767 1 30.126080864124 2.898456673571401 1.577862998457244 0 0 0
1590 4 31.799752023242 1.932586448928593 0.05131807550336094 0 0 0
1773 1 33.47342318236 2.898456673571401 1.5778629984572439 0 0 0
1596 4 35.147094341478 1.932586448928593 0.05131807550336094 0 0 0
1769 4 30.126080864124 4.831469931683595 0.0513180755033605 0 0 0
1775 4 33.47342318236 4.831469931683595 0.0513180755033605 0 0 0
1768 1 31.799752023242 5.797340156326401 1.5778629984572454 0 0 0
1774 1 35.147094341478 5.797340156326401 1.5778629984572454 0 0 0
1779 1 36.820765500596 2.898456673571401 1.577862998457244 0 0 0
1602 4 38.494436659714005 1.932586448928593 0.05131807550336094 0 0 0
1785 1 40.168107818832006 2.898456673571401 1.577862998457244 0 0 0
1781 4 36.820765500596 4.831469931683595 0.0513180755033605 0 0 0
1787 4 40.168107818832006 4.831469931683595 0.05131807550336051 0 0 0
1780 1 38.494436659714005 5.797340156326401 1.5778629984572454 0 0 0
1608 4 41.84177897795001 1.9325864489285929 0.05131807550336057 0 0 0
1791 1 43.515450137068 2.8984566735714012 1.577862998457244 0 0 0
1614 4 45.189121296185995 1.9325864489285915 0.05131807550335887 0 0 0
1797 1 46.862792455303996 2.898456673571401 1.577862998457244 0 0 0
1793 4 43.51545013706801 4.8314699316835945 0.05131807550335843 0 0 0
1799 4 46.862792455303996 4.8314699316835945 0.05131807550336006 0 0 0
1786 1 41.84177897795001 5.797340156326401 1.5778629984572454 0 0 0
1792 1 45.189121296186 5.797340156326401 1.5778629984572454 0 0 0
1620 4 48.536463614422 1.932586448928593 0.051318075503360955 0 0 0
1446 4 51.883805932658 1.9325864489285933 0.05131807550336109 -1 0 0
1623 1 50.21013477354 2.898456673571401 1.5778629984572439 -1 0 0
1625 4 50.21013477354 4.831469931683595 0.051318075503360504 -1 0 0
1798 1 48.536463614422 5.797340156326401 1.5778629984572454 0 0 0
1624 1 51.883805932658 5.797340156326401 1.5778629984572454 -1 0 0
1629 1 53.557477091776 2.898456673571401 1.577862998457244 -1 0 0
1452 4 55.231148250893995 1.9325864489285924 0.05131807550335964 -1 0 0
1635 1 56.904819410011996 2.898456673571401 1.577862998457244 -1 0 0
1458 4 58.57849056913 1.932586448928593 0.05131807550336095 -1 0 0
1631 4 53.557477091776 4.8314699316835945 0.051318075503359074 -1 0 0
1637 4 56.904819410011996 4.831469931683595 0.0513180755033605 -1 0 0
1630 1 55.231148250893995 5.797340156326401 1.5778629984572454 -1 0 0
1636 1 58.57849056913 5.797340156326401 1.5778629984572454 -1 0 0
1641 1 60.252161728248 2.898456673571401 1.577862998457244 -1 0 0
1464 4 61.925832887366 1.932586448928593 0.05131807550336094 -1 0 0
1647 1 63.599504046484 2.898456673571401 1.577862998457244 -1 0 0
1643 4 60.252161728248 4.831469931683595 0.0513180755033605 -1 0 0
1649 4 63.599504046484 4.831469931683595 0.0513180755033605 -1 0 0
1642 1 61.925832887366 5.797340156326401 1.5778629984572454 -1 0 0
1470 4 65.273175205602 1.932586448928593 0.051318075503360955 -1 0 0
1653 1 66.94684636472 2.898456673571401 1.577862998457244 -1 0 0
1476 4 68.620517523838 1.9325864489285918 0.05131807550335918 -1 0 0
1659 1 70.294188682956 2.898456673571401 1.577862998457244 -1 0 0
1655 4 66.94684636472 4.831469931683595 0.051318075503360615 -1 0 0
1661 4 70.29418868295599 4.8314699316835945 0.05131807550335952 -1 0 0
1648 1 65.273175205602 5.797340156326401 1.5778629984572454 -1 0 0
1654 1 68.620517523838 5.797340156326401 1.5778629984572454 -1 0 0
1482 4 71.967859842074 1.9325864489285927 0.05131807550336014 -1 0 0
1665 1 73.64153100119199 2.898456673571401 1.577862998457244 -1 0 0
1488 4 75.31520216031 1.932586448928593 0.05131807550336106 -1 0 0
1667 4 73.64153100119199 4.831469931683594 0.05131807550335876 -1 0 0
1660 1 71.96785984207399 5.797340156326401 1.5778629984572454 -1 0 0
1666 1 75.31520216031 5.797340156326401 1.5778629984572454 -1 0 0
1671 1 76.988873319428 2.898456673571401 1.577862998457244 -1 0 0
1494 4 78.662544478546 1.932586448928593 0.05131807550336094 -1 0 0
1677 1 80.336215637664 2.898456673571401 1.577862998457244 -1 0 0
1500 4 82.009886796782 1.932586448928593 0.05131807550336094 -1 0 0
1673 4 76.988873319428 4.831469931683595 0.05131807550336051 -1 0 0
1679 4 80.336215637664 4.831469931683595 0.0513180755033605 -1 0 0
1672 1 78.662544478546 5.797340156326401 1.5778629984572454 -1 0 0
1678 1 82.009886796782 5.797340156326401 1.5778629984572454 -1 0 0
1683 1 83.6835579559 2.898456673571401 1.577862998457244 -1 0 0
1506 4 85.357229115018 1.932586448928593 0.05131807550336106 -1 0 0
1689 1 87.030900274136 2.898456673571401 1.577862998457244 -1 0 0
1685 4 83.6835579559 4.831469931683595 0.05131807550336051 -1 0 0
1691 4 87.030900274136 4.831469931683594 0.05131807550335877 -1 0 0
1684 1 85.357229115018 5.797340156326401 1.5778629984572454 -1 0 0
1512 4 88.70457143325399 1.9325864489285927 0.05131807550336012 -1 0 0
1695 1 90.37824259237199 2.898456673571401 1.577862998457244 -1 0 0
1518 4 92.05191375148999 1.932586448928593 0.05131807550336093 -1 0 0
1701 1 93.72558491060799 2.898456673571401 1.577862998457244 -1 0 0
1697 4 90.378242592372 4.831469931683595 0.05131807550336054 -1 0 0
1703 4 93.725584910608 4.831469931683595 0.05131807550336052 -1 0 0
1690 1 88.704571433254 5.797340156326401 1.5778629984572454 -1 0 0
1696 1 92.05191375149 5.797340156326401 1.5778629984572454 -1 0 0
1524 4 95.399256069726 1.932586448928593 0.05131807550336094 -1 0 0
1707 1 97.072927228844 2.898456673571401 1.577862998457244 -1 0 0
1530 4 98.746598387962 1.9325864489285918 0.05131807550335924 -1 0 0
1709 4 97.07292722884401 4.8314699316835945 0.051318075503359505 -1 0 0
1702 1 95.39925606972601 5.797340156326401 1.5778629984572454 -1 0 0
1708 1 98.746598387962 5.797340156326401 1.5778629984572454 -1 0 0
1716 4 1.6736711591180011 7.730353414438593 0.051318075503361 0 0 0
1893 1 0 8.696223639081401 1.5778629984572439 0 0 0
1899 1 3.3473423182360023 8.696223639081401 1.5778629984572439 0 0 0
1722 4 5.021013477354003 7.730353414438593 0.051318075503360865 0 0 0
1895 4 1.8857358514759018e-16 10.629236897193596 0.051318075503360545 0 0 0
1901 4 3.3473423182360023 10.629236897193596 0.0513180755033604 0 0 0
1894 1 1.6736711591180011 11.595107121836401 1.5778629984572454 0 0 0
1900 1 5.021013477354003 11.595107121836401 1.5778629984572454 0 0 0
1905 1 6.694684636472002 8.696223639081401 1.577862998457244 0 0 0
1728 4 8.36835579559 7.730353414438593 0.0513180755033601 0 0 0
1911 1 10.042026954708 8.696223639081401 1.5778629984572439 0 0 0
1734 4 11.715698113826 7.730353414438593 0.05131807550336106 0 0 0
1907 4 6.694684636472003 10.629236897193595 0.05131807550335925 0 0 0
1913 4 10.042026954708 10.629236897193596 0.051318075503360185 0 0 0
1906 1 8.368355795590002 11.595107121836401 1.5778629984572456 0 0 0
1912 1 11.715698113826 11.595107121836401 1.5778629984572454 0 0 0
1917 1 13.389369272944002 8.696223639081401 1.5778629984572439 0 0 0
1740 4 15.063040432062003 7.730353414438593 0.051318075503361045 0 0 0
1923 1 16.736711591180004 8.696223639081401 1.5778629984572439 0 0 0
1919 4 13.389369272944002 10.629236897193596 0.05131807550336038 0 0 0
1925 4 16.736711591180004 10.629236897193596 0.05131807550336038 0 0 0
1918 1 15.063040432062003 11.595107121836401 1.5778629984572454 0 0 0
1746 4 18.410382750298005 7.730353414438593 0.051318075503361045 0 0 0
1929 1 20.084053909416006 8.696223639081401 1.5778629984572439 0 0 0
1752 4 21.757725068534008 7.730353414438593 0.05131807550336073 0 0 0
1935 1 23.431396227652 8.696223639081401 1.577862998457244 0 0 0
1931 4 20.084053909416006 10.629236897193596 0.051318075503360414 0 0 0
1937 4 23.431396227652005 10.629236897193595 0.05131807550335834 0 0 0
1924 1 18.410382750298005 11.595107121836401 1.5778629984572454 0 0 0
1930 1 21.757725068534008 11.595107121836401 1.5778629984572454 0 0 0
1758 4 25.10506738677 7.730353414438592 0.05131807550335895 0 0 0
1941 1 26.778738545887997 8.696223639081401 1.577862998457244 0 0 0
1764 4 28.452409705005998 7.730353414438593 0.05131807550336107 0 0 0
1943 4 26.778738545887997 10.629236897193596 0.05131807550336005 0 0 0
1936 1 25.105067386770003 11.595107121836401 1.5778629984572454 0 0 0
1942 1 28.452409705005998 11.595107121836401 1.5778629984572454 0 0 0
1947 1 30.126080864124 8.696223639081401 1.5778629984572439 0 0 0
1770 4 31.799752023242 7.730353414438593 0.051318075503361045 0 0 0
1953 1 33.47342318236 8.696223639081401 1.5778629984572439 0 0 0
1776 4 35.147094341478 7.730353414438593 0.051318075503361045 0 0 0
1949 4 30.126080864124 10.629236897193596 0.05131807550336038 0 0 0
1955 4 33.47342318236 10.629236897193596 0.05131807550336038 0 0 0
1948 1 31.799752023242 11.595107121836401 1.5778629984572454 0 0 0
1954 1 35.147094341478 11.595107121836401 1.5778629984572454 0 0 0
1959 1 36.820765500596 8.696223639081401 1.5778629984572439 0 0 0
1782 4 38.494436659714005 7.730353414438593 0.051318075503361045 0 0 0
1965 1 40.168107818832006 8.696223639081401 1.5778629984572439 0 0 0
1961 4 36.820765500596 10.629236897193596 0.05131807550336038 0 0 0
1967 4 40.168107818832006 10.629236897193596 0.0513180755033604 0 0 0
1960 1 38.494436659714005 11.595107121836401 1.5778629984572454 0 0 0
1788 4 41.84177897795001 7.730353414438593 0.051318075503360726 0 0 0
1971 1 43.515450137068 8.696223639081401 1.5778629984572439 0 0 0
1794 4 45.189121296185995 7.730353414438592 0.05131807550335907 0 0 0
1977 1 46.862792455303996 8.696223639081401 1.577862998457244 0 0 0
1973 4 43.51545013706801 10.629236897193595 0.05131807550335835 0 0 0
1979 4 46.862792455303996 10.629236897193596 0.05131807550336005 0 0 0
1966 1 41.84177897795001 11.595107121836401 1.5778629984572454 0 0 0
1972 1 45.189121296186 11.595107121836401 1.5778629984572454 0 0 0
1800 4 48.536463614422 7.730353414438593 0.05131807550336106 0 0 0
1626 4 51.883805932658 7.730353414438593 0.051318075503361184 -1 0 0
1803 1 50.21013477354 8.696223639081401 1.5778629984572439 -1 0 0
1805 4 50.21013477354 10.629236897193596 0.05131807550336039 -1 0 0
1978 1 48.536463614422 11.595107121836401 1.5778629984572454 0 0 0
1804 1 51.883805932658 11.595107121836401 1.5778629984572454 -1 0 0
1809 1 53.557477091776 8.696223639081401 1.577862998457244 -1 0 0
1632 4 55.231148250893995 7.730353414438593 0.05131807550335986 -1 0 0
1815 1 56.904819410011996 8.696223639081401 1.5778629984572439 -1 0 0
1638 4 58.57849056913 7.730353414438593 0.05131807550336105 -1 0 0
1811 4 53.557477091776 10.629236897193595 0.05131807550335901 -1 0 0
1817 4 56.904819410011996 10.629236897193596 0.0513180755033605 -1 0 0
1810 1 55.231148250893995 11.5951071218364 1.5778629984572456 -1 0 0
1816 1 58.57849056913 11.595107121836401 1.5778629984572454 -1 0 0
1821 1 60.252161728248 8.696223639081401 1.577862998457244 -1 0 0
1644 4 61.925832887366 7.730353414438593 0.051318075503361045 -1 0 0
1827 1 63.599504046484 8.696223639081401 1.577862998457244 -1 0 0
1823 4 60.252161728248 10.629236897193596 0.05131807550336038 -1 0 0
1829 4 63.599504046484 10.629236897193596 0.05131807550336038 -1 0 0
1822 1 61.925832887366 11.595107121836401 1.5778629984572454 -1 0 0
1650 4 65.273175205602 7.730353414438593 0.05131807550336106 -1 0 0
1833 1 66.94684636472 8.696223639081401 1.5778629984572439 -1 0 0
1656 4 68.620517523838 7.730353414438593 0.05131807550335952 -1 0 0
1839 1 70.294188682956 8.696223639081401 1.577862998457244 -1 0 0
1835 4 66.94684636472 10.629236897193596 0.05131807550336055 -1 0 0
1841 4 70.29418868295599 10.629236897193595 0.05131807550335948 -1 0 0
1828 1 65.273175205602 11.595107121836401 1.5778629984572454 -1 0 0
1834 1 68.620517523838 11.595107121836401 1.5778629984572454 -1 0 0
1662 4 71.967859842074 7.730353414438594 0.05131807550336027 -1 0 0
1845 1 73.64153100119199 8.696223639081401 1.577862998457244 -1 0 0
1668 4 75.31520216031 7.730353414438593 0.05131807550336127 -1 0 0
1847 4 73.64153100119199 10.629236897193595 0.051318075503358734 -1 0 0
1840 1 71.96785984207399 11.595107121836401 1.5778629984572454 -1 0 0
1846 1 75.31520216031 11.595107121836401 1.5778629984572456 -1 0 0
1851 1 76.988873319428 8.696223639081401 1.577862998457244 -1 0 0
1674 4 78.662544478546 7.730353414438593 0.051318075503361045 -1 0 0
1857 1 80.336215637664 8.696223639081401 1.577862998457244 -1 0 0
1680 4 82.009886796782 7.730353414438593 0.051318075503361045 -1 0 0
1853 4 76.988873319428 10.629236897193596 0.0513180755033604 -1 0 0
1859 4 80.336215637664 10.629236897193596 0.05131807550336038 -1 0 0
1852 1 78.662544478546 11.595107121836401 1.5778629984572454 -1 0 0
1858 1 82.009886796782 11.595107121836401 1.5778629984572454 -1 0 0
1863 1 83.6835579559 8.696223639081401 1.577862998457244 -1 0 0
1686 4 85.357229115018 7.730353414438593 0.05131807550336127 -1 0 0
1869 1 87.030900274136 8.696223639081401 1.577862998457244 -1 0 0
1865 4 83.6835579559 10.629236897193596 0.0513180755033604 -1 0 0
1871 4 87.030900274136 10.629236897193595 0.05131807550335875 -1 0 0
1864 1 85.357229115018 11.595107121836401 1.5778629984572456 -1 0 0
1692 4 88.70457143325399 7.730353414438594 0.051318075503360254 -1 0 0
1875 1 90.37824259237199 8.696223639081401 1.577862998457244 -1 0 0
1698 4 92.05191375148999 7.730353414438593 0.05131807550336116 -1 0 0
1881 1 93.72558491060799 8.696223639081401 1.5778629984572439 -1 0 0
1877 4 90.378242592372 10.629236897193596 0.05131807550336043 -1 0 0
1883 4 93.725584910608 10.629236897193596 0.05131807550336041 -1 0 0
1870 1 88.704571433254 11.595107121836401 1.5778629984572456 -1 0 0
1876 1 92.05191375149 11.595107121836401 1.5778629984572454 -1 0 0
1704 4 95.399256069726 7.730353414438593 0.05131807550336118 -1 0 0
1887 1 97.072927228844 8.696223639081401 1.5778629984572439 -1 0 0
1710 4 98.746598387962 7.730353414438593 0.05131807550335952 -1 0 0
1889 4 97.07292722884401 10.629236897193595 0.05131807550335945 -1 0 0
1882 1 95.39925606972601 11.595107121836401 1.5778629984572454 -1 0 0
1888 1 98.746598387962 11.595107121836401 1.5778629984572454 -1 0 0
1896 4 1.6736711591180011 13.528120379948595 0.051318075503361704 0 0 0
1902 4 5.021013477354003 13.528120379948595 0.051318075503361565 0 0 0
2073 1 0 14.493990604591403 1.5778629984572448 0 0 0
2079 1 3.3473423182360023 14.493990604591403 1.5778629984572448 0 0 0
2075 4 2.40668513323084e-16 16.427003862703597 0.05131807550336157 0 0 0
2081 4 3.3473423182360023 16.427003862703597 0.0513180755033614 0 0 0
2074 1 1.6736711591180011 17.392874087346403 1.5778629984572448 0 0 0
2080 1 5.021013477354003 17.392874087346403 1.5778629984572448 0 0 0
1908 4 8.36835579559 13.528120379948593 0.05131807550336061 0 0 0
1914 4 11.715698113826 13.528120379948595 0.0513180755033617 0 0 0
2085 1 6.694684636472002 14.493990604591403 1.5778629984572448 0 0 0
2091 1 10.042026954708 14.493990604591403 1.5778629984572448 0 0 0
2087 4 6.694684636472003 16.427003862703597 0.05131807550336039 0 0 0
2093 4 10.042026954708 16.427003862703597 0.0513180755033612 0 0 0
2086 1 8.368355795590002 17.392874087346403 1.5778629984572445 0 0 0
2092 1 11.715698113826 17.392874087346403 1.5778629984572448 0 0 0
1920 4 15.063040432062003 13.528120379948595 0.05131807550336168 0 0 0
2097 1 13.389369272944002 14.493990604591403 1.5778629984572448 0 0 0
2103 1 16.736711591180004 14.493990604591403 1.577862998457245 0 0 0
2099 4 13.389369272944002 16.427003862703597 0.051318075503361385 0 0 0
2105 4 16.736711591180004 16.427003862703597 0.051318075503361385 0 0 0
2098 1 15.063040432062003 17.392874087346403 1.5778629984572448 0 0 0
1926 4 18.410382750298005 13.528120379948595 0.05131807550336168 0 0 0
1932 4 21.757725068534008 13.528120379948595 0.051318075503361364 0 0 0
2109 1 20.084053909416006 14.493990604591403 1.5778629984572448 0 0 0
2115 1 23.431396227652 14.493990604591403 1.5778629984572448 0 0 0
2111 4 20.084053909416006 16.427003862703597 0.05131807550336141 0 0 0
2117 4 23.431396227652005 16.427003862703597 0.05131807550335934 0 0 0
2104 1 18.410382750298005 17.392874087346403 1.5778629984572448 0 0 0
2110 1 21.757725068534008 17.392874087346403 1.5778629984572448 0 0 0
1938 4 25.10506738677 13.528120379948593 0.05131807550335969 0 0 0
1944 4 28.452409705005998 13.528120379948595 0.05131807550336172 0 0 0
2121 1 26.778738545887997 14.493990604591403 1.577862998457245 0 0 0
2123 4 26.778738545887997 16.427003862703597 0.051318075503361024 0 0 0
2116 1 25.105067386770003 17.392874087346403 1.5778629984572448 0 0 0
2122 1 28.452409705005998 17.392874087346403 1.5778629984572448 0 0 0
1950 4 31.799752023242 13.528120379948595 0.05131807550336168 0 0 0
1956 4 35.147094341478 13.528120379948595 0.05131807550336168 0 0 0
2127 1 30.126080864124 14.493990604591403 1.577862998457245 0 0 0
2133 1 33.47342318236 14.493990604591403 1.577862998457245 0 0 0
2129 4 30.126080864124 16.427003862703597 0.051318075503361385 0 0 0
2135 4 33.47342318236 16.427003862703597 0.051318075503361385 0 0 0
2128 1 31.799752023242 17.392874087346403 1.5778629984572448 0 0 0
2134 1 35.147094341478 17.392874087346403 1.5778629984572448 0 0 0
1962 4 38.494436659714005 13.528120379948595 0.05131807550336168 0 0 0
2139 1 36.820765500596 14.493990604591403 1.577862998457245 0 0 0
2145 1 40.168107818832006 14.493990604591403 1.5778629984572448 0 0 0
2141 4 36.820765500596 16.427003862703597 0.051318075503361385 0 0 0
2147 4 40.168107818832006 16.427003862703597 0.0513180755033614 0 0 0
2140 1 38.494436659714005 17.392874087346403 1.5778629984572448 0 0 0
1968 4 41.84177897795001 13.528120379948595 0.051318075503361364 0 0 0
1974 4 45.189121296185995 13.528120379948593 0.05131807550335967 0 0 0
2151 1 43.515450137068 14.493990604591403 1.5778629984572448 0 0 0
2157 1 46.862792455303996 14.493990604591403 1.577862998457245 0 0 0
2153 4 43.51545013706801 16.427003862703597 0.051318075503359414 0 0 0
2159 4 46.862792455303996 16.427003862703597 0.051318075503361024 0 0 0
2146 1 41.84177897795001 17.392874087346403 1.5778629984572448 0 0 0
2152 1 45.189121296186 17.392874087346403 1.5778629984572448 0 0 0
1980 4 48.536463614422 13.528120379948595 0.0513180755033617 0 0 0
1806 4 51.883805932658 13.528120379948595 0.051318075503361815 -1 0 0
1983 1 50.21013477354 14.493990604591403 1.5778629984572448 -1 0 0
1985 4 50.21013477354 16.427003862703597 0.05131807550336138 -1 0 0
2158 1 48.536463614422 17.392874087346403 1.5778629984572448 0 0 0
1984 1 51.883805932658 17.392874087346403 1.5778629984572448 -1 0 0
1812 4 55.231148250893995 13.528120379948593 0.05131807550336039 -1 0 0
1818 4 58.57849056913 13.528120379948595 0.05131807550336169 -1 0 0
1989 1 53.557477091776 14.493990604591403 1.5778629984572448 -1 0 0
1995 1 56.904819410011996 14.493990604591403 1.577862998457245 -1 0 0
1991 4 53.557477091776 16.427003862703597 0.05131807550336016 -1 0 0
1997 4 56.904819410011996 16.427003862703597 0.05131807550336144 -1 0 0
1990 1 55.231148250893995 17.392874087346403 1.5778629984572448 -1 0 0
1996 1 58.57849056913 17.392874087346403 1.5778629984572448 -1 0 0
1824 4 61.925832887366 13.528120379948595 0.05131807550336168 -1 0 0
2001 1 60.252161728248 14.493990604591403 1.577862998457245 -1 0 0
2007 1 63.599504046484 14.493990604591403 1.577862998457245 -1 0 0
2003 4 60.252161728248 16.427003862703597 0.051318075503361385 -1 0 0
2009 4 63.599504046484 16.427003862703597 0.051318075503361385 -1 0 0
2002 1 61.925832887366 17.392874087346403 1.5778629984572448 -1 0 0
1830 4 65.273175205602 13.528120379948595 0.0513180755033617 -1 0 0
1836 4 68.620517523838 13.528120379948593 0.05131807550336 -1 0 0
2013 1 66.94684636472 14.493990604591403 1.577862998457245 -1 0 0
2019 1 70.294188682956 14.493990604591403 1.5778629984572448 -1 0 0
2015 4 66.94684636472 16.427003862703597 0.051318075503361565 -1 0 0
2021 4 70.29418868295599 16.427003862703597 0.05131807550336055 -1 0 0
2008 1 65.273175205602 17.392874087346403 1.5778629984572448 -1 0 0
2014 1 68.620517523838 17.392874087346403 1.577862998457245 -1 0 0
1842 4 71.967859842074 13.528120379948593 0.05131807550336093 -1 0 0
1848 4 75.31520216031 13.528120379948595 0.051318075503361905 -1 0 0
2025 1 73.64153100119199 14.493990604591403 1.5778629984572448 -1 0 0
2027 4 73.64153100119199 16.427003862703597 0.05131807550335975 -1 0 0
2020 1 71.96785984207399 17.392874087346403 1.5778629984572448 -1 0 0
2026 1 75.31520216031 17.392874087346403 1.5778629984572448 -1 0 0
1854 4 78.662544478546 13.528120379948595 0.05131807550336168 -1 0 0
1860 4 82.009886796782 13.528120379948595 0.05131807550336168 -1 0 0
2031 1 76.988873319428 14.493990604591403 1.5778629984572448 -1 0 0
2037 1 80.336215637664 14.493990604591403 1.577862998457245 -1 0 0
2033 4 76.988873319428 16.427003862703597 0.0513180755033614 -1 0 0
2039 4 80.336215637664 16.427003862703597 0.051318075503361385 -1 0 0
2032 1 78.662544478546 17.392874087346403 1.5778629984572448 -1 0 0
2038 1 82.009886796782 17.392874087346403 1.5778629984572448 -1 0 0
1866 4 85.357229115018 13.528120379948595 0.0513180755033619 -1 0 0
2043 1 83.6835579559 14.493990604591403 1.5778629984572448 -1 0 0
2049 1 87.030900274136 14.493990604591403 1.5778629984572448 -1 0 0
2045 4 83.6835579559 16.427003862703597 0.0513180755033614 -1 0 0
2051 4 87.030900274136 16.427003862703597 0.051318075503359734 -1 0 0
2044 1 85.357229115018 17.392874087346403 1.5778629984572448 -1 0 0
1872 4 88.70457143325399 13.528120379948593 0.051318075503360906 -1 0 0
1878 4 92.05191375148999 13.528120379948595 0.0513180755033618 -1 0 0
2055 1 90.37824259237199 14.493990604591403 1.5778629984572448 -1 0 0
2061 1 93.72558491060799 14.493990604591403 1.5778629984572448 -1 0 0
2057 4 90.378242592372 16.427003862703597 0.05131807550336143 -1 0 0
2063 4 93.725584910608 16.427003862703597 0.05131807550336141 -1 0 0
2050 1 88.704571433254 17.392874087346403 1.5778629984572448 -1 0 0
2056 1 92.05191375149 17.392874087346403 1.5778629984572448 -1 0 0
1884 4 95.399256069726 13.528120379948595 0.051318075503361815 -1 0 0
1890 4 98.746598387962 13.528120379948593 0.05131807550336007 -1 0 0
2067 1 97.072927228844 14.493990604591403 1.5778629984572448 -1 0 0
2069 4 97.07292722884401 16.427003862703597 0.05131807550336053 -1 0 0
2062 1 95.39925606972601 17.392874087346403 1.5778629984572448 -1 0 0
2068 1 98.746598387962 17.392874087346403 1.577862998457245 -1 0 0
2076 4 1.6736711591180011 19.325887345458597 0.051318075503360025 0 0 0
2082 4 5.021013477354003 19.325887345458597 0.051318075503359865 0 0 0
2253 1 0 20.2917575701014 1.5778629984572445 0 0 0
2259 1 3.3473423182360023 20.2917575701014 1.577862998457245 0 0 0
2255 4 2.3162282065854053e-16 22.224770828213593 0.051318075503359734 0 0 0
2261 4 3.3473423182360023 22.224770828213593 0.051318075503359505 0 0 0
2254 1 1.6736711591180011 23.1906410528564 1.577862998457243 0 0 0
2260 1 5.021013477354003 23.1906410528564 1.577862998457243 0 0 0
2088 4 8.36835579559 19.325887345458597 0.051318075503359116 0 0 0
2094 4 11.715698113826 19.325887345458597 0.05131807550336006 0 0 0
2265 1 6.694684636472002 20.2917575701014 1.5778629984572448 0 0 0
2271 1 10.042026954708 20.2917575701014 1.5778629984572448 0 0 0
2267 4 6.694684636472003 22.224770828213593 0.05131807550335857 0 0 0
2273 4 10.042026954708 22.224770828213593 0.051318075503359324 0 0 0
2266 1 8.368355795590002 23.1906410528564 1.577862998457243 0 0 0
2272 1 11.715698113826 23.1906410528564 1.5778629984572432 0 0 0
2100 4 15.063040432062003 19.325887345458597 0.051318075503360046 0 0 0
2277 1 13.389369272944002 20.2917575701014 1.577862998457245 0 0 0
2283 1 16.736711591180004 20.2917575701014 1.577862998457245 0 0 0
2279 4 13.389369272944002 22.224770828213593 0.05131807550335949 0 0 0
2285 4 16.736711591180004 22.224770828213593 0.05131807550335949 0 0 0
2278 1 15.063040432062003 23.1906410528564 1.5778629984572432 0 0 0
2106 4 18.410382750298005 19.325887345458597 0.051318075503360046 0 0 0
2112 4 21.757725068534008 19.325887345458597 0.051318075503359754 0 0 0
2289 1 20.084053909416006 20.2917575701014 1.577862998457245 0 0 0
2295 1 23.431396227652 20.2917575701014 1.5778629984572445 0 0 0
2291 4 20.084053909416006 22.224770828213593 0.05131807550335952 0 0 0
2297 4 23.431396227652005 22.224770828213593 0.0513180755033574 0 0 0
2284 1 18.410382750298005 23.1906410528564 1.5778629984572432 0 0 0
2290 1 21.757725068534008 23.1906410528564 1.5778629984572432 0 0 0
2118 4 25.10506738677 19.325887345458593 0.05131807550335799 0 0 0
2124 4 28.452409705005998 19.325887345458597 0.05131807550336009 0 0 0
2301 1 26.778738545887997 20.2917575701014 1.5778629984572445 0 0 0
2303 4 26.778738545887997 22.224770828213593 0.05131807550335919 0 0 0
2296 1 25.105067386770003 23.1906410528564 1.5778629984572434 0 0 0
2302 1 28.452409705005998 23.1906410528564 1.5778629984572432 0 0 0
2130 4 31.799752023242 19.325887345458597 0.051318075503360046 0 0 0
2136 4 35.147094341478 19.325887345458597 0.051318075503360046 0 0 0
2307 1 30.126080864124 20.2917575701014 1.577862998457245 0 0 0
2313 1 33.47342318236 20.2917575701014 1.577862998457245 0 0 0
2309 4 30.126080864124 22.224770828213593 0.05131807550335949 0 0 0
2315 4 33.47342318236 22.224770828213593 0.05131807550335949 0 0 0
2308 1 31.799752023242 23.1906410528564 1.5778629984572432 0 0 0
2314 1 35.147094341478 23.1906410528564 1.5778629984572432 0 0 0
2142 4 38.494436659714005 19.325887345458597 0.051318075503360046 0 0 0
2319 1 36.820765500596 20.2917575701014 1.577862998457245 0 0 0
2325 1 40.168107818832006 20.2917575701014 1.577862998457245 0 0 0
2321 4 36.820765500596 22.224770828213593 0.05131807550335949 0 0 0
2327 4 40.168107818832006 22.224770828213593 0.051318075503359505 0 0 0
2320 1 38.494436659714005 23.1906410528564 1.5778629984572432 0 0 0
2148 4 41.84177897795001 19.325887345458597 0.051318075503359754 0 0 0
2154 4 45.189121296185995 19.325887345458593 0.051318075503358006 0 0 0
2331 1 43.515450137068 20.2917575701014 1.5778629984572445 0 0 0
2337 1 46.862792455303996 20.2917575701014 1.5778629984572448 0 0 0
2333 4 43.51545013706801 22.224770828213593 0.05131807550335753 0 0 0
2339 4 46.862792455303996 22.224770828213593 0.05131807550335919 0 0 0
2326 1 41.84177897795001 23.1906410528564 1.5778629984572432 0 0 0
2332 1 45.189121296186 23.1906410528564 1.5778629984572432 0 0 0
2160 4 48.536463614422 19.325887345458597 0.051318075503360074 0 0 0
1986 4 51.883805932658 19.325887345458597 0.05131807550336017 -1 0 0
2163 1 50.21013477354 20.2917575701014 1.577862998457245 -1 0 0
2165 4 50.21013477354 22.224770828213593 0.0513180755033595 -1 0 0
2338 1 48.536463614422 23.1906410528564 1.577862998457243 0 0 0
2164 1 51.883805932658 23.1906410528564 1.577862998457243 -1 0 0
1992 4 55.231148250893995 19.325887345458597 0.05131807550335881 -1 0 0
1998 4 58.57849056913 19.325887345458597 0.05131807550336005 -1 0 0
2169 1 53.557477091776 20.2917575701014 1.5778629984572448 -1 0 0
2175 1 56.904819410011996 20.2917575701014 1.5778629984572448 -1 0 0
2171 4 53.557477091776 22.224770828213593 0.05131807550335832 -1 0 0
2177 4 56.904819410011996 22.224770828213593 0.051318075503359636 -1 0 0
2170 1 55.231148250893995 23.1906410528564 1.577862998457243 -1 0 0
2176 1 58.57849056913 23.1906410528564 1.5778629984572432 -1 0 0
2004 4 61.925832887366 19.325887345458597 0.051318075503360046 -1 0 0
2181 1 60.252161728248 20.2917575701014 1.577862998457245 -1 0 0
2187 1 63.599504046484 20.2917575701014 1.577862998457245 -1 0 0