LAMMPS data file via write_data, version 29 Aug 2024, timestep = 2, units = metal

9180 atoms
9 atom types

0 100.42026954708 xlo xhi
0 98.56203841367 ylo yhi
-50 50 zlo zhi

Masses

1 50.9415
2 50.9415
3 50.9415
4 78.971
5 78.971
6 78.971
7 78.971
8 78.971
9 78.971

Atoms # atomic

1536 5 1.6736711591180011 1.9325864513539914 0.05100305446520652 0 0 0
1713 1 0 2.8984501449847975 1.5778206943944129 0 0 0
1719 1 3.3473423182360023 2.8984501449847975 1.5778206943944126 0 0 0
1542 5 5.021013477354003 1.9325864513539914 0.051003054465206386 0 0 0
1715 5 2.4282946033123214e-16 4.831469934108994 0.051003054465206206 0 0 0
1721 5 3.3473423182360023 4.831469934108994 0.051003054465206046 0 0 0
1714 1 1.6736711591180011 5.797333627739797 1.5778206943944144 0 0 0
1720 1 5.021013477354003 5.797333627739797 1.5778206943944144 0 0 0
1725 1 6.694684636472002 2.8984501449847975 1.5778206943944129 0 0 0
1548 5 8.36835579559 1.932586451353991 0.05100305446520566 0 0 0
1731 1 10.042026954708 2.8984501449847975 1.5778206943944129 0 0 0
1554 5 11.715698113826 1.9325864513539914 0.05100305446520658 0 0 0
1727 5 6.694684636472003 4.831469934108993 0.051003054465204915 0 0 0
1733 5 10.042026954708 4.831469934108994 0.05100305446520582 0 0 0
1726 1 8.368355795590002 5.797333627739797 1.5778206943944142 0 0 0
1732 1 11.715698113826 5.797333627739797 1.5778206943944144 0 0 0
1737 1 13.389369272944002 2.8984501449847975 1.5778206943944126 0 0 0
1560 5 15.063040432062003 1.9325864513539914 0.05100305446520657 0 0 0
1743 1 16.736711591180004 2.8984501449847975 1.5778206943944126 0 0 0
1739 5 13.389369272944002 4.831469934108994 0.051003054465206026 0 0 0
1745 5 16.736711591180004 4.831469934108994 0.051003054465206026 0 0 0
1738 1 15.063040432062003 5.797333627739797 1.5778206943944144 0 0 0
1566 5 18.410382750298005 1.9325864513539914 0.05100305446520657 0 0 0
1749 1 20.084053909416006 2.8984501449847975 1.5778206943944126 0 0 0
1572 5 21.757725068534008 1.9325864513539912 0.05100305446520625 0 0 0
1755 1 23.431396227652 2.8984501449847975 1.5778206943944129 0 0 0
1751 5 20.084053909416006 4.831469934108994 0.05100305446520606 0 0 0
1757 5 23.431396227652005 4.831469934108992 0.051003054465204034 0 0 0
1744 1 18.410382750298005 5.797333627739797 1.5778206943944144 0 0 0
1750 1 21.757725068534008 5.797333627739797 1.5778206943944144 0 0 0
1578 5 25.10506738677 1.93258645135399 0.051003054465204506 0 0 0
1761 1 26.778738545887997 2.8984501449847975 1.5778206943944129 0 0 0
1584 5 28.452409705005998 1.9325864513539914 0.0510030544652066 0 0 0
1763 5 26.778738545887997 4.831469934108994 0.05100305446520564 0 0 0
1756 1 25.105067386770003 5.797333627739797 1.5778206943944144 0 0 0
1762 1 28.452409705005998 5.797333627739797 1.5778206943944144 0 0 0
1767 1 30.126080864124 2.8984501449847975 1.5778206943944126 0 0 0
1590 5 31.799752023242 1.9325864513539914 0.05100305446520657 0 0 0
1773 1 33.47342318236 2.8984501449847975 1.5778206943944126 0 0 0
1596 5 35.147094341478 1.9325864513539914 0.05100305446520657 0 0 0
1769 5 30.126080864124 4.831469934108994 0.051003054465206026 0 0 0
1775 5 33.47342318236 4.831469934108994 0.051003054465206026 0 0 0
1768 1 31.799752023242 5.797333627739797 1.5778206943944144 0 0 0
1774 1 35.147094341478 5.797333627739797 1.5778206943944144 0 0 0
1779 1 36.820765500596 2.8984501449847975 1.5778206943944126 0 0 0
1602 5 38.494436659714005 1.9325864513539914 0.05100305446520657 0 0 0
1785 1 40.168107818832006 2.8984501449847975 1.5778206943944126 0 0 0
1781 5 36.820765500596 4.831469934108994 0.051003054465206026 0 0 0
1787 5 40.168107818832006 4.831469934108994 0.051003054465206046 0 0 0
1780 1 38.494436659714005 5.797333627739797 1.5778206943944144 0 0 0
1608 5 41.84177897795001 1.9325864513539912 0.05100305446520625 0 0 0
1791 1 43.515450137068 2.8984501449847975 1.5778206943944129 0 0 0
1614 5 45.189121296185995 1.93258645135399 0.051003054465204596 0 0 0
1797 1 46.862792455303996 2.8984501449847975 1.5778206943944129 0 0 0
1793 5 43.51545013706801 4.831469934108992 0.05100305446520404 0 0 0
1799 5 46.862792455303996 4.831469934108994 0.05100305446520564 0 0 0
1786 1 41.84177897795001 5.797333627739797 1.5778206943944144 0 0 0
1792 1 45.189121296186 5.797333627739797 1.5778206943944144 0 0 0
1620 5 48.536463614422 1.9325864513539914 0.05100305446520658 0 0 0
1446 5 51.883805932658 1.9325864513539914 0.051003054465206706 -1 0 0
1623 1 50.21013477354 2.8984501449847975 1.5778206943944126 -1 0 0
1625 5 50.21013477354 4.831469934108994 0.05100305446520604 -1 0 0
1798 1 48.536463614422 5.797333627739797 1.5778206943944144 0 0 0
1624 1 51.883805932658 5.797333627739797 1.5778206943944144 -1 0 0
1629 1 53.557477091776 2.8984501449847975 1.5778206943944129 -1 0 0
1452 5 55.231148250893995 1.9325864513539908 0.05100305446520534 -1 0 0
1635 1 56.904819410011996 2.8984501449847975 1.5778206943944129 -1 0 0
1458 5 58.57849056913 1.9325864513539914 0.051003054465206574 -1 0 0
1631 5 53.557477091776 4.831469934108993 0.051003054465204666 -1 0 0
1637 5 56.904819410011996 4.831469934108994 0.051003054465206074 -1 0 0
1630 1 55.231148250893995 5.797333627739797 1.5778206943944144 -1 0 0
1636 1 58.57849056913 5.797333627739797 1.5778206943944144 -1 0 0
1641 1 60.252161728248 2.8984501449847975 1.5778206943944126 -1 0 0
1464 5 61.925832887366 1.9325864513539914 0.05100305446520657 -1 0 0
1647 1 63.599504046484 2.8984501449847975 1.5778206943944126 -1 0 0
1643 5 60.252161728248 4.831469934108994 0.051003054465206026 -1 0 0
1649 5 63.599504046484 4.831469934108994 0.051003054465206026 -1 0 0
1642 1 61.925832887366 5.797333627739797 1.5778206943944144 -1 0 0
1470 5 65.273175205602 1.9325864513539914 0.05100305446520658 -1 0 0
1653 1 66.94684636472 2.8984501449847975 1.5778206943944129 -1 0 0
1476 5 68.620517523838 1.9325864513539903 0.05100305446520492 -1 0 0
1659 1 70.294188682956 2.8984501449847975 1.5778206943944129 -1 0 0
1655 5 66.94684636472 4.831469934108994 0.05100305446520621 -1 0 0
1661 5 70.29418868295599 4.831469934108993 0.05100305446520509 -1 0 0
1648 1 65.273175205602 5.797333627739797 1.5778206943944144 -1 0 0
1654 1 68.620517523838 5.797333627739797 1.5778206943944142 -1 0 0
1482 5 71.967859842074 1.9325864513539912 0.05100305446520572 -1 0 0
1665 1 73.64153100119199 2.8984501449847975 1.5778206943944126 -1 0 0
1488 5 75.31520216031 1.9325864513539914 0.0510030544652068 -1 0 0
1667 5 73.64153100119199 4.831469934108992 0.051003054465204374 -1 0 0
1660 1 71.96785984207399 5.797333627739797 1.5778206943944144 -1 0 0
1666 1 75.31520216031 5.797333627739797 1.5778206943944144 -1 0 0
1671 1 76.988873319428 2.8984501449847975 1.5778206943944126 -1 0 0
1494 5 78.662544478546 1.9325864513539914 0.05100305446520656 -1 0 0
1677 1 80.336215637664 2.8984501449847975 1.5778206943944126 -1 0 0
1500 5 82.009886796782 1.9325864513539914 0.05100305446520657 -1 0 0
1673 5 76.988873319428 4.831469934108994 0.051003054465206046 -1 0 0
1679 5 80.336215637664 4.831469934108994 0.051003054465206026 -1 0 0
1672 1 78.662544478546 5.797333627739797 1.5778206943944144 -1 0 0
1678 1 82.009886796782 5.797333627739797 1.5778206943944144 -1 0 0
1683 1 83.6835579559 2.8984501449847975 1.5778206943944126 -1 0 0
1506 5 85.357229115018 1.9325864513539914 0.0510030544652068 -1 0 0
1689 1 87.030900274136 2.8984501449847975 1.5778206943944126 -1 0 0
1685 5 83.6835579559 4.831469934108994 0.051003054465206046 -1 0 0
1691 5 87.030900274136 4.831469934108992 0.05100305446520439 -1 0 0
1684 1 85.357229115018 5.797333627739797 1.5778206943944144 -1 0 0
1512 5 88.70457143325399 1.9325864513539912 0.051003054465205706 -1 0 0
1695 1 90.37824259237199 2.8984501449847975 1.5778206943944129 -1 0 0
1518 5 92.05191375148999 1.9325864513539914 0.05100305446520668 -1 0 0
1701 1 93.72558491060799 2.8984501449847975 1.5778206943944126 -1 0 0
1697 5 90.378242592372 4.831469934108994 0.051003054465206074 -1 0 0
1703 5 93.725584910608 4.831469934108994 0.05100305446520605 -1 0 0
1690 1 88.704571433254 5.797333627739797 1.5778206943944144 -1 0 0
1696 1 92.05191375149 5.797333627739797 1.5778206943944142 -1 0 0
1524 5 95.399256069726 1.9325864513539914 0.0510030544652067 -1 0 0
1707 1 97.072927228844 2.8984501449847975 1.5778206943944129 -1 0 0
1530 5 98.746598387962 1.9325864513539903 0.05100305446520493 -1 0 0
1709 5 97.07292722884401 4.831469934108993 0.05100305446520507 -1 0 0
1702 1 95.39925606972601 5.797333627739797 1.5778206943944142 -1 0 0
1708 1 98.746598387962 5.797333627739797 1.5778206943944142 -1 0 0
1716 5 1.6736711591180011 7.730353416863992 0.051003054465206706 0 0 0
1893 1 0 8.696217110494798 1.5778206943944126 0 0 0
1899 1 3.3473423182360023 8.696217110494798 1.5778206943944129 0 0 0
1722 5 5.021013477354003 7.730353416863991 0.051003054465206574 0 0 0
1895 5 2.4295509386325134e-16 10.629236899618993 0.051003054465206206 0 0 0
1901 5 3.3473423182360023 10.629236899618993 0.051003054465206 0 0 0
1894 1 1.6736711591180011 11.595100593249798 1.5778206943944144 0 0 0
1900 1 5.021013477354003 11.595100593249798 1.5778206943944144 0 0 0
1905 1 6.694684636472002 8.696217110494798 1.5778206943944129 0 0 0
1728 5 8.36835579559 7.730353416863991 0.05100305446520583 0 0 0
1911 1 10.042026954708 8.696217110494798 1.5778206943944129 0 0 0
1734 5 11.715698113826 7.730353416863992 0.05100305446520677 0 0 0
1907 5 6.694684636472003 10.629236899618993 0.05100305446520491 0 0 0
1913 5 10.042026954708 10.629236899618993 0.05100305446520582 0 0 0
1906 1 8.368355795590002 11.595100593249798 1.5778206943944144 0 0 0
1912 1 11.715698113826 11.595100593249798 1.5778206943944144 0 0 0
1917 1 13.389369272944002 8.696217110494798 1.5778206943944129 0 0 0
1740 5 15.063040432062003 7.730353416863992 0.051003054465206754 0 0 0
1923 1 16.736711591180004 8.696217110494798 1.5778206943944129 0 0 0
1919 5 13.389369272944002 10.629236899618993 0.05100305446520598 0 0 0
1925 5 16.736711591180004 10.629236899618993 0.05100305446520598 0 0 0
1918 1 15.063040432062003 11.595100593249798 1.5778206943944144 0 0 0
1746 5 18.410382750298005 7.730353416863992 0.051003054465206754 0 0 0
1929 1 20.084053909416006 8.696217110494798 1.5778206943944129 0 0 0
1752 5 21.757725068534008 7.730353416863991 0.05100305446520642 0 0 0
1935 1 23.431396227652 8.696217110494798 1.5778206943944129 0 0 0
1931 5 20.084053909416006 10.629236899618993 0.05100305446520601 0 0 0
1937 5 23.431396227652005 10.629236899618993 0.05100305446520404 0 0 0
1924 1 18.410382750298005 11.595100593249798 1.5778206943944144 0 0 0
1930 1 21.757725068534008 11.595100593249798 1.5778206943944144 0 0 0
1758 5 25.10506738677 7.7303534168639905 0.05100305446520468 0 0 0
1941 1 26.778738545887997 8.696217110494798 1.5778206943944129 0 0 0
1764 5 28.452409705005998 7.730353416863992 0.05100305446520678 0 0 0
1943 5 26.778738545887997 10.629236899618993 0.051003054465205644 0 0 0
1936 1 25.105067386770003 11.595100593249798 1.5778206943944144 0 0 0
1942 1 28.452409705005998 11.595100593249798 1.5778206943944144 0 0 0
1947 1 30.126080864124 8.696217110494798 1.5778206943944129 0 0 0
1770 5 31.799752023242 7.730353416863992 0.051003054465206754 0 0 0
1953 1 33.47342318236 8.696217110494798 1.5778206943944129 0 0 0
1776 5 35.147094341478 7.730353416863992 0.051003054465206754 0 0 0
1949 5 30.126080864124 10.629236899618993 0.05100305446520598 0 0 0
1955 5 33.47342318236 10.629236899618993 0.05100305446520598 0 0 0
1948 1 31.799752023242 11.595100593249798 1.5778206943944144 0 0 0
1954 1 35.147094341478 11.595100593249798 1.5778206943944144 0 0 0
1959 1 36.820765500596 8.696217110494798 1.5778206943944129 0 0 0
1782 5 38.494436659714005 7.730353416863992 0.051003054465206754 0 0 0
1965 1 40.168107818832006 8.696217110494798 1.5778206943944129 0 0 0
1961 5 36.820765500596 10.629236899618993 0.05100305446520598 0 0 0
1967 5 40.168107818832006 10.629236899618993 0.051003054465206 0 0 0
1960 1 38.494436659714005 11.595100593249798 1.5778206943944144 0 0 0
1788 5 41.84177897795001 7.730353416863991 0.05100305446520642 0 0 0
1971 1 43.515450137068 8.696217110494798 1.5778206943944129 0 0 0
1794 5 45.189121296185995 7.7303534168639905 0.051003054465204756 0 0 0
1977 1 46.862792455303996 8.696217110494798 1.5778206943944129 0 0 0
1973 5 43.51545013706801 10.629236899618991 0.05100305446520405 0 0 0
1979 5 46.862792455303996 10.629236899618993 0.05100305446520564 0 0 0
1966 1 41.84177897795001 11.595100593249798 1.5778206943944144 0 0 0
1972 1 45.189121296186 11.595100593249798 1.5778206943944144 0 0 0
1800 5 48.536463614422 7.730353416863992 0.05100305446520677 0 0 0
1626 5 51.883805932658 7.730353416863992 0.05100305446520689 -1 0 0
1803 1 50.21013477354 8.696217110494798 1.5778206943944129 -1 0 0
1805 5 50.21013477354 10.629236899618993 0.05100305446520599 -1 0 0
1978 1 48.536463614422 11.595100593249798 1.5778206943944144 0 0 0
1804 1 51.883805932658 11.595100593249798 1.5778206943944144 -1 0 0
1809 1 53.557477091776 8.696217110494798 1.5778206943944129 -1 0 0
1632 5 55.231148250893995 7.730353416863991 0.05100305446520551 -1 0 0
1815 1 56.904819410011996 8.696217110494798 1.5778206943944129 -1 0 0
1638 5 58.57849056913 7.730353416863992 0.051003054465206754 -1 0 0
1811 5 53.557477091776 10.629236899618993 0.051003054465204666 -1 0 0
1817 5 56.904819410011996 10.629236899618993 0.05100305446520608 -1 0 0
1810 1 55.231148250893995 11.595100593249798 1.5778206943944144 -1 0 0
1816 1 58.57849056913 11.595100593249798 1.5778206943944144 -1 0 0
1821 1 60.252161728248 8.696217110494798 1.5778206943944129 -1 0 0
1644 5 61.925832887366 7.730353416863992 0.051003054465206754 -1 0 0
1827 1 63.599504046484 8.696217110494798 1.5778206943944129 -1 0 0
1823 5 60.252161728248 10.629236899618993 0.05100305446520598 -1 0 0
1829 5 63.599504046484 10.629236899618993 0.05100305446520598 -1 0 0
1822 1 61.925832887366 11.595100593249798 1.5778206943944144 -1 0 0
1650 5 65.273175205602 7.730353416863992 0.05100305446520677 -1 0 0
1833 1 66.94684636472 8.696217110494798 1.5778206943944129 -1 0 0
1656 5 68.620517523838 7.7303534168639905 0.05100305446520518 -1 0 0
1839 1 70.294188682956 8.696217110494798 1.5778206943944129 -1 0 0
1835 5 66.94684636472 10.629236899618993 0.05100305446520621 -1 0 0
1841 5 70.29418868295599 10.629236899618993 0.05100305446520509 -1 0 0
1828 1 65.273175205602 11.595100593249798 1.5778206943944144 -1 0 0
1834 1 68.620517523838 11.595100593249798 1.5778206943944142 -1 0 0
1662 5 71.967859842074 7.730353416863991 0.051003054465205956 -1 0 0
1845 1 73.64153100119199 8.696217110494798 1.5778206943944129 -1 0 0
1668 5 75.31520216031 7.730353416863992 0.05100305446520698 -1 0 0
1847 5 73.64153100119199 10.629236899618993 0.05100305446520432 -1 0 0
1840 1 71.96785984207399 11.595100593249798 1.5778206943944144 -1 0 0
1846 1 75.31520216031 11.595100593249798 1.5778206943944144 -1 0 0
1851 1 76.988873319428 8.696217110494798 1.5778206943944129 -1 0 0
1674 5 78.662544478546 7.730353416863992 0.051003054465206754 -1 0 0
1857 1 80.336215637664 8.696217110494798 1.5778206943944129 -1 0 0
1680 5 82.009886796782 7.730353416863992 0.051003054465206754 -1 0 0
1853 5 76.988873319428 10.629236899618993 0.051003054465206 -1 0 0
1859 5 80.336215637664 10.629236899618993 0.05100305446520598 -1 0 0
1852 1 78.662544478546 11.595100593249798 1.5778206943944144 -1 0 0
1858 1 82.009886796782 11.595100593249798 1.5778206943944144 -1 0 0
1863 1 83.6835579559 8.696217110494798 1.5778206943944129 -1 0 0
1686 5 85.357229115018 7.730353416863992 0.05100305446520698 -1 0 0
1869 1 87.030900274136 8.696217110494798 1.5778206943944129 -1 0 0
1865 5 83.6835579559 10.629236899618993 0.051003054465206 -1 0 0
1871 5 87.030900274136 10.629236899618993 0.05100305446520433 -1 0 0
1864 1 85.357229115018 11.595100593249798 1.5778206943944144 -1 0 0
1692 5 88.70457143325399 7.730353416863991 0.051003054465205935 -1 0 0
1875 1 90.37824259237199 8.696217110494798 1.5778206943944129 -1 0 0
1698 5 92.05191375148999 7.730353416863992 0.05100305446520687 -1 0 0
1881 1 93.72558491060799 8.696217110494798 1.5778206943944126 -1 0 0
1877 5 90.378242592372 10.629236899618993 0.051003054465206026 -1 0 0
1883 5 93.725584910608 10.629236899618993 0.051003054465206005 -1 0 0
1870 1 88.704571433254 11.595100593249798 1.5778206943944144 -1 0 0
1876 1 92.05191375149 11.595100593249798 1.5778206943944144 -1 0 0
1704 5 95.399256069726 7.730353416863992 0.051003054465206886 -1 0 0
1887 1 97.072927228844 8.696217110494798 1.5778206943944129 -1 0 0
1710 5 98.746598387962 7.7303534168639905 0.05100305446520523 -1 0 0
1889 5 97.07292722884401 10.629236899618993 0.051003054465205075 -1 0 0
1882 1 95.39925606972601 11.595100593249798 1.5778206943944142 -1 0 0
1888 1 98.746598387962 11.595100593249798 1.5778206943944144 -1 0 0
1896 5 1.6736711591180011 13.528120382373993 0.05100305446520727 0 0 0
1902 5 5.021013477354003 13.528120382373992 0.051003054465207115 0 0 0
2073 1 0 14.4939840760048 1.5778206943944137 0 0 0
2079 1 3.3473423182360023 14.4939840760048 1.5778206943944137 0 0 0
2075 5 2.392403077208426e-16 16.427003865128995 0.05100305446520698 0 0 0
2081 5 3.3473423182360023 16.427003865128995 0.05100305446520682 0 0 0
2074 1 1.6736711591180014 17.3928675587598 1.5778206943944135 0 0 0
2080 1 5.021013477354003 17.3928675587598 1.5778206943944137 0 0 0
1908 5 8.36835579559 13.528120382373992 0.05100305446520632 0 0 0
1914 5 11.715698113826 13.528120382373993 0.051003054465207316 0 0 0
2085 1 6.694684636472002 14.4939840760048 1.5778206943944135 0 0 0
2091 1 10.042026954708 14.4939840760048 1.5778206943944137 0 0 0
2087 5 6.694684636472003 16.427003865128995 0.051003054465205824 0 0 0
2093 5 10.042026954708 16.427003865128995 0.051003054465206546 0 0 0
2086 1 8.368355795590002 17.3928675587598 1.5778206943944137 0 0 0
2092 1 11.715698113826 17.3928675587598 1.5778206943944137 0 0 0
1920 5 15.063040432062003 13.528120382373993 0.05100305446520731 0 0 0
2097 1 13.389369272944002 14.4939840760048 1.5778206943944137 0 0 0
2103 1 16.736711591180004 14.4939840760048 1.5778206943944137 0 0 0
2099 5 13.389369272944002 16.427003865128995 0.0510030544652068 0 0 0
2105 5 16.736711591180004 16.427003865128995 0.0510030544652068 0 0 0
2098 1 15.063040432062003 17.3928675587598 1.5778206943944137 0 0 0
1926 5 18.410382750298005 13.528120382373993 0.05100305446520731 0 0 0
1932 5 21.757725068534008 13.528120382373992 0.05100305446520698 0 0 0
2109 1 20.084053909416006 14.4939840760048 1.5778206943944135 0 0 0
2115 1 23.431396227652 14.4939840760048 1.5778206943944135 0 0 0
2111 5 20.084053909416006 16.427003865128995 0.05100305446520683 0 0 0
2117 5 23.431396227652005 16.427003865128995 0.05100305446520477 0 0 0
2104 1 18.410382750298005 17.3928675587598 1.5778206943944137 0 0 0
2110 1 21.757725068534008 17.3928675587598 1.5778206943944137 0 0 0
1938 5 25.10506738677 13.528120382373992 0.05100305446520525 0 0 0
1944 5 28.452409705005998 13.528120382373993 0.051003054465207344 0 0 0
2121 1 26.778738545887997 14.4939840760048 1.5778206943944137 0 0 0
2123 5 26.778738545887997 16.427003865128995 0.05100305446520645 0 0 0
2116 1 25.105067386770003 17.3928675587598 1.577820694394413 0 0 0
2122 1 28.452409705005998 17.3928675587598 1.5778206943944135 0 0 0
1950 5 31.799752023242 13.528120382373993 0.05100305446520731 0 0 0
1956 5 35.147094341478 13.528120382373993 0.05100305446520731 0 0 0
2127 1 30.126080864124 14.4939840760048 1.5778206943944137 0 0 0
2133 1 33.47342318236 14.4939840760048 1.5778206943944137 0 0 0
2129 5 30.126080864124 16.427003865128995 0.0510030544652068 0 0 0
2135 5 33.47342318236 16.427003865128995 0.0510030544652068 0 0 0
2128 1 31.799752023242 17.3928675587598 1.5778206943944137 0 0 0
2134 1 35.147094341478 17.3928675587598 1.5778206943944137 0 0 0
1962 5 38.494436659714005 13.528120382373993 0.05100305446520731 0 0 0
2139 1 36.820765500596 14.4939840760048 1.5778206943944137 0 0 0
2145 1 40.168107818832006 14.4939840760048 1.5778206943944135 0 0 0
2141 5 36.820765500596 16.427003865128995 0.0510030544652068 0 0 0
2147 5 40.168107818832006 16.427003865128995 0.05100305446520682 0 0 0
2140 1 38.494436659714005 17.3928675587598 1.5778206943944137 0 0 0
1968 5 41.84177897795001 13.528120382373992 0.05100305446520698 0 0 0
1974 5 45.189121296185995 13.528120382373992 0.05100305446520532 0 0 0
2151 1 43.515450137068 14.4939840760048 1.5778206943944133 0 0 0
2157 1 46.862792455303996 14.4939840760048 1.5778206943944137 0 0 0
2153 5 43.51545013706801 16.427003865128995 0.051003054465204783 0 0 0
2159 5 46.862792455303996 16.427003865128995 0.05100305446520645 0 0 0
2146 1 41.84177897795001 17.3928675587598 1.5778206943944137 0 0 0
2152 1 45.189121296186 17.3928675587598 1.577820694394413 0 0 0
1980 5 48.536463614422 13.528120382373993 0.05100305446520732 0 0 0
1806 5 51.883805932658 13.528120382373993 0.05100305446520744 -1 0 0
1983 1 50.21013477354 14.4939840760048 1.5778206943944137 -1 0 0
1985 5 50.21013477354 16.427003865128995 0.0510030544652068 -1 0 0
2158 1 48.536463614422 17.3928675587598 1.5778206943944135 0 0 0
1984 1 51.883805932658 17.3928675587598 1.5778206943944137 -1 0 0
1812 5 55.231148250893995 13.528120382373992 0.05100305446520595 -1 0 0
1818 5 58.57849056913 13.528120382373993 0.05100305446520731 -1 0 0
1989 1 53.557477091776 14.4939840760048 1.5778206943944135 -1 0 0
1995 1 56.904819410011996 14.4939840760048 1.5778206943944137 -1 0 0
1991 5 53.557477091776 16.427003865128995 0.051003054465205575 -1 0 0
1997 5 56.904819410011996 16.427003865128995 0.05100305446520686 -1 0 0
1990 1 55.231148250893995 17.3928675587598 1.5778206943944137 -1 0 0
1996 1 58.57849056913 17.3928675587598 1.5778206943944137 -1 0 0
1824 5 61.925832887366 13.528120382373993 0.05100305446520731 -1 0 0
2001 1 60.252161728248 14.4939840760048 1.5778206943944137 -1 0 0
2007 1 63.599504046484 14.4939840760048 1.5778206943944137 -1 0 0
2003 5 60.252161728248 16.427003865128995 0.0510030544652068 -1 0 0
2009 5 63.599504046484 16.427003865128995 0.0510030544652068 -1 0 0
2002 1 61.925832887366 17.3928675587598 1.5778206943944137 -1 0 0
1830 5 65.273175205602 13.528120382373993 0.05100305446520732 -1 0 0
1836 5 68.620517523838 13.528120382373992 0.051003054465205734 -1 0 0
2013 1 66.94684636472 14.4939840760048 1.5778206943944137 -1 0 0
2019 1 70.294188682956 14.4939840760048 1.5778206943944137 -1 0 0
2015 5 66.94684636472 16.427003865128995 0.05100305446520697 -1 0 0
2021 5 70.29418868295599 16.427003865128995 0.05100305446520591 -1 0 0
2008 1 65.273175205602 17.3928675587598 1.5778206943944135 -1 0 0
2014 1 68.620517523838 17.3928675587598 1.577820694394413 -1 0 0
1842 5 71.967859842074 13.528120382373992 0.051003054465206456 -1 0 0
1848 5 75.31520216031 13.528120382373993 0.05100305446520755 -1 0 0
2025 1 73.64153100119199 14.4939840760048 1.5778206943944133 -1 0 0
2027 5 73.64153100119199 16.427003865128995 0.05100305446520519 -1 0 0
2020 1 71.96785984207399 17.3928675587598 1.5778206943944135 -1 0 0
2026 1 75.31520216031 17.3928675587598 1.5778206943944137 -1 0 0
1854 5 78.662544478546 13.528120382373993 0.05100305446520731 -1 0 0
1860 5 82.009886796782 13.528120382373993 0.05100305446520731 -1 0 0
2031 1 76.988873319428 14.4939840760048 1.5778206943944135 -1 0 0
2037 1 80.336215637664 14.4939840760048 1.5778206943944137 -1 0 0
2033 5 76.988873319428 16.427003865128995 0.05100305446520682 -1 0 0
2039 5 80.336215637664 16.427003865128995 0.0510030544652068 -1 0 0
2032 1 78.662544478546 17.3928675587598 1.5778206943944137 -1 0 0
2038 1 82.009886796782 17.3928675587598 1.5778206943944137 -1 0 0
1866 5 85.357229115018 13.528120382373993 0.05100305446520755 -1 0 0
2043 1 83.6835579559 14.4939840760048 1.5778206943944135 -1 0 0
2049 1 87.030900274136 14.4939840760048 1.5778206943944133 -1 0 0
2045 5 83.6835579559 16.427003865128995 0.05100305446520682 -1 0 0
2051 5 87.030900274136 16.427003865128995 0.051003054465205186 -1 0 0
2044 1 85.357229115018 17.3928675587598 1.5778206943944137 -1 0 0
1872 5 88.70457143325399 13.528120382373992 0.051003054465206435 -1 0 0
1878 5 92.05191375148999 13.528120382373993 0.05100305446520742 -1 0 0
2055 1 90.37824259237199 14.4939840760048 1.5778206943944137 -1 0 0
2061 1 93.72558491060799 14.4939840760048 1.5778206943944135 -1 0 0
2057 5 90.378242592372 16.427003865128995 0.051003054465206824 -1 0 0
2063 5 93.725584910608 16.427003865128995 0.05100305446520682 -1 0 0
2050 1 88.704571433254 17.3928675587598 1.5778206943944137 -1 0 0
2056 1 92.05191375149 17.3928675587598 1.5778206943944137 -1 0 0
1884 5 95.399256069726 13.528120382373993 0.05100305446520744 -1 0 0
1890 5 98.746598387962 13.528120382373992 0.05100305446520567 -1 0 0
2067 1 97.072927228844 14.4939840760048 1.5778206943944135 -1 0 0
2069 5 97.07292722884401 16.427003865128995 0.05100305446520588 -1 0 0
2062 1 95.39925606972601 17.3928675587598 1.5778206943944135 -1 0 0
2068 1 98.746598387962 17.3928675587598 1.577820694394413 -1 0 0
2076 5 1.6736711591180011 19.325887347883995 0.051003054465205686 0 0 0
2082 5 5.021013477354003 19.325887347883995 0.05100305446520543 0 0 0
2253 1 0 20.291751041514797 1.577820694394414 0 0 0
2259 1 3.3473423182360023 20.291751041514797 1.5778206943944135 0 0 0
2255 5 1.9275590087373625e-16 22.22477083063899 0.05100305446520544 0 0 0
2261 5 3.3473423182360023 22.22477083063899 0.05100305446520515 0 0 0
2254 1 1.6736711591180011 23.190634524269797 1.577820694394412 0 0 0
2260 1 5.021013477354003 23.190634524269797 1.577820694394412 0 0 0
2088 5 8.36835579559 19.325887347883995 0.05100305446520471 0 0 0
2094 5 11.715698113826 19.325887347883995 0.051003054465205686 0 0 0
2265 1 6.694684636472002 20.291751041514797 1.5778206943944135 0 0 0
2271 1 10.042026954708 20.291751041514797 1.5778206943944135 0 0 0
2267 5 6.694684636472003 22.22477083063899 0.05100305446520428 0 0 0
2273 5 10.042026954708 22.22477083063899 0.051003054465205006 0 0 0
2266 1 8.368355795590002 23.190634524269797 1.577820694394412 0 0 0
2272 1 11.715698113826 23.190634524269797 1.577820694394412 0 0 0
2100 5 15.063040432062003 19.325887347883995 0.05100305446520567 0 0 0
2277 1 13.389369272944002 20.291751041514797 1.5778206943944135 0 0 0
2283 1 16.736711591180004 20.291751041514797 1.5778206943944135 0 0 0
2279 5 13.389369272944002 22.22477083063899 0.05100305446520513 0 0 0
2285 5 16.736711591180004 22.22477083063899 0.05100305446520513 0 0 0
2278 1 15.063040432062003 23.190634524269797 1.577820694394412 0 0 0
2106 5 18.410382750298005 19.325887347883995 0.05100305446520567 0 0 0
2112 5 21.757725068534008 19.325887347883995 0.05100305446520528 0 0 0
2289 1 20.084053909416006 20.291751041514797 1.5778206943944133 0 0 0
2295 1 23.431396227652 20.291751041514797 1.5778206943944133 0 0 0
2291 5 20.084053909416006 22.22477083063899 0.05100305446520516 0 0 0
2297 5 23.431396227652005 22.22477083063899 0.05100305446520313 0 0 0
2284 1 18.410382750298005 23.190634524269797 1.577820694394412 0 0 0
2290 1 21.757725068534008 23.190634524269797 1.5778206943944124 0 0 0
2118 5 25.10506738677 19.325887347883995 0.05100305446520365 0 0 0
2124 5 28.452409705005998 19.325887347883995 0.0510030544652057 0 0 0
2301 1 26.778738545887997 20.291751041514797 1.577820694394414 0 0 0
2303 5 26.778738545887997 22.22477083063899 0.05100305446520486 0 0 0
2296 1 25.105067386770003 23.190634524269797 1.577820694394412 0 0 0
2302 1 28.452409705005998 23.190634524269797 1.577820694394412 0 0 0
2130 5 31.799752023242 19.325887347883995 0.05100305446520567 0 0 0
2136 5 35.147094341478 19.325887347883995 0.05100305446520567 0 0 0
2307 1 30.126080864124 20.291751041514797 1.5778206943944135 0 0 0
2313 1 33.47342318236 20.291751041514797 1.5778206943944135 0 0 0
2309 5 30.126080864124 22.22477083063899 0.05100305446520513 0 0 0
2315 5 33.47342318236 22.22477083063899 0.05100305446520513 0 0 0
2308 1 31.799752023242 23.190634524269797 1.577820694394412 0 0 0
2314 1 35.147094341478 23.190634524269797 1.577820694394412 0 0 0
2142 5 38.494436659714005 19.325887347883995 0.05100305446520567 0 0 0
2319 1 36.820765500596 20.291751041514797 1.5778206943944135 0 0 0
2325 1 40.168107818832006 20.291751041514797 1.5778206943944133 0 0 0
2321 5 36.820765500596 22.22477083063899 0.05100305446520513 0 0 0
2327 5 40.168107818832006 22.22477083063899 0.051003054465205144 0 0 0
2320 1 38.494436659714005 23.190634524269797 1.577820694394412 0 0 0
2148 5 41.84177897795001 19.325887347883995 0.051003054465205276 0 0 0
2154 5 45.189121296185995 19.325887347883995 0.05100305446520361 0 0 0
2331 1 43.515450137068 20.291751041514797 1.5778206943944135 0 0 0
2337 1 46.862792455303996 20.291751041514797 1.577820694394414 0 0 0
2333 5 43.51545013706801 22.22477083063899 0.051003054465203215 0 0 0
2339 5 46.862792455303996 22.22477083063899 0.05100305446520486 0 0 0
2326 1 41.84177897795001 23.190634524269797 1.5778206943944122 0 0 0
2332 1 45.189121296186 23.190634524269797 1.577820694394412 0 0 0
2160 5 48.536463614422 19.325887347883995 0.051003054465205686 0 0 0
1986 5 51.883805932658 19.325887347883995 0.05100305446520574 -1 0 0
2163 1 50.21013477354 20.291751041514797 1.5778206943944135 -1 0 0
2165 5 50.21013477354 22.22477083063899 0.05100305446520514 -1 0 0
2338 1 48.536463614422 23.190634524269797 1.577820694394412 0 0 0
2164 1 51.883805932658 23.190634524269797 1.577820694394412 -1 0 0
1992 5 55.231148250893995 19.325887347883995 0.05100305446520444 -1 0 0
1998 5 58.57849056913 19.325887347883995 0.05100305446520568 -1 0 0
2169 1 53.557477091776 20.291751041514797 1.5778206943944135 -1 0 0
2175 1 56.904819410011996 20.291751041514797 1.5778206943944135 -1 0 0
2171 5 53.557477091776 22.22477083063899 0.05100305446520396 -1 0 0
2177 5 56.904819410011996 22.22477083063899 0.05100305446520527 -1 0 0
2170 1 55.231148250893995 23.190634524269797 1.577820694394412 -1 0 0
2176 1 58.57849056913 23.190634524269797 1.577820694394412 -1 0 0
2004 5 61.925832887366 19.325887347883995 0.05100305446520567 -1 0 0
2181 1 60.252161728248 20.291751041514797 1.5778206943944135 -1 0 0