LAMMPS data file via write_data, version 29 Aug 2024, timestep = 1, units = metal

5916 atoms
6 atom types

0 101.161882620261 xlo xhi
0 102.71371890653 ylo yhi
-50 50 zlo zhi

Masses

1 72.63
2 72.63
3 72.63
4 32.06
5 32.06
6 32.06

Atoms # atomic

992 4 3.488336331070602 1.006998012048883 0.0031557795063583234 0 0 0
1105 1 3.4886592083731993 3.0206555788366405 1.3599061272137416 0 0 0
1107 4 1.7441659410656467 4.0279897445938815 0.003155779506358443 0 0 0
1111 4 5.23250672107465 4.0279897445938815 0.0031557795063591938 0 0 0
1101 1 0.00031842836419571086 3.0206555788366396 1.3599061272137423 0 0 0
996 4 6.9766771110796 1.0069980120488837 0.0031557795063574486 0 0 0
1000 4 10.465017891088603 1.006998012048883 0.0031557795063582605 0 0 0
1109 1 6.976999988382202 3.0206555788366396 1.3599061272137423 0 0 0
1113 1 10.4653407683912 3.0206555788366405 1.3599061272137416 0 0 0
1115 4 8.720847501083648 4.0279897445938815 0.0031557795063583134 0 0 0
1004 4 13.953358671097602 1.0069980120488837 0.003155779506357512 0 0 0
1008 4 17.441699451106597 1.0069980120488837 0.0031557795063573827 0 0 0
1117 1 13.953681548400203 3.0206555788366396 1.3599061272137423 0 0 0
1121 1 17.442022328409198 3.02065557883664 1.3599061272137423 0 0 0
1119 4 12.20918828109265 4.0279897445938815 0.0031557795063591925 0 0 0
1123 4 15.69752906110165 4.0279897445938815 0.0031557795063584396 0 0 0
1012 4 20.930040231115605 1.0069980120488826 0.003155779506358929 0 0 0
1125 1 20.9303631084182 3.020655578836641 1.3599061272137407 0 0 0
1127 4 19.185869841110645 4.0279897445938815 0.0031557795063581837 0 0 0
1131 4 22.674210621119652 4.0279897445938815 0.0031557795063583177 0 0 0
1016 4 24.418381011124605 1.0069980120488837 0.003155779506357512 0 0 0
1020 4 27.906721791133602 1.0069980120488837 0.003155779506357512 0 0 0
1129 1 24.4187038884272 3.0206555788366396 1.3599061272137423 0 0 0
1133 1 27.907044668436203 3.0206555788366396 1.3599061272137423 0 0 0
1135 4 26.162551401128653 4.027989744593881 0.0031557795063601284 0 0 0
1139 4 29.65089218113765 4.0279897445938815 0.00315577950635844 0 0 0
1024 4 31.3950625711426 1.0069980120488837 0.0031557795063575115 0 0 0
1028 4 34.8834033511516 1.0069980120488837 0.0031557795063573836 0 0 0
1137 1 31.3953854484452 3.02065557883664 1.3599061272137423 0 0 0
1141 1 34.8837262284542 3.02065557883664 1.3599061272137423 0 0 0
1143 4 33.13923296114665 4.0279897445938815 0.0031557795063584405 0 0 0
1032 4 38.371744131160604 1.0069980120488826 0.0031557795063589297 0 0 0
1145 1 38.3720670084632 3.020655578836641 1.3599061272137407 0 0 0
1147 4 36.62757374115564 4.0279897445938815 0.003155779506358184 0 0 0
1151 4 40.115914521164655 4.027989744593881 0.0031557795063599996 0 0 0
1036 4 41.86008491116961 1.0069980120488837 0.0031557795063575115 0 0 0
1040 4 45.348425691178605 1.0069980120488837 0.0031557795063575102 0 0 0
1149 1 41.86040778847221 3.0206555788366396 1.3599061272137423 0 0 0
1153 1 45.348748568481206 3.02065557883664 1.3599061272137423 0 0 0
1155 4 43.60425530117365 4.0279897445938815 0.003155779506358439 0 0 0
1159 4 47.09259608118265 4.0279897445938815 0.0031557795063584396 0 0 0
1044 4 48.8367664711876 1.0069980120488837 0.003155779506357448 0 0 0
932 4 52.3251072511966 1.0069980120488837 0.0031557795063574447 -1 0 0
1157 1 48.8370893484902 3.02065557883664 1.3599061272137423 0 0 0
1045 1 52.3254301284992 3.02065557883664 1.3599061272137423 -1 0 0
1047 4 50.580936861191645 4.0279897445938815 0.003155779506358377 -1 0 0
936 4 55.813448031205596 1.006998012048883 0.0031557795063582605 -1 0 0
940 4 59.3017888112146 1.0069980120488837 0.0031557795063574456 -1 0 0
1049 1 55.8137709085082 3.0206555788366405 1.3599061272137416 -1 0 0
1053 1 59.3021116885172 3.0206555788366396 1.3599061272137423 -1 0 0
1051 4 54.06927764120064 4.0279897445938815 0.0031557795063583767 -1 0 0
1055 4 57.557618421209646 4.0279897445938815 0.0031557795063591296 -1 0 0
944 4 62.7901295912236 1.006998012048883 0.003155779506358322 -1 0 0
1057 1 62.7904524685262 3.0206555788366405 1.3599061272137416 -1 0 0
1059 4 61.04595920121864 4.0279897445938815 0.003155779506358376 -1 0 0
1063 4 64.53429998122765 4.0279897445938815 0.0031557795063591916 -1 0 0
948 4 66.2784703712326 1.0069980120488837 0.003155779506357512 -1 0 0
952 4 69.7668111512416 1.0069980120488837 0.003155779506357385 -1 0 0
1061 1 66.2787932485352 3.0206555788366396 1.3599061272137423 -1 0 0
1065 1 69.76713402854419 3.02065557883664 1.3599061272137423 -1 0 0
1067 4 68.02264076123664 4.0279897445938815 0.0031557795063584413 -1 0 0
956 4 73.25515193125061 1.0069980120488826 0.00315577950635893 -1 0 0
960 4 76.7434927112596 1.0069980120488837 0.003155779506357512 -1 0 0
1069 1 73.2554748085532 3.020655578836641 1.3599061272137407 -1 0 0
1073 1 76.7438155885622 3.0206555788366396 1.3599061272137423 -1 0 0
1071 4 71.51098154124564 4.0279897445938815 0.0031557795063581855 -1 0 0
1075 4 74.99932232125465 4.027989744593881 0.0031557795063599996 -1 0 0
964 4 80.2318334912686 1.0069980120488837 0.0031557795063575115 -1 0 0
1077 1 80.2321563685712 3.02065557883664 1.3599061272137423 -1 0 0
1079 4 78.48766310126365 4.0279897445938815 0.00315577950635844 -1 0 0
1083 4 81.97600388127265 4.0279897445938815 0.00315577950635844 -1 0 0
968 4 83.7201742712776 1.0069980120488837 0.0031557795063575115 -1 0 0
972 4 87.2085150512866 1.0069980120488837 0.0031557795063575124 -1 0 0
1081 1 83.7204971485802 3.02065557883664 1.3599061272137423 -1 0 0
1085 1 87.20883792858919 3.02065557883664 1.3599061272137423 -1 0 0
1087 4 85.46434466128164 4.0279897445938815 0.0031557795063584413 -1 0 0
1091 4 88.95268544129064 4.0279897445938815 0.0031557795063584413 -1 0 0
976 4 90.6968558312956 1.0069980120488837 0.0031557795063573845 -1 0 0
980 4 94.1851966113046 1.0069980120488826 0.0031557795063589305 -1 0 0
1089 1 90.69717870859819 3.02065557883664 1.3599061272137423 -1 0 0
1093 1 94.1855194886072 3.020655578836641 1.3599061272137407 -1 0 0
1095 4 92.44102622129964 4.0279897445938815 0.0031557795063581855 -1 0 0
988 4 101.1618781713226 1.006998012048883 0.0031557795063582375 -1 0 0
984 4 97.6735373913136 1.0069980120488837 0.0031557795063573827 -1 0 0
1097 1 97.6738602686162 3.0206555788366396 1.3599061272137423 -1 0 0
1099 4 95.92936700130865 4.0279897445938815 0.0031557795063583177 -1 0 0
1103 4 99.41770778131765 4.027989744593881 0.003155779506359999 -1 0 0
1106 1 1.744488818369153 6.041647311381639 1.359906127213742 0 0 0
1108 4 3.488336331070602 7.048981477138882 0.0031557795063601565 0 0 0
1110 1 5.232829598378155 6.04164731138164 1.3599061272137423 0 0 0
1221 1 3.4886592083731993 9.062639043926643 1.3599061272137416 0 0 0
1223 4 1.7441659410656467 10.069973209683884 0.0031557795063584795 0 0 0
1227 4 5.23250672107465 10.069973209683882 0.0031557795063592896 0 0 0
1217 1 0.00031842836419571086 9.062639043926643 1.3599061272137425 0 0 0
1112 4 6.9766771110796 7.048981477138883 0.0031557795063593404 0 0 0
1114 1 8.721170378387153 6.04164731138164 1.3599061272137414 0 0 0
1116 4 10.465017891088603 7.048981477138882 0.0031557795063600924 0 0 0
1225 1 6.976999988382202 9.062639043926643 1.3599061272137425 0 0 0
1229 1 10.4653407683912 9.062639043926643 1.3599061272137418 0 0 0
1231 4 8.720847501083648 10.069973209683884 0.003155779506358351 0 0 0
1118 1 12.209511158396156 6.04164731138164 1.3599061272137423 0 0 0
1120 4 13.953358671097602 7.048981477138883 0.0031557795063594037 0 0 0
1122 1 15.697851938405153 6.041647311381639 1.359906127213742 0 0 0
1124 4 17.441699451106597 7.048981477138883 0.003155779506359274 0 0 0
1233 1 13.953681548400203 9.062639043926643 1.3599061272137425 0 0 0
1237 1 17.442022328409198 9.062639043926643 1.3599061272137425 0 0 0
1235 4 12.20918828109265 10.069973209683882 0.0031557795063592874 0 0 0
1239 4 15.69752906110165 10.069973209683884 0.003155779506358476 0 0 0
1126 1 19.18619271841415 6.04164731138164 1.3599061272137405 0 0 0
1128 4 20.930040231115605 7.048981477138882 0.0031557795063608344 0 0 0
1130 1 22.67453349842316 6.041647311381639 1.3599061272137423 0 0 0
1241 1 20.9303631084182 9.062639043926644 1.359906127213741 0 0 0
1243 4 19.185869841110645 10.069973209683884 0.0031557795063582197 0 0 0
1247 4 22.674210621119652 10.069973209683884 0.0031557795063583416 0 0 0
1132 4 24.418381011124605 7.048981477138883 0.0031557795063594032 0 0 0
1134 1 26.162874278432156 6.04164731138164 1.3599061272137423 0 0 0
1136 4 27.906721791133602 7.048981477138883 0.0031557795063594032 0 0 0
1138 1 29.651215058441153 6.041647311381639 1.359906127213742 0 0 0
1245 1 24.4187038884272 9.062639043926643 1.3599061272137425 0 0 0
1249 1 27.907044668436203 9.062639043926643 1.3599061272137427 0 0 0
1251 4 26.162551401128653 10.069973209683882 0.0031557795063601513 0 0 0
1255 4 29.65089218113765 10.069973209683884 0.0031557795063584778 0 0 0
1140 4 31.3950625711426 7.048981477138883 0.0031557795063594032 0 0 0
1142 1 33.13955583845015 6.041647311381639 1.359906127213742 0 0 0
1144 4 34.8834033511516 7.048981477138883 0.0031557795063592753 0 0 0
1253 1 31.3953854484452 9.062639043926643 1.3599061272137425 0 0 0
1257 1 34.8837262284542 9.062639043926643 1.3599061272137425 0 0 0
1259 4 33.13923296114665 10.069973209683884 0.0031557795063584778 0 0 0
1146 1 36.627896618459154 6.04164731138164 1.3599061272137405 0 0 0
1148 4 38.371744131160604 7.048981477138882 0.0031557795063608344 0 0 0
1150 1 40.11623739846816 6.04164731138164 1.3599061272137423 0 0 0
1261 1 38.3720670084632 9.062639043926644 1.359906127213741 0 0 0
1263 4 36.62757374115564 10.069973209683884 0.0031557795063582215 0 0 0
1267 4 40.115914521164655 10.069973209683882 0.003155779506360023 0 0 0
1152 4 41.86008491116961 7.048981477138883 0.0031557795063594032 0 0 0
1154 1 43.604578178477155 6.041647311381639 1.359906127213742 0 0 0
1156 4 45.348425691178605 7.048981477138883 0.003155779506359402 0 0 0
1158 1 47.09291895848615 6.041647311381639 1.359906127213742 0 0 0
1265 1 41.86040778847221 9.062639043926643 1.3599061272137425 0 0 0
1269 1 45.348748568481206 9.062639043926643 1.3599061272137425 0 0 0
1271 4 43.60425530117365 10.069973209683884 0.003155779506358476 0 0 0
1275 4 47.09259608118265 10.069973209683884 0.003155779506358476 0 0 0
1160 4 48.8367664711876 7.048981477138883 0.0031557795063593395 0 0 0
1046 1 50.58125973849515 6.04164731138164 1.3599061272137412 -1 0 0
1048 4 52.3251072511966 7.048981477138883 0.0031557795063593425 -1 0 0
1273 1 48.8370893484902 9.062639043926643 1.3599061272137425 0 0 0
1161 1 52.3254301284992 9.062639043926643 1.3599061272137425 -1 0 0
1163 4 50.580936861191645 10.069973209683884 0.0031557795063584144 -1 0 0
1050 1 54.06960051850415 6.041647311381639 1.359906127213742 -1 0 0
1052 4 55.813448031205596 7.048981477138882 0.003155779506360093 -1 0 0
1054 1 57.55794129851315 6.04164731138164 1.3599061272137414 -1 0 0
1056 4 59.3017888112146 7.048981477138883 0.003155779506359343 -1 0 0
1165 1 55.8137709085082 9.062639043926643 1.3599061272137416 -1 0 0
1169 1 59.3021116885172 9.062639043926643 1.3599061272137425 -1 0 0
1167 4 54.06927764120064 10.069973209683884 0.0031557795063584136 -1 0 0
1171 4 57.557618421209646 10.069973209683882 0.0031557795063592254 -1 0 0
1058 1 61.046282078522154 6.041647311381639 1.359906127213742 -1 0 0
1060 4 62.7901295912236 7.048981477138882 0.003155779506360155 -1 0 0
1062 1 64.53462285853115 6.04164731138164 1.3599061272137423 -1 0 0
1173 1 62.7904524685262 9.062639043926643 1.3599061272137418 -1 0 0
1175 4 61.04595920121864 10.069973209683884 0.003155779506358413 -1 0 0
1179 4 64.53429998122765 10.069973209683882 0.003155779506359287 -1 0 0
1066 1 68.02296363854015 6.041647311381639 1.359906127213742 -1 0 0
1064 4 66.2784703712326 7.048981477138883 0.0031557795063594032 -1 0 0
1068 4 69.7668111512416 7.048981477138883 0.0031557795063592766 -1 0 0
1177 1 66.2787932485352 9.062639043926643 1.3599061272137425 -1 0 0
1181 1 69.76713402854419 9.062639043926643 1.3599061272137425 -1 0 0
1183 4 68.02264076123664 10.069973209683884 0.0031557795063584778 -1 0 0
1070 1 71.51130441854914 6.04164731138164 1.3599061272137405 -1 0 0
1072 4 73.25515193125061 7.048981477138882 0.003155779506360835 -1 0 0
1074 1 74.99964519855816 6.04164731138164 1.3599061272137423 -1 0 0
1076 4 76.7434927112596 7.048981477138883 0.0031557795063594032 -1 0 0
1185 1 73.2554748085532 9.062639043926644 1.359906127213741 -1 0 0
1189 1 76.7438155885622 9.062639043926643 1.3599061272137427 -1 0 0
1187 4 71.51098154124564 10.069973209683884 0.003155779506358222 -1 0 0
1191 4 74.99932232125465 10.069973209683882 0.0031557795063600234 -1 0 0
1078 1 78.48798597856715 6.041647311381639 1.359906127213742 -1 0 0
1080 4 80.2318334912686 7.048981477138883 0.0031557795063594024 -1 0 0
1082 1 81.97632675857615 6.041647311381639 1.359906127213742 -1 0 0
1193 1 80.2321563685712 9.062639043926643 1.3599061272137425 -1 0 0
1195 4 78.48766310126365 10.069973209683884 0.003155779506358477 -1 0 0
1199 4 81.97600388127265 10.069973209683884 0.0031557795063584765 -1 0 0
1084 4 83.7201742712776 7.048981477138883 0.0031557795063594032 -1 0 0
1086 1 85.46466753858515 6.041647311381639 1.359906127213742 -1 0 0
1088 4 87.2085150512866 7.048981477138883 0.003155779506359404 -1 0 0
1090 1 88.95300831859414 6.041647311381639 1.359906127213742 -1 0 0
1197 1 83.7204971485802 9.062639043926643 1.3599061272137425 -1 0 0
1201 1 87.20883792858919 9.062639043926643 1.3599061272137425 -1 0 0
1203 4 85.46434466128164 10.069973209683884 0.0031557795063584778 -1 0 0
1207 4 88.95268544129064 10.069973209683884 0.003155779506358478 -1 0 0
1092 4 90.6968558312956 7.048981477138883 0.003155779506359276 -1 0 0
1094 1 92.44134909860314 6.04164731138164 1.3599061272137405 -1 0 0
1096 4 94.1851966113046 7.048981477138882 0.003155779506360835 -1 0 0
1205 1 90.69717870859819 9.062639043926643 1.3599061272137425 -1 0 0
1209 1 94.1855194886072 9.062639043926644 1.359906127213741 -1 0 0
1211 4 92.44102622129964 10.069973209683884 0.003155779506358222 -1 0 0
1104 4 101.1618781713226 7.048981477138882 0.0031557795063602086 -1 0 0
1098 1 95.92968987861215 6.041647311381639 1.3599061272137423 -1 0 0
1100 4 97.6735373913136 7.048981477138883 0.003155779506359274 -1 0 0
1102 1 99.41803065862115 6.041647311381641 1.3599061272137405 -1 0 0
1213 1 97.6738602686162 9.062639043926643 1.3599061272137425 -1 0 0
1215 4 95.92936700130865 10.069973209683884 0.0031557795063583416 -1 0 0
1219 4 99.41770778131765 10.069973209683882 0.003155779506360023 -1 0 0
1222 1 1.744488818369153 12.083630776471642 1.359906127213742 0 0 0
1226 1 5.232829598378155 12.083630776471642 1.359906127213742 0 0 0
1224 4 3.488336331070602 13.090964942228881 0.0031557795063592874 0 0 0
1339 4 1.7441659410656467 16.111956674773882 0.0031557795063584804 0 0 0
1337 1 3.4886592083731993 15.104622509016641 1.3599061272137416 0 0 0
1343 4 5.23250672107465 16.111956674773882 0.00315577950635929 0 0 0
1333 1 0.00031842836419571086 15.104622509016641 1.3599061272137425 0 0 0
1230 1 8.721170378387153 12.083630776471642 1.3599061272137412 0 0 0
1228 4 6.9766771110796 13.090964942228883 0.0031557795063584127 0 0 0
1232 4 10.465017891088603 13.090964942228881 0.0031557795063592237 0 0 0
1341 1 6.976999988382202 15.104622509016641 1.3599061272137423 0 0 0
1347 4 8.720847501083648 16.111956674773882 0.003155779506358351 0 0 0
1345 1 10.4653407683912 15.104622509016641 1.3599061272137416 0 0 0
1234 1 12.209511158396156 12.083630776471642 1.359906127213742 0 0 0
1238 1 15.697851938405153 12.083630776471642 1.359906127213742 0 0 0
1236 4 13.953358671097602 13.090964942228883 0.003155779506358476 0 0 0
1240 4 17.441699451106597 13.090964942228883 0.003155779506358346 0 0 0
1351 4 12.20918828109265 16.111956674773882 0.0031557795063592887 0 0 0
1349 1 13.953681548400203 15.104622509016641 1.3599061272137425 0 0 0
1355 4 15.69752906110165 16.111956674773882 0.003155779506358476 0 0 0
1353 1 17.442022328409198 15.104622509016641 1.3599061272137423 0 0 0
1242 1 19.18619271841415 12.083630776471644 1.3599061272137403 0 0 0
1246 1 22.67453349842316 12.083630776471642 1.359906127213742 0 0 0
1244 4 20.930040231115605 13.090964942228881 0.003155779506359893 0 0 0
1359 4 19.185869841110645 16.111956674773882 0.0031557795063582206 0 0 0
1357 1 20.9303631084182 15.104622509016643 1.3599061272137407 0 0 0
1363 4 22.674210621119652 16.111956674773882 0.0031557795063583416 0 0 0
1250 1 26.162874278432156 12.083630776471642 1.359906127213742 0 0 0
1254 1 29.651215058441153 12.083630776471642 1.3599061272137418 0 0 0
1248 4 24.418381011124605 13.090964942228883 0.0031557795063584756 0 0 0
1252 4 27.906721791133602 13.090964942228883 0.003155779506358476 0 0 0
1361 1 24.4187038884272 15.104622509016641 1.3599061272137425 0 0 0
1367 4 26.162551401128653 16.111956674773882 0.0031557795063601513 0 0 0
1365 1 27.907044668436203 15.104622509016641 1.3599061272137425 0 0 0
1371 4 29.65089218113765 16.111956674773882 0.0031557795063584778 0 0 0
1258 1 33.13955583845015 12.083630776471642 1.3599061272137418 0 0 0
1256 4 31.3950625711426 13.090964942228883 0.0031557795063584756 0 0 0
1260 4 34.8834033511516 13.090964942228883 0.0031557795063583472 0 0 0
1369 1 31.3953854484452 15.104622509016641 1.3599061272137423 0 0 0
1373 1 34.8837262284542 15.104622509016641 1.3599061272137423 0 0 0
1375 4 33.13923296114665 16.111956674773882 0.003155779506358478 0 0 0
1262 1 36.627896618459154 12.083630776471644 1.3599061272137403 0 0 0
1266 1 40.11623739846816 12.083630776471642 1.3599061272137423 0 0 0
1264 4 38.371744131160604 13.090964942228881 0.003155779506359893 0 0 0
1379 4 36.62757374115564 16.111956674773882 0.0031557795063582215 0 0 0
1377 1 38.3720670084632 15.104622509016643 1.359906127213741 0 0 0
1383 4 40.115914521164655 16.111956674773882 0.003155779506360023 0 0 0
1270 1 43.604578178477155 12.083630776471642 1.359906127213742 0 0 0
1274 1 47.09291895848615 12.083630776471642 1.3599061272137418 0 0 0
1268 4 41.86008491116961 13.090964942228883 0.0031557795063584756 0 0 0
1272 4 45.348425691178605 13.090964942228883 0.0031557795063584743 0 0 0
1381 1 41.86040778847221 15.104622509016641 1.3599061272137425 0 0 0
1387 4 43.60425530117365 16.111956674773882 0.003155779506358476 0 0 0
1385 1 45.348748568481206 15.104622509016641 1.3599061272137423 0 0 0
1391 4 47.09259608118265 16.111956674773882 0.003155779506358477 0 0 0
1162 1 50.58125973849515 12.083630776471642 1.359906127213741 -1 0 0
1276 4 48.8367664711876 13.090964942228883 0.003155779506358411 0 0 0
1164 4 52.3251072511966 13.090964942228883 0.0031557795063584084 -1 0 0
1389 1 48.8370893484902 15.104622509016641 1.3599061272137423 0 0 0
1279 4 50.580936861191645 16.111956674773882 0.003155779506358415 -1 0 0
1277 1 52.3254301284992 15.104622509016641 1.3599061272137423 -1 0 0
1166 1 54.06960051850415 12.083630776471642 1.359906127213742 -1 0 0
1170 1 57.55794129851315 12.083630776471644 1.3599061272137412 -1 0 0
1168 4 55.813448031205596 13.090964942228881 0.003155779506359224 -1 0 0
1172 4 59.3017888112146 13.090964942228883 0.0031557795063584084 -1 0 0
1283 4 54.06927764120064 16.111956674773882 0.0031557795063584144 -1 0 0
1281 1 55.8137709085082 15.104622509016641 1.3599061272137416 -1 0 0
1287 4 57.557618421209646 16.111956674773882 0.003155779506359226 -1 0 0
1285 1 59.3021116885172 15.104622509016641 1.3599061272137423 -1 0 0
1174 1 61.046282078522154 12.083630776471642 1.359906127213742 -1 0 0
1178 1 64.53462285853115 12.083630776471642 1.359906127213742 -1 0 0
1176 4 62.7901295912236 13.090964942228881 0.0031557795063592857 -1 0 0
1291 4 61.04595920121864 16.111956674773882 0.003155779506358413 -1 0 0
1289 1 62.7904524685262 15.104622509016641 1.3599061272137416 -1 0 0
1295 4 64.53429998122765 16.111956674773882 0.0031557795063592883 -1 0 0
1182 1 68.02296363854015 12.083630776471642 1.3599061272137418 -1 0 0
1180 4 66.2784703712326 13.090964942228883 0.003155779506358476 -1 0 0
1184 4 69.7668111512416 13.090964942228883 0.0031557795063583485 -1 0 0
1293 1 66.2787932485352 15.104622509016641 1.3599061272137423 -1 0 0
1299 4 68.02264076123664 16.111956674773882 0.003155779506358478 -1 0 0
1297 1 69.76713402854419 15.104622509016641 1.3599061272137423 -1 0 0
1186 1 71.51130441854914 12.083630776471644 1.3599061272137403 -1 0 0
1190 1 74.99964519855816 12.083630776471642 1.3599061272137423 -1 0 0
1188 4 73.25515193125061 13.090964942228881 0.003155779506359894 -1 0 0
1192 4 76.7434927112596 13.090964942228883 0.0031557795063584756 -1 0 0
1303 4 71.51098154124564 16.111956674773882 0.0031557795063582223 -1 0 0
1301 1 73.2554748085532 15.104622509016643 1.359906127213741 -1 0 0
1307 4 74.99932232125465 16.111956674773882 0.0031557795063600234 -1 0 0
1305 1 76.7438155885622 15.104622509016641 1.3599061272137425 -1 0 0
1194 1 78.48798597856715 12.083630776471642 1.3599061272137418 -1 0 0
1198 1 81.97632675857615 12.083630776471642 1.3599061272137418 -1 0 0
1196 4 80.2318334912686 13.090964942228883 0.0031557795063584756 -1 0 0
1311 4 78.48766310126365 16.111956674773882 0.003155779506358477 -1 0 0
1309 1 80.2321563685712 15.104622509016641 1.3599061272137423 -1 0 0
1315 4 81.97600388127265 16.111956674773882 0.0031557795063584778 -1 0 0
1202 1 85.46466753858515 12.083630776471642 1.3599061272137418 -1 0 0
1206 1 88.95300831859414 12.083630776471642 1.3599061272137418 -1 0 0
1200 4 83.7201742712776 13.090964942228883 0.003155779506358476 -1 0 0
1204 4 87.2085150512866 13.090964942228883 0.003155779506358477 -1 0 0
1313 1 83.7204971485802 15.104622509016641 1.3599061272137423 -1 0 0
1319 4 85.46434466128164 16.111956674773882 0.003155779506358478 -1 0 0
1317 1 87.20883792858919 15.104622509016641 1.3599061272137423 -1 0 0
1323 4 88.95268544129064 16.111956674773882 0.0031557795063584786 -1 0 0
1210 1 92.44134909860314 12.083630776471644 1.3599061272137403 -1 0 0
1208 4 90.6968558312956 13.090964942228883 0.003155779506358349 -1 0 0
1212 4 94.1851966113046 13.090964942228881 0.003155779506359894 -1 0 0
1321 1 90.69717870859819 15.104622509016641 1.3599061272137423 -1 0 0
1327 4 92.44102622129964 16.111956674773882 0.0031557795063582223 -1 0 0
1325 1 94.1855194886072 15.104622509016643 1.3599061272137407 -1 0 0
1220 4 101.1618781713226 13.090964942228881 0.003155779506359202 -1 0 0
1214 1 95.92968987861215 12.083630776471642 1.359906127213742 -1 0 0
1218 1 99.41803065862115 12.083630776471644 1.3599061272137405 -1 0 0
1216 4 97.6735373913136 13.090964942228883 0.003155779506358346 -1 0 0
1331 4 95.92936700130865 16.111956674773882 0.0031557795063583416 -1 0 0
1329 1 97.6738602686162 15.104622509016641 1.3599061272137425 -1 0 0
1335 4 99.41770778131765 16.11195667477388 0.003155779506360023 -1 0 0
1338 1 1.744488818369153 18.125614241561642 1.359906127213742 0 0 0
1342 1 5.232829598378155 18.125614241561642 1.359906127213742 0 0 0
1340 4 3.488336331070602 19.13294840731888 0.0031557795063592883 0 0 0
1453 1 3.4886592083731993 21.14660597410664 1.3599061272137416 0 0 0
1455 4 1.7441659410656467 22.15394013986388 0.0031557795063584804 0 0 0
1459 4 5.23250672107465 22.15394013986388 0.0031557795063592896 0 0 0
1449 1 0.00031842836419571086 21.14660597410664 1.3599061272137425 0 0 0
1346 1 8.721170378387153 18.125614241561642 1.3599061272137412 0 0 0
1344 4 6.9766771110796 19.13294840731888 0.003155779506358413 0 0 0
1348 4 10.465017891088603 19.13294840731888 0.0031557795063592237 0 0 0
1457 1 6.976999988382202 21.14660597410664 1.3599061272137423 0 0 0
1461 1 10.4653407683912 21.14660597410664 1.3599061272137416 0 0 0
1463 4 8.720847501083648 22.15394013986388 0.003155779506358351 0 0 0
1350 1 12.209511158396156 18.125614241561642 1.359906127213742 0 0 0
1354 1 15.697851938405153 18.125614241561642 1.359906127213742 0 0 0
1352 4 13.953358671097602 19.13294840731888 0.0031557795063584765 0 0 0
1356 4 17.441699451106597 19.13294840731888 0.0031557795063583464 0 0 0
1465 1 13.953681548400203 21.14660597410664 1.3599061272137425 0 0 0
1469 1 17.442022328409198 21.14660597410664 1.3599061272137423 0 0 0
1467 4 12.20918828109265 22.15394013986388 0.0031557795063592874 0 0 0
1471 4 15.69752906110165 22.15394013986388 0.0031557795063584756 0 0 0
1358 1 19.18619271841415 18.125614241561642 1.3599061272137403 0 0 0
1362 1 22.67453349842316 18.125614241561642 1.359906127213742 0 0 0
1360 4 20.930040231115605 19.13294840731888 0.0031557795063598937 0 0 0
1473 1 20.9303631084182 21.14660597410664 1.3599061272137407 0 0 0
1475 4 19.185869841110645 22.15394013986388 0.0031557795063582197 0 0 0
1479 4 22.674210621119652 22.15394013986388 0.0031557795063583403 0 0 0
1366 1 26.162874278432156 18.125614241561642 1.359906127213742 0 0 0
1370 1 29.651215058441153 18.125614241561642 1.3599061272137418 0 0 0
1364 4 24.418381011124605 19.13294840731888 0.003155779506358476 0 0 0
1368 4 27.906721791133602 19.13294840731888 0.003155779506358476 0 0 0
1477 1 24.4187038884272 21.14660597410664 1.3599061272137425 0 0 0
1481 1 27.907044668436203 21.14660597410664 1.3599061272137425 0 0 0
1483 4 26.162551401128653 22.15394013986388 0.003155779506360151 0 0 0
1487 4 29.65089218113765 22.15394013986388 0.003155779506358477 0 0 0
1374 1 33.13955583845015 18.125614241561642 1.3599061272137418 0 0 0
1372 4 31.3950625711426 19.13294840731888 0.003155779506358476 0 0 0
1376 4 34.8834033511516 19.13294840731888 0.0031557795063583477 0 0 0
1485 1 31.3953854484452 21.14660597410664 1.3599061272137423 0 0 0
1489 1 34.8837262284542 21.14660597410664 1.3599061272137423 0 0 0
1491 4 33.13923296114665 22.15394013986388 0.0031557795063584778 0 0 0
1378 1 36.627896618459154 18.125614241561642 1.3599061272137403 0 0 0
1382 1 40.11623739846816 18.125614241561642 1.3599061272137423 0 0 0
1380 4 38.371744131160604 19.13294840731888 0.0031557795063598937 0 0 0
1493 1 38.3720670084632 21.14660597410664 1.359906127213741 0 0 0
1495 4 36.62757374115564 22.15394013986388 0.0031557795063582206 0 0 0
1499 4 40.115914521164655 22.15394013986388 0.003155779506360023 0 0 0
1386 1 43.604578178477155 18.125614241561642 1.359906127213742 0 0 0
1390 1 47.09291895848615 18.125614241561642 1.3599061272137418 0 0 0
1384 4 41.86008491116961 19.13294840731888 0.003155779506358476 0 0 0
1388 4 45.348425691178605 19.13294840731888 0.0031557795063584743 0 0 0
1497 1 41.86040778847221 21.14660597410664 1.3599061272137425 0 0 0
1501 1 45.348748568481206 21.14660597410664 1.3599061272137423 0 0 0
1503 4 43.60425530117365 22.15394013986388 0.0031557795063584756 0 0 0
1507 4 47.09259608118265 22.15394013986388 0.003155779506358476 0 0 0
1278 1 50.58125973849515 18.125614241561642 1.359906127213741 -1 0 0
1392 4 48.8367664711876 19.13294840731888 0.003155779506358412 0 0 0
1280 4 52.3251072511966 19.13294840731888 0.003155779506358409 -1 0 0
1505 1 48.8370893484902 21.14660597410664 1.3599061272137423 0 0 0
1393 1 52.3254301284992 21.14660597410664 1.3599061272137423 -1 0 0
1395 4 50.580936861191645 22.15394013986388 0.0031557795063584144 -1 0 0
1282 1 54.06960051850415 18.125614241561642 1.359906127213742 -1 0 0
1286 1 57.55794129851315 18.125614241561642 1.3599061272137412 -1 0 0
1284 4 55.813448031205596 19.13294840731888 0.003155779506359224 -1 0 0
1288 4 59.3017888112146 19.13294840731888 0.0031557795063584084 -1 0 0
1397 1 55.8137709085082 21.14660597410664 1.3599061272137416 -1 0 0
1401 1 59.3021116885172 21.14660597410664 1.3599061272137423 -1 0 0
1399 4 54.06927764120064 22.15394013986388 0.0031557795063584136 -1 0 0
1403 4 57.557618421209646 22.15394013986388 0.0031557795063592254 -1 0 0
1290 1 61.046282078522154 18.125614241561642 1.359906127213742 -1 0 0
1294 1 64.53462285853115 18.125614241561642 1.359906127213742 -1 0 0
1292 4 62.7901295912236 19.13294840731888 0.0031557795063592857 -1 0 0
1405 1 62.7904524685262 21.14660597410664 1.3599061272137416 -1 0 0
1407 4 61.04595920121864 22.15394013986388 0.0031557795063584127 -1 0 0
1411 4 64.53429998122765 22.15394013986388 0.003155779506359287 -1 0 0
1298 1 68.02296363854015 18.125614241561642 1.3599061272137418 -1 0 0
1296 4 66.2784703712326 19.13294840731888 0.003155779506358476 -1 0 0
1300 4 69.7668111512416 19.13294840731888 0.003155779506358349 -1 0 0
1409 1 66.2787932485352 21.14660597410664 1.3599061272137423 -1 0 0
1413 1 69.76713402854419 21.14660597410664 1.3599061272137423 -1 0 0
1415 4 68.02264076123664 22.15394013986388 0.0031557795063584778 -1 0 0
1302 1 71.51130441854914 18.125614241561642 1.3599061272137403 -1 0 0
1306 1 74.99964519855816 18.125614241561642 1.3599061272137423 -1 0 0
1304 4 73.25515193125061 19.13294840731888 0.003155779506359894 -1 0 0
1308 4 76.7434927112596 19.13294840731888 0.0031557795063584756 -1 0 0
1417 1 73.2554748085532 21.14660597410664 1.359906127213741 -1 0 0
1421 1 76.7438155885622 21.14660597410664 1.3599061272137425 -1 0 0
1419 4 71.51098154124564 22.15394013986388 0.003155779506358222 -1 0 0
1423 4 74.99932232125465 22.15394013986388 0.003155779506360023 -1 0 0
1310 1 78.48798597856715 18.125614241561642 1.3599061272137418 -1 0 0
1314 1 81.97632675857615 18.125614241561642 1.3599061272137418 -1 0 0
1312 4 80.2318334912686 19.13294840731888 0.0031557795063584756 -1 0 0
1425 1 80.2321563685712 21.14660597410664 1.3599061272137423 -1 0 0
1427 4 78.48766310126365 22.15394013986388 0.003155779506358477 -1 0 0
1431 4 81.97600388127265 22.15394013986388 0.003155779506358477 -1 0 0
1318 1 85.46466753858515 18.125614241561642 1.3599061272137418 -1 0 0
1322 1 88.95300831859414 18.125614241561642 1.3599061272137418 -1 0 0
1316 4 83.7201742712776 19.13294840731888 0.003155779506358476 -1 0 0
1320 4 87.2085150512866 19.13294840731888 0.003155779506358477 -1 0 0
1429 1 83.7204971485802 21.14660597410664 1.3599061272137423 -1 0 0
1433 1 87.20883792858919 21.14660597410664 1.3599061272137423 -1 0 0
1435 4 85.46434466128164 22.15394013986388 0.0031557795063584778 -1 0 0
1439 4 88.95268544129064 22.15394013986388 0.003155779506358478 -1 0 0
1326 1 92.44134909860314 18.125614241561642 1.3599061272137403 -1 0 0