LAMMPS data file via write_data, version 29 Aug 2024, timestep = 1, units = metal

3944 atoms
4 atom types

0 101.161882620261 xlo xhi
0 102.71371890653 ylo yhi
-50 50 zlo zhi

Masses

1 72.63
2 72.63
3 32.06
4 32.06

Atoms # atomic

992 3 3.4883360200921807 1.006998065722433 0.0033711505737998426 0 0 0
1105 1 3.4886814663435484 3.0206323192470457 1.3597604142357367 0 0 0
1107 3 1.7441656300872288 4.0279897982674315 0.003371150573799971 0 0 0
1111 3 5.2325064100962315 4.0279897982674315 0.0033711505738007737 0 0 0
1101 1 0.0003406863345531974 3.0206323192470452 1.3597604142357376 0 0 0
996 3 6.976676800101179 1.0069980657224336 0.0033711505737989067 0 0 0
1000 3 10.465017580110182 1.006998065722433 0.003371150573799775 0 0 0
1109 1 6.977022246352551 3.0206323192470452 1.3597604142357376 0 0 0
1113 1 10.46536302636155 3.0206323192470457 1.3597604142357367 0 0 0
1115 3 8.72084719010523 4.0279897982674315 0.003371150573799832 0 0 0
1004 3 13.95335836011918 1.0069980657224336 0.0033711505737989743 0 0 0
1008 3 17.44169914012818 1.0069980657224336 0.003371150573798836 0 0 0
1117 1 13.953703806370552 3.0206323192470452 1.3597604142357376 0 0 0
1121 1 17.44204458637955 3.0206323192470452 1.3597604142357376 0 0 0
1119 3 12.209187970114233 4.0279897982674315 0.0033711505738007724 0 0 0
1123 3 15.697528750123231 4.0279897982674315 0.003371150573799967 0 0 0
1012 3 20.930039920137187 1.0069980657224324 0.0033711505738004905 0 0 0
1125 1 20.93038536638855 3.020632319247046 1.3597604142357358 0 0 0
1127 3 19.185869530132226 4.0279897982674315 0.0033711505737996934 0 0 0
1131 3 22.674210310141234 4.0279897982674315 0.0033711505737998365 0 0 0
1016 3 24.418380700146184 1.0069980657224336 0.0033711505737989743 0 0 0
1020 3 27.90672148015518 1.0069980657224336 0.0033711505737989743 0 0 0
1129 1 24.41872614639755 3.0206323192470452 1.3597604142357376 0 0 0
1133 1 27.907066926406554 3.0206323192470452 1.3597604142357376 0 0 0
1135 3 26.162551090150235 4.027989798267431 0.0033711505738017737 0 0 0
1139 3 29.65089187015923 4.0279897982674315 0.0033711505737999675 0 0 0
1024 3 31.395062260164178 1.0069980657224336 0.003371150573798974 0 0 0
1028 3 34.88340304017318 1.0069980657224336 0.0033711505737988373 0 0 0
1137 1 31.39540770641555 3.0206323192470452 1.3597604142357376 0 0 0
1141 1 34.88374848642455 3.0206323192470452 1.3597604142357376 0 0 0
1143 3 33.13923265016823 4.0279897982674315 0.003371150573799968 0 0 0
1032 3 38.37174382018218 1.0069980657224324 0.003371150573800491 0 0 0
1145 1 38.37208926643355 3.020632319247046 1.359760414235736 0 0 0
1147 3 36.62757343017723 4.0279897982674315 0.003371150573799694 0 0 0
1151 3 40.11591421018623 4.027989798267431 0.003371150573801636 0 0 0
1036 3 41.860084600191186 1.0069980657224336 0.003371150573798974 0 0 0
1040 3 45.34842538020018 1.0069980657224336 0.0033711505737989726 0 0 0
1149 1 41.86043004644255 3.0206323192470452 1.3597604142357376 0 0 0
1153 1 45.348770826451556 3.0206323192470452 1.3597604142357376 0 0 0
1155 3 43.60425499019524 4.0279897982674315 0.003371150573799966 0 0 0
1159 3 47.092595770204234 4.0279897982674315 0.003371150573799967 0 0 0
1044 3 48.83676616020918 1.0069980657224336 0.0033711505737989062 0 0 0
932 3 52.32510694021818 1.0069980657224336 0.0033711505737989028 -1 0 0
1157 1 48.83711160646055 3.0206323192470452 1.3597604142357376 0 0 0
1045 1 52.32545238646955 3.0206323192470452 1.3597604142357376 -1 0 0
1047 3 50.58093655021323 4.0279897982674315 0.0033711505737999002 -1 0 0
936 3 55.81344772022718 1.006998065722433 0.003371150573799775 -1 0 0
940 3 59.30178850023618 1.0069980657224336 0.003371150573798903 -1 0 0
1049 1 55.81379316647855 3.0206323192470457 1.3597604142357367 -1 0 0
1053 1 59.30213394648755 3.0206323192470452 1.3597604142357376 -1 0 0
1051 3 54.06927733022223 4.0279897982674315 0.0033711505737999 -1 0 0
1055 3 57.55761811023123 4.027989798267431 0.0033711505738007047 -1 0 0
944 3 62.790129280245175 1.006998065722433 0.003371150573799841 -1 0 0
1057 1 62.79047472649655 3.0206323192470457 1.3597604142357367 -1 0 0
1059 3 61.04595889024023 4.0279897982674315 0.0033711505737998985 -1 0 0
1063 3 64.53429967024923 4.0279897982674315 0.0033711505738007715 -1 0 0
948 3 66.27847006025418 1.0069980657224336 0.0033711505737989743 -1 0 0
952 3 69.76681084026318 1.0069980657224336 0.003371150573798838 -1 0 0
1061 1 66.27881550650555 3.0206323192470452 1.3597604142357376 -1 0 0
1065 1 69.76715628651455 3.0206323192470452 1.3597604142357376 -1 0 0
1067 3 68.02264045025822 4.0279897982674315 0.0033711505737999683 -1 0 0
956 3 73.25515162027219 1.0069980657224324 0.0033711505738004918 -1 0 0
960 3 76.74349240028118 1.0069980657224336 0.0033711505737989743 -1 0 0
1069 1 73.25549706652355 3.020632319247046 1.359760414235736 -1 0 0
1073 1 76.74383784653256 3.0206323192470452 1.3597604142357376 -1 0 0
1071 3 71.51098123026722 4.0279897982674315 0.0033711505737996947 -1 0 0
1075 3 74.99932201027623 4.027989798267431 0.003371150573801636 -1 0 0
964 3 80.23183318029018 1.0069980657224336 0.003371150573798974 -1 0 0
1077 1 80.23217862654155 3.0206323192470452 1.3597604142357376 -1 0 0
1079 3 78.48766279028523 4.0279897982674315 0.0033711505737999675 -1 0 0
1083 3 81.97600357029422 4.0279897982674315 0.0033711505737999675 -1 0 0
968 3 83.72017396029918 1.0069980657224336 0.003371150573798974 -1 0 0
972 3 87.20851474030817 1.0069980657224336 0.0033711505737989748 -1 0 0
1081 1 83.72051940655055 3.0206323192470452 1.3597604142357376 -1 0 0
1085 1 87.20886018655955 3.0206323192470452 1.3597604142357376 -1 0 0
1087 3 85.46434435030322 4.0279897982674315 0.0033711505737999683 -1 0 0
1091 3 88.95268513031222 4.0279897982674315 0.0033711505737999683 -1 0 0
976 3 90.69685552031717 1.0069980657224336 0.0033711505737988377 -1 0 0
980 3 94.18519630032618 1.0069980657224324 0.003371150573800492 -1 0 0
1089 1 90.69720096656854 3.0206323192470452 1.3597604142357376 -1 0 0
1093 1 94.18554174657754 3.020632319247046 1.3597604142357358 -1 0 0
1095 3 92.44102591032122 4.0279897982674315 0.0033711505737996947 -1 0 0
988 3 101.16187786034418 1.006998065722433 0.0033711505737997506 -1 0 0
984 3 97.67353708033518 1.0069980657224336 0.003371150573798836 -1 0 0
1097 1 97.67388252658654 3.0206323192470452 1.3597604142357376 -1 0 0
1099 3 95.92936669033023 4.0279897982674315 0.0033711505737998365 -1 0 0
1103 3 99.41770747033922 4.027989798267431 0.0033711505738016354 -1 0 0
1106 1 1.7445110763394986 6.041624051792045 1.3597604142357373 0 0 0
1108 3 3.4883360200921807 7.048981530812432 0.003371150573801804 0 0 0
1110 1 5.2328518563485 6.041624051792045 1.3597604142357373 0 0 0
1221 1 3.4886814663435484 9.062615784337048 1.359760414235737 0 0 0
1223 3 1.744165630087229 10.069973263357433 0.0033711505738000095 0 0 0
1227 3 5.2325064100962315 10.069973263357433 0.0033711505738008764 0 0 0
1217 1 0.0003406863345531974 9.062615784337048 1.3597604142357378 0 0 0
1112 3 6.976676800101179 7.048981530812433 0.0033711505738009307 0 0 0
1114 1 8.721192636357499 6.041624051792045 1.3597604142357365 0 0 0
1116 3 10.465017580110182 7.048981530812432 0.003371150573801735 0 0 0
1225 1 6.977022246352551 9.062615784337048 1.3597604142357378 0 0 0
1229 1 10.46536302636155 9.062615784337048 1.359760414235737 0 0 0
1231 3 8.72084719010523 10.069973263357433 0.003371150573799872 0 0 0
1118 1 12.2095334163665 6.041624051792045 1.3597604142357376 0 0 0
1120 3 13.95335836011918 7.048981530812433 0.0033711505738009983 0 0 0
1122 1 15.697874196375498 6.041624051792045 1.3597604142357373 0 0 0
1124 3 17.441699140128176 7.048981530812433 0.0033711505738008595 0 0 0
1233 1 13.953703806370552 9.062615784337048 1.3597604142357378 0 0 0
1237 1 17.44204458637955 9.062615784337048 1.3597604142357378 0 0 0
1235 3 12.209187970114233 10.069973263357433 0.0033711505738008743 0 0 0
1239 3 15.697528750123231 10.069973263357433 0.0033711505738000056 0 0 0
1126 1 19.1862149763845 6.041624051792046 1.3597604142357356 0 0 0
1128 3 20.930039920137183 7.048981530812431 0.003371150573802529 0 0 0
1130 1 22.674555756393506 6.041624051792044 1.3597604142357376 0 0 0
1241 1 20.93038536638855 9.06261578433705 1.359760414235736 0 0 0
1243 3 19.185869530132226 10.069973263357433 0.0033711505737997315 0 0 0
1247 3 22.674210310141234 10.069973263357433 0.003371150573799862 0 0 0
1132 3 24.418380700146184 7.048981530812433 0.003371150573800998 0 0 0
1134 1 26.162896536402503 6.041624051792045 1.3597604142357373 0 0 0
1136 3 27.90672148015518 7.048981530812433 0.003371150573800998 0 0 0
1138 1 29.6512373164115 6.041624051792045 1.3597604142357373 0 0 0
1245 1 24.41872614639755 9.062615784337048 1.3597604142357378 0 0 0
1249 1 27.907066926406554 9.062615784337048 1.359760414235738 0 0 0
1251 3 26.162551090150235 10.069973263357433 0.0033711505738017985 0 0 0
1255 3 29.65089187015923 10.069973263357433 0.0033711505738000073 0 0 0
1140 3 31.395062260164178 7.048981530812433 0.003371150573800998 0 0 0
1142 1 33.1395780964205 6.041624051792045 1.3597604142357373 0 0 0
1144 3 34.88340304017318 7.048981530812433 0.0033711505738008613 0 0 0
1253 1 31.39540770641555 9.062615784337048 1.3597604142357378 0 0 0
1257 1 34.88374848642455 9.062615784337048 1.3597604142357378 0 0 0
1259 3 33.13923265016823 10.069973263357433 0.0033711505738000073 0 0 0
1146 1 36.6279188764295 6.041624051792046 1.3597604142357356 0 0 0
1148 3 38.37174382018218 7.048981530812431 0.003371150573802529 0 0 0
1150 1 40.11625965643851 6.041624051792045 1.3597604142357376 0 0 0
1261 1 38.37208926643355 9.06261578433705 1.3597604142357362 0 0 0
1263 3 36.62757343017723 10.069973263357433 0.0033711505737997333 0 0 0
1267 3 40.11591421018623 10.069973263357433 0.0033711505738016605 0 0 0
1152 3 41.860084600191186 7.048981530812433 0.003371150573800998 0 0 0
1154 1 43.604600436447505 6.041624051792045 1.3597604142357373 0 0 0
1156 3 45.34842538020018 7.048981530812433 0.0033711505738009966 0 0 0
1158 1 47.0929412164565 6.041624051792045 1.3597604142357373 0 0 0
1265 1 41.86043004644255 9.062615784337048 1.359760414235738 0 0 0
1269 1 45.348770826451556 9.062615784337048 1.3597604142357378 0 0 0
1271 3 43.60425499019524 10.069973263357433 0.0033711505738000056 0 0 0
1275 3 47.092595770204234 10.069973263357433 0.0033711505738000056 0 0 0
1160 3 48.83676616020918 7.048981530812433 0.0033711505738009294 0 0 0
1046 1 50.5812819964655 6.041624051792045 1.3597604142357365 -1 0 0
1048 3 52.32510694021818 7.048981530812433 0.003371150573800933 -1 0 0
1273 1 48.83711160646055 9.062615784337048 1.3597604142357378 0 0 0
1161 1 52.32545238646955 9.062615784337048 1.3597604142357378 -1 0 0
1163 3 50.58093655021323 10.069973263357433 0.0033711505737999397 -1 0 0
1050 1 54.069622776474496 6.041624051792045 1.3597604142357373 -1 0 0
1052 3 55.81344772022718 7.048981530812432 0.0033711505738017356 -1 0 0
1054 1 57.5579635564835 6.041624051792045 1.3597604142357367 -1 0 0
1056 3 59.30178850023618 7.048981530812433 0.0033711505738009333 -1 0 0
1165 1 55.81379316647855 9.062615784337048 1.359760414235737 -1 0 0
1169 1 59.30213394648755 9.062615784337048 1.3597604142357378 -1 0 0
1167 3 54.06927733022223 10.069973263357433 0.0033711505737999393 -1 0 0
1171 3 57.55761811023123 10.069973263357433 0.0033711505738008075 -1 0 0
1058 1 61.0463043364925 6.041624051792045 1.3597604142357373 -1 0 0
1060 3 62.790129280245175 7.048981530812432 0.003371150573801802 -1 0 0
1062 1 64.5346451165015 6.041624051792045 1.3597604142357373 -1 0 0
1173 1 62.79047472649655 9.062615784337048 1.359760414235737 -1 0 0
1175 3 61.04595889024023 10.069973263357433 0.003371150573799939 -1 0 0
1179 3 64.53429967024923 10.069973263357433 0.0033711505738008734 -1 0 0
1066 1 68.02298589651049 6.041624051792045 1.3597604142357373 -1 0 0
1064 3 66.27847006025418 7.048981530812433 0.003371150573800998 -1 0 0
1068 3 69.76681084026318 7.048981530812433 0.003371150573800862 -1 0 0
1177 1 66.27881550650555 9.062615784337048 1.3597604142357378 -1 0 0
1181 1 69.76715628651455 9.062615784337048 1.3597604142357378 -1 0 0
1183 3 68.02264045025822 10.069973263357433 0.0033711505738000073 -1 0 0
1070 1 71.51132667651949 6.041624051792046 1.3597604142357356 -1 0 0
1072 3 73.25515162027219 7.048981530812431 0.0033711505738025296 -1 0 0
1074 1 74.9996674565285 6.041624051792045 1.3597604142357376 -1 0 0
1076 3 76.74349240028118 7.048981530812433 0.003371150573800998 -1 0 0
1185 1 73.25549706652355 9.06261578433705 1.3597604142357362 -1 0 0
1189 1 76.74383784653256 9.062615784337048 1.359760414235738 -1 0 0
1187 3 71.51098123026722 10.069973263357433 0.0033711505737997337 -1 0 0
1191 3 74.99932201027623 10.069973263357433 0.0033711505738016614 -1 0 0
1078 1 78.4880082365375 6.041624051792045 1.3597604142357373 -1 0 0
1080 3 80.23183318029018 7.048981530812433 0.003371150573800997 -1 0 0
1082 1 81.9763490165465 6.041624051792045 1.3597604142357373 -1 0 0
1193 1 80.23217862654155 9.062615784337048 1.3597604142357378 -1 0 0
1195 3 78.48766279028523 10.069973263357433 0.003371150573800007 -1 0 0
1199 3 81.97600357029422 10.069973263357433 0.0033711505738000065 -1 0 0
1084 3 83.72017396029918 7.048981530812433 0.003371150573800998 -1 0 0
1086 1 85.46468979655549 6.041624051792045 1.3597604142357373 -1 0 0
1088 3 87.20851474030817 7.048981530812433 0.0033711505738009987 -1 0 0
1090 1 88.95303057656449 6.041624051792045 1.3597604142357373 -1 0 0
1197 1 83.72051940655055 9.062615784337048 1.3597604142357378 -1 0 0
1201 1 87.20886018655955 9.062615784337048 1.3597604142357378 -1 0 0
1203 3 85.46434435030322 10.069973263357433 0.0033711505738000073 -1 0 0
1207 3 88.95268513031222 10.069973263357433 0.0033711505738000082 -1 0 0
1092 3 90.69685552031717 7.048981530812433 0.0033711505738008617 -1 0 0
1094 1 92.44137135657348 6.041624051792046 1.3597604142357356 -1 0 0
1096 3 94.18519630032618 7.048981530812431 0.0033711505738025296 -1 0 0
1205 1 90.69720096656854 9.062615784337048 1.3597604142357378 -1 0 0
1209 1 94.18554174657754 9.06261578433705 1.359760414235736 -1 0 0
1211 3 92.44102591032122 10.069973263357433 0.0033711505737997337 -1 0 0
1104 3 101.16187786034418 7.048981530812432 0.003371150573801859 -1 0 0
1098 1 95.9297121365825 6.041624051792044 1.3597604142357376 -1 0 0
1100 3 97.67353708033518 7.048981530812433 0.0033711505738008595 -1 0 0
1102 1 99.41805291659149 6.041624051792046 1.3597604142357358 -1 0 0
1213 1 97.67388252658654 9.062615784337048 1.3597604142357378 -1 0 0
1215 3 95.92936669033023 10.069973263357433 0.003371150573799862 -1 0 0
1219 3 99.41770747033922 10.069973263357431 0.0033711505738016605 -1 0 0
1222 1 1.7445110763394986 12.083607516882047 1.3597604142357373 0 0 0
1226 1 5.2328518563485 12.083607516882047 1.3597604142357373 0 0 0
1224 3 3.4883360200921807 13.090964995902432 0.0033711505738008743 0 0 0
1339 3 1.744165630087229 16.11195672844743 0.0033711505738000104 0 0 0
1337 1 3.4886814663435484 15.104599249427046 1.3597604142357367 0 0 0
1343 3 5.2325064100962315 16.11195672844743 0.003371150573800877 0 0 0
1333 1 0.0003406863345531974 15.104599249427046 1.3597604142357378 0 0 0
1230 1 8.721192636357499 12.083607516882047 1.3597604142357362 0 0 0
1228 3 6.976676800101179 13.090964995902432 0.003371150573799938 0 0 0
1232 3 10.465017580110182 13.090964995902432 0.0033711505738008058 0 0 0
1341 1 6.977022246352551 15.104599249427046 1.3597604142357376 0 0 0
1347 3 8.72084719010523 16.11195672844743 0.003371150573799872 0 0 0
1345 1 10.46536302636155 15.104599249427046 1.359760414235737 0 0 0
1234 1 12.2095334163665 12.083607516882047 1.3597604142357373 0 0 0
1238 1 15.697874196375498 12.083607516882047 1.3597604142357371 0 0 0
1236 3 13.95335836011918 13.090964995902432 0.0033711505738000056 0 0 0
1240 3 17.44169914012818 13.090964995902432 0.0033711505737998664 0 0 0
1351 3 12.209187970114233 16.11195672844743 0.003371150573800875 0 0 0
1349 1 13.953703806370552 15.104599249427046 1.3597604142357376 0 0 0
1355 3 15.697528750123231 16.11195672844743 0.0033711505738000056 0 0 0
1353 1 17.44204458637955 15.104599249427046 1.3597604142357376 0 0 0
1242 1 19.1862149763845 12.083607516882049 1.3597604142357356 0 0 0
1246 1 22.674555756393506 12.083607516882047 1.3597604142357373 0 0 0
1244 3 20.930039920137187 13.09096499590243 0.0033711505738015218 0 0 0
1359 3 19.185869530132226 16.11195672844743 0.003371150573799733 0 0 0
1357 1 20.93038536638855 15.104599249427048 1.359760414235736 0 0 0
1363 3 22.674210310141234 16.11195672844743 0.003371150573799862 0 0 0
1250 1 26.162896536402503 12.083607516882047 1.3597604142357373 0 0 0
1254 1 29.6512373164115 12.083607516882047 1.3597604142357371 0 0 0
1248 3 24.418380700146184 13.090964995902432 0.003371150573800005 0 0 0
1252 3 27.90672148015518 13.090964995902432 0.0033711505738000056 0 0 0
1361 1 24.41872614639755 15.104599249427046 1.3597604142357378 0 0 0
1367 3 26.162551090150235 16.11195672844743 0.0033711505738017985 0 0 0
1365 1 27.907066926406554 15.104599249427046 1.3597604142357378 0 0 0
1371 3 29.65089187015923 16.11195672844743 0.0033711505738000073 0 0 0
1258 1 33.1395780964205 12.083607516882047 1.3597604142357371 0 0 0
1256 3 31.395062260164178 13.090964995902432 0.003371150573800005 0 0 0
1260 3 34.88340304017318 13.090964995902432 0.003371150573799868 0 0 0
1369 1 31.39540770641555 15.104599249427046 1.3597604142357376 0 0 0
1373 1 34.88374848642455 15.104599249427046 1.3597604142357376 0 0 0
1375 3 33.13923265016823 16.11195672844743 0.0033711505738000082 0 0 0
1262 1 36.6279188764295 12.083607516882049 1.3597604142357356 0 0 0
1266 1 40.11625965643851 12.083607516882047 1.3597604142357376 0 0 0
1264 3 38.37174382018218 13.09096499590243 0.0033711505738015218 0 0 0
1379 3 36.62757343017723 16.11195672844743 0.0033711505737997333 0 0 0
1377 1 38.37208926643355 15.104599249427048 1.359760414235736 0 0 0
1383 3 40.11591421018623 16.11195672844743 0.0033711505738016605 0 0 0
1270 1 43.604600436447505 12.083607516882047 1.3597604142357371 0 0 0
1274 1 47.0929412164565 12.083607516882047 1.3597604142357371 0 0 0
1268 3 41.860084600191186 13.090964995902432 0.003371150573800005 0 0 0
1272 3 45.34842538020018 13.090964995902432 0.003371150573800004 0 0 0
1381 1 41.86043004644255 15.104599249427046 1.3597604142357378 0 0 0
1387 3 43.60425499019524 16.11195672844743 0.0033711505738000056 0 0 0
1385 1 45.348770826451556 15.104599249427046 1.3597604142357376 0 0 0
1391 3 47.092595770204234 16.11195672844743 0.003371150573800007 0 0 0
1162 1 50.5812819964655 12.083607516882047 1.3597604142357362 -1 0 0
1276 3 48.83676616020918 13.090964995902432 0.0033711505737999362 0 0 0
1164 3 52.32510694021818 13.090964995902432 0.0033711505737999336 -1 0 0
1389 1 48.83711160646055 15.104599249427046 1.3597604142357376 0 0 0
1279 3 50.58093655021323 16.11195672844743 0.00337115057379994 -1 0 0
1277 1 52.32545238646955 15.104599249427046 1.3597604142357376 -1 0 0
1166 1 54.069622776474496 12.083607516882047 1.3597604142357373 -1 0 0
1170 1 57.5579635564835 12.083607516882047 1.3597604142357365 -1 0 0
1168 3 55.81344772022718 13.090964995902432 0.0033711505738008066 -1 0 0
1172 3 59.30178850023618 13.090964995902432 0.0033711505737999336 -1 0 0
1283 3 54.06927733022223 16.11195672844743 0.0033711505737999397 -1 0 0
1281 1 55.81379316647855 15.104599249427046 1.3597604142357367 -1 0 0
1287 3 57.55761811023123 16.11195672844743 0.003371150573800808 -1 0 0
1285 1 59.30213394648755 15.104599249427046 1.3597604142357376 -1 0 0
1174 1 61.0463043364925 12.083607516882047 1.3597604142357373 -1 0 0
1178 1 64.5346451165015 12.083607516882047 1.3597604142357373 -1 0 0
1176 3 62.790129280245175 13.090964995902432 0.0033711505738008717 -1 0 0
1291 3 61.04595889024023 16.11195672844743 0.003371150573799939 -1 0 0
1289 1 62.79047472649655 15.104599249427046 1.359760414235737 -1 0 0
1295 3 64.53429967024923 16.11195672844743 0.0033711505738008747 -1 0 0
1182 1 68.02298589651049 12.083607516882047 1.3597604142357371 -1 0 0
1180 3 66.27847006025418 13.090964995902432 0.0033711505738000056 -1 0 0
1184 3 69.76681084026318 13.090964995902432 0.003371150573799869 -1 0 0
1293 1 66.27881550650555 15.104599249427046 1.3597604142357376 -1 0 0
1299 3 68.02264045025822 16.11195672844743 0.0033711505738000082 -1 0 0
1297 1 69.76715628651455 15.104599249427046 1.3597604142357376 -1 0 0
1186 1 71.51132667651949 12.083607516882049 1.3597604142357356 -1 0 0
1190 1 74.9996674565285 12.083607516882047 1.3597604142357376 -1 0 0
1188 3 73.25515162027219 13.09096499590243 0.003371150573801523 -1 0 0
1192 3 76.74349240028118 13.090964995902432 0.003371150573800005 -1 0 0
1303 3 71.51098123026722 16.11195672844743 0.0033711505737997346 -1 0 0
1301 1 73.25549706652355 15.104599249427048 1.359760414235736 -1 0 0
1307 3 74.99932201027623 16.11195672844743 0.0033711505738016614 -1 0 0
1305 1 76.74383784653256 15.104599249427046 1.3597604142357378 -1 0 0
1194 1 78.4880082365375 12.083607516882047 1.3597604142357371 -1 0 0
1198 1 81.9763490165465 12.083607516882047 1.3597604142357371 -1 0 0
1196 3 80.23183318029018 13.090964995902432 0.003371150573800005 -1 0 0
1311 3 78.48766279028523 16.11195672844743 0.003371150573800007 -1 0 0
1309 1 80.23217862654155 15.104599249427046 1.3597604142357376 -1 0 0
1315 3 81.97600357029422 16.11195672844743 0.0033711505738000073 -1 0 0
1202 1 85.46468979655549 12.083607516882047 1.3597604142357371 -1 0 0
1206 1 88.95303057656449 12.083607516882047 1.3597604142357371 -1 0 0
1200 3 83.72017396029918 13.090964995902432 0.0033711505738000056 -1 0 0
1204 3 87.20851474030817 13.090964995902432 0.003371150573800007 -1 0 0
1313 1 83.72051940655055 15.104599249427046 1.3597604142357376 -1 0 0
1319 3 85.46434435030322 16.11195672844743 0.0033711505738000082 -1 0 0
1317 1 87.20886018655955 15.104599249427046 1.3597604142357376 -1 0 0
1323 3 88.95268513031222 16.11195672844743 0.0033711505738000087 -1 0 0
1210 1 92.44137135657348 12.083607516882049 1.3597604142357356 -1 0 0
1208 3 90.69685552031717 13.090964995902432 0.00337115057379987 -1 0 0
1212 3 94.18519630032618 13.09096499590243 0.003371150573801523 -1 0 0
1321 1 90.69720096656854 15.104599249427046 1.3597604142357376 -1 0 0
1327 3 92.44102591032122 16.11195672844743 0.0033711505737997346 -1 0 0
1325 1 94.18554174657754 15.104599249427048 1.359760414235736 -1 0 0
1220 3 101.16187786034418 13.090964995902432 0.0033711505738007828 -1 0 0
1214 1 95.9297121365825 12.083607516882047 1.3597604142357373 -1 0 0
1218 1 99.41805291659149 12.083607516882049 1.3597604142357356 -1 0 0
1216 3 97.67353708033518 13.090964995902432 0.0033711505737998664 -1 0 0
1331 3 95.92936669033023 16.11195672844743 0.003371150573799862 -1 0 0
1329 1 97.67388252658654 15.104599249427046 1.3597604142357378 -1 0 0
1335 3 99.41770747033922 16.11195672844743 0.0033711505738016605 -1 0 0
1338 1 1.7445110763394986 18.125590981972046 1.3597604142357373 0 0 0
1342 1 5.2328518563485 18.125590981972046 1.3597604142357373 0 0 0
1340 3 3.4883360200921807 19.13294846099243 0.0033711505738008747 0 0 0
1453 1 3.4886814663435484 21.146582714517045 1.3597604142357367 0 0 0
1455 3 1.744165630087229 22.15394019353743 0.0033711505738000104 0 0 0
1459 3 5.2325064100962315 22.15394019353743 0.0033711505738008764 0 0 0
1449 1 0.0003406863345531974 21.146582714517045 1.3597604142357378 0 0 0
1346 1 8.721192636357499 18.125590981972046 1.3597604142357362 0 0 0
1344 3 6.976676800101179 19.13294846099243 0.003371150573799939 0 0 0
1348 3 10.465017580110182 19.13294846099243 0.0033711505738008058 0 0 0
1457 1 6.977022246352551 21.146582714517045 1.3597604142357376 0 0 0
1461 1 10.46536302636155 21.146582714517045 1.359760414235737 0 0 0
1463 3 8.72084719010523 22.15394019353743 0.003371150573799872 0 0 0
1350 1 12.2095334163665 18.125590981972046 1.3597604142357373 0 0 0
1354 1 15.697874196375498 18.125590981972046 1.3597604142357371 0 0 0
1352 3 13.95335836011918 19.13294846099243 0.0033711505738000065 0 0 0
1356 3 17.44169914012818 19.13294846099243 0.003371150573799867 0 0 0
1465 1 13.953703806370552 21.146582714517045 1.3597604142357376 0 0 0
1469 1 17.44204458637955 21.146582714517045 1.3597604142357376 0 0 0
1467 3 12.209187970114233 22.15394019353743 0.0033711505738008743 0 0 0
1471 3 15.697528750123231 22.15394019353743 0.003371150573800005 0 0 0
1358 1 19.1862149763845 18.125590981972046 1.3597604142357356 0 0 0
1362 1 22.674555756393506 18.125590981972046 1.3597604142357373 0 0 0
1360 3 20.930039920137187 19.13294846099243 0.0033711505738015226 0 0 0
1473 1 20.93038536638855 21.146582714517045 1.359760414235736 0 0 0
1475 3 19.185869530132226 22.15394019353743 0.0033711505737997315 0 0 0
1479 3 22.674210310141234 22.15394019353743 0.0033711505737998608 0 0 0
1366 1 26.162896536402503 18.125590981972046 1.3597604142357373 0 0 0
1370 1 29.6512373164115 18.125590981972046 1.3597604142357371 0 0 0
1364 3 24.418380700146184 19.13294846099243 0.0033711505738000056 0 0 0
1368 3 27.90672148015518 19.13294846099243 0.0033711505738000056 0 0 0
1477 1 24.41872614639755 21.146582714517045 1.3597604142357378 0 0 0
1481 1 27.907066926406554 21.146582714517045 1.3597604142357378 0 0 0
1483 3 26.162551090150235 22.15394019353743 0.003371150573801798 0 0 0
1487 3 29.65089187015923 22.15394019353743 0.003371150573800007 0 0 0
1374 1 33.1395780964205 18.125590981972046 1.3597604142357371 0 0 0
1372 3 31.395062260164178 19.13294846099243 0.0033711505738000056 0 0 0
1376 3 34.88340304017318 19.13294846099243 0.0033711505737998686 0 0 0
1485 1 31.39540770641555 21.146582714517045 1.3597604142357376 0 0 0
1489 1 34.88374848642455 21.146582714517045 1.3597604142357376 0 0 0
1491 3 33.13923265016823 22.15394019353743 0.0033711505738000073 0 0 0
1378 1 36.6279188764295 18.125590981972046 1.3597604142357356 0 0 0
1382 1 40.11625965643851 18.125590981972046 1.3597604142357376 0 0 0
1380 3 38.37174382018218 19.13294846099243 0.0033711505738015226 0 0 0
1493 1 38.37208926643355 21.146582714517045 1.359760414235736 0 0 0
1495 3 36.62757343017723 22.15394019353743 0.003371150573799733 0 0 0
1499 3 40.11591421018623 22.15394019353743 0.0033711505738016605 0 0 0
1386 1 43.604600436447505 18.125590981972046 1.3597604142357371 0 0 0
1390 1 47.0929412164565 18.125590981972046 1.3597604142357371 0 0 0
1384 3 41.860084600191186 19.13294846099243 0.0033711505738000056 0 0 0
1388 3 45.34842538020018 19.13294846099243 0.003371150573800004 0 0 0
1497 1 41.86043004644255 21.146582714517045 1.3597604142357378 0 0 0
1501 1 45.348770826451556 21.146582714517045 1.3597604142357376 0 0 0
1503 3 43.60425499019524 22.15394019353743 0.003371150573800005 0 0 0
1507 3 47.092595770204234 22.15394019353743 0.0033711505738000056 0 0 0
1278 1 50.5812819964655 18.125590981972046 1.3597604142357362 -1 0 0
1392 3 48.83676616020918 19.13294846099243 0.003371150573799937 0 0 0
1280 3 52.32510694021818 19.13294846099243 0.003371150573799934 -1 0 0
1505 1 48.83711160646055 21.146582714517045 1.3597604142357376 0 0 0
1393 1 52.32545238646955 21.146582714517045 1.3597604142357376 -1 0 0
1395 3 50.58093655021323 22.15394019353743 0.0033711505737999397 -1 0 0
1282 1 54.069622776474496 18.125590981972046 1.3597604142357373 -1 0 0
1286 1 57.5579635564835 18.125590981972046 1.3597604142357365 -1 0 0
1284 3 55.81344772022718 19.13294846099243 0.0033711505738008066 -1 0 0
1288 3 59.30178850023618 19.13294846099243 0.0033711505737999336 -1 0 0
1397 1 55.81379316647855 21.146582714517045 1.3597604142357367 -1 0 0
1401 1 59.30213394648755 21.146582714517045 1.3597604142357376 -1 0 0
1399 3 54.06927733022223 22.15394019353743 0.0033711505737999393 -1 0 0
1403 3 57.55761811023123 22.15394019353743 0.0033711505738008075 -1 0 0
1290 1 61.0463043364925 18.125590981972046 1.3597604142357373 -1 0 0
1294 1 64.5346451165015 18.125590981972046 1.3597604142357373 -1 0 0
1292 3 62.790129280245175 19.13294846099243 0.0033711505738008717 -1 0 0
1405 1 62.79047472649655 21.146582714517045 1.359760414235737 -1 0 0
1407 3 61.04595889024023 22.15394019353743 0.003371150573799938 -1 0 0
1411 3 64.53429967024923 22.15394019353743 0.0033711505738008734 -1 0 0
1298 1 68.02298589651049 18.125590981972046 1.3597604142357371 -1 0 0
1296 3 66.27847006025418 19.13294846099243 0.0033711505738000056 -1 0 0
1300 3 69.76681084026318 19.13294846099243 0.00337115057379987 -1 0 0
1409 1 66.27881550650555 21.146582714517045 1.3597604142357376 -1 0 0
1413 1 69.76715628651455 21.146582714517045 1.3597604142357376 -1 0 0
1415 3 68.02264045025822 22.15394019353743 0.0033711505738000073 -1 0 0
1302 1 71.51132667651949 18.125590981972046 1.3597604142357356 -1 0 0
1306 1 74.9996674565285 18.125590981972046 1.3597604142357376 -1 0 0
1304 3 73.25515162027219 19.13294846099243 0.003371150573801523 -1 0 0
1308 3 76.74349240028118 19.13294846099243 0.003371150573800005 -1 0 0
1417 1 73.25549706652355 21.146582714517045 1.359760414235736 -1 0 0
1421 1 76.74383784653256 21.146582714517045 1.3597604142357378 -1 0 0
1419 3 71.51098123026722 22.15394019353743 0.0033711505737997337 -1 0 0
1423 3 74.99932201027623 22.15394019353743 0.0033711505738016605 -1 0 0
1310 1 78.4880082365375 18.125590981972046 1.3597604142357371 -1 0 0
1314 1 81.9763490165465 18.125590981972046 1.3597604142357371 -1 0 0
1312 3 80.23183318029018 19.13294846099243 0.003371150573800005 -1 0 0
1425 1 80.23217862654155 21.146582714517045 1.3597604142357376 -1 0 0
1427 3 78.48766279028523 22.15394019353743 0.003371150573800007 -1 0 0
1431 3 81.97600357029422 22.15394019353743 0.003371150573800007 -1 0 0
1318 1 85.46468979655549 18.125590981972046 1.3597604142357371 -1 0 0
1322 1 88.95303057656449 18.125590981972046 1.3597604142357371 -1 0 0
1316 3 83.72017396029918 19.13294846099243 0.0033711505738000056 -1 0 0
1320 3 87.20851474030817 19.13294846099243 0.003371150573800007 -1 0 0
1429 1 83.72051940655055 21.146582714517045 1.3597604142357376 -1 0 0
1433 1 87.20886018655955 21.146582714517045 1.3597604142357376 -1 0 0
1435 3 85.46434435030322 22.15394019353743 0.0033711505738000073 -1 0 0
1439 3 88.95268513031222 22.15394019353743 0.0033711505738000082 -1 0 0