LAMMPS data file via write_data, version 29 Aug 2024, timestep = 2, units = metal

6120 atoms
6 atom types

0 101.32657272489 xlo xhi
0 99.451570865926 ylo yhi
-50 50 zlo zhi

Masses

1 92.90637
2 92.90637
3 32.06
4 32.06
5 32.06
6 32.06

Atoms # atomic

1534 4 1.688776212081732 1.9500289322726772 0.017837685681362844 0 0 0
1711 1 2.3904508118760744e-14 2.924611248936232 1.5357784000233103 0 0 0
1717 1 3.377552424163028 2.9246112489362313 1.5357784000233092 0 0 0
1540 4 5.0663286362447355 1.9500289322726772 0.01783768568136281 0 0 0
1713 4 1.6100062117068784e-13 4.875075134211677 0.017837685681364412 0 0 0
1719 4 3.377552424163163 4.875075134211677 0.01783768568136434 0 0 0
1712 1 1.6887762120815875 5.849657450875231 1.5357784000233106 0 0 0
1718 1 5.066328636244588 5.849657450875231 1.5357784000233108 0 0 0
1723 1 6.755104848326028 2.9246112489362317 1.5357784000233097 0 0 0
1546 4 8.443881060407735 1.9500289322726772 0.017837685681362948 0 0 0
1729 1 10.132657272489027 2.9246112489362317 1.53577840002331 0 0 0
1552 4 11.821433484570735 1.9500289322726778 0.017837685681363926 0 0 0
1725 4 6.755104848326164 4.875075134211676 0.01783768568136371 0 0 0
1731 4 10.132657272489164 4.875075134211676 0.017837685681363905 0 0 0
1724 1 8.443881060407588 5.849657450875231 1.5357784000233108 0 0 0
1730 1 11.82143348457059 5.849657450875232 1.5357784000233108 0 0 0
1735 1 13.510209696652028 2.924611248936232 1.5357784000233106 0 0 0
1558 4 15.198985908733734 1.9500289322726772 0.017837685681363246 0 0 0
1741 1 16.887762120815026 2.9246112489362317 1.53577840002331 0 0 0
1737 4 13.510209696652165 4.875075134211675 0.017837685681363215 0 0 0
1743 4 16.887762120815164 4.875075134211676 0.017837685681363832 0 0 0
1736 1 15.19898590873359 5.849657450875231 1.5357784000233108 0 0 0
1564 4 18.57653833289673 1.9500289322726772 0.01783768568136305 0 0 0
1747 1 20.265314544978025 2.9246112489362317 1.5357784000233097 0 0 0
1570 4 21.95409075705973 1.9500289322726772 0.01783768568136306 0 0 0
1753 1 23.642866969141025 2.9246112489362317 1.5357784000233097 0 0 0
1749 4 20.265314544978164 4.875075134211676 0.01783768568136371 0 0 0
1755 4 23.642866969141163 4.875075134211676 0.01783768568136367 0 0 0
1742 1 18.57653833289659 5.849657450875231 1.5357784000233108 0 0 0
1748 1 21.95409075705959 5.849657450875231 1.5357784000233108 0 0 0
1576 4 25.33164318122273 1.9500289322726772 0.017837685681362757 0 0 0
1759 1 27.020419393304028 2.924611248936231 1.5357784000233086 0 0 0
1582 4 28.709195605385737 1.9500289322726772 0.017837685681362486 0 0 0
1761 4 27.020419393304167 4.875075134211678 0.017837685681364828 0 0 0
1754 1 25.33164318122259 5.849657450875231 1.535778400023311 0 0 0
1760 1 28.70919560538559 5.849657450875231 1.5357784000233108 0 0 0
1765 1 30.397971817467027 2.9246112489362317 1.53577840002331 0 0 0
1588 4 32.08674802954874 1.9500289322726772 0.01783768568136295 0 0 0
1771 1 33.77552424163003 2.9246112489362317 1.53577840002331 0 0 0
1594 4 35.464300453711736 1.9500289322726772 0.01783768568136295 0 0 0
1767 4 30.39797181746717 4.875075134211676 0.01783768568136364 0 0 0
1773 4 33.775524241630166 4.875075134211676 0.017837685681363687 0 0 0
1766 1 32.086748029548595 5.849657450875231 1.5357784000233106 0 0 0
1772 1 35.46430045371159 5.849657450875232 1.5357784000233108 0 0 0
1777 1 37.15307666579303 2.9246112489362317 1.53577840002331 0 0 0
1600 4 38.841852877874736 1.9500289322726772 0.01783768568136295 0 0 0
1783 1 40.53062908995603 2.9246112489362317 1.53577840002331 0 0 0
1779 4 37.153076665793165 4.875075134211676 0.017837685681363687 0 0 0
1785 4 40.530629089956165 4.875075134211676 0.017837685681363687 0 0 0
1778 1 38.84185287787459 5.849657450875232 1.5357784000233108 0 0 0
1606 4 42.219405302037735 1.9500289322726772 0.017837685681362955 0 0 0
1789 1 43.90818151411903 2.9246112489362317 1.53577840002331 0 0 0
1612 4 45.596957726200735 1.9500289322726772 0.01783768568136295 0 0 0
1795 1 47.28573393828203 2.9246112489362317 1.53577840002331 0 0 0
1791 4 43.908181514119164 4.875075134211676 0.017837685681363687 0 0 0
1797 4 47.28573393828216 4.875075134211676 0.0178376856813637 0 0 0
1784 1 42.219405302037586 5.849657450875232 1.5357784000233108 0 0 0
1790 1 45.596957726200586 5.849657450875232 1.5357784000233108 0 0 0
1618 4 48.974510150363734 1.9500289322726776 0.017837685681363416 0 0 0
1444 4 52.352062574526734 1.9500289322726774 0.017837685681363413 -1 0 0
1621 1 50.66328636244503 2.9246112489362326 1.5357784000233112 -1 0 0
1623 4 50.66328636244516 4.875075134211675 0.017837685681363184 -1 0 0
1796 1 48.974510150363585 5.849657450875232 1.5357784000233108 0 0 0
1622 1 52.352062574526585 5.849657450875232 1.5357784000233112 -1 0 0
1627 1 54.04083878660803 2.9246112489362317 1.5357784000233097 -1 0 0
1450 4 55.72961499868973 1.9500289322726772 0.017837685681363038 -1 0 0
1633 1 57.41839121077103 2.9246112489362317 1.53577840002331 -1 0 0
1456 4 59.10716742285273 1.9500289322726772 0.01783768568136303 -1 0 0
1629 4 54.040838786608155 4.875075134211676 0.017837685681363777 -1 0 0
1635 4 57.418391210771155 4.875075134211676 0.017837685681363718 -1 0 0
1628 1 55.729614998689584 5.849657450875232 1.5357784000233108 -1 0 0
1634 1 59.107167422852584 5.849657450875232 1.5357784000233108 -1 0 0
1639 1 60.79594363493403 2.9246112489362317 1.53577840002331 -1 0 0
1462 4 62.48471984701573 1.950028932272678 0.01783768568136422 -1 0 0
1645 1 64.17349605909703 2.9246112489362317 1.5357784000233092 -1 0 0
1641 4 60.79594363493416 4.875075134211676 0.01783768568136361 -1 0 0
1647 4 64.17349605909716 4.875075134211677 0.017837685681364155 -1 0 0
1640 1 62.48471984701559 5.849657450875232 1.5357784000233108 -1 0 0
1468 4 65.86227227117874 1.950028932272677 0.017837685681362417 -1 0 0
1651 1 67.55104848326003 2.9246112489362313 1.535778400023309 -1 0 0
1474 4 69.23982469534174 1.9500289322726772 0.017837685681363118 -1 0 0
1657 1 70.92860090742303 2.9246112489362326 1.5357784000233106 -1 0 0
1653 4 67.55104848326016 4.875075134211678 0.017837685681364783 -1 0 0
1659 4 70.92860090742316 4.875075134211675 0.01783768568136253 -1 0 0
1646 1 65.8622722711786 5.849657450875231 1.535778400023311 -1 0 0
1652 1 69.2398246953416 5.849657450875232 1.5357784000233108 -1 0 0
1480 4 72.61737711950474 1.9500289322726772 0.01783768568136314 -1 0 0
1663 1 74.30615333158603 2.9246112489362313 1.535778400023309 -1 0 0
1486 4 75.99492954366774 1.9500289322726772 0.017837685681363114 -1 0 0
1665 4 74.30615333158616 4.875075134211678 0.017837685681364804 -1 0 0
1658 1 72.6173771195046 5.849657450875232 1.535778400023311 -1 0 0
1664 1 75.9949295436676 5.849657450875232 1.5357784000233108 -1 0 0
1669 1 77.68370575574903 2.9246112489362326 1.5357784000233106 -1 0 0
1492 4 79.37248196783074 1.9500289322726772 0.017837685681363145 -1 0 0
1675 1 81.06125817991203 2.9246112489362313 1.535778400023309 -1 0 0
1498 4 82.75003439199374 1.9500289322726772 0.01783768568136311 -1 0 0
1671 4 77.68370575574916 4.875075134211675 0.01783768568136253 -1 0 0
1677 4 81.06125817991216 4.875075134211678 0.017837685681364804 -1 0 0
1670 1 79.3724819678306 5.849657450875232 1.535778400023311 -1 0 0
1676 1 82.7500343919936 5.849657450875232 1.5357784000233108 -1 0 0
1681 1 84.43881060407503 2.9246112489362326 1.5357784000233106 -1 0 0
1504 4 86.12758681615674 1.9500289322726772 0.017837685681363145 -1 0 0
1687 1 87.81636302823803 2.9246112489362313 1.535778400023309 -1 0 0
1683 4 84.43881060407516 4.875075134211675 0.01783768568136253 -1 0 0
1689 4 87.81636302823816 4.875075134211678 0.017837685681364804 -1 0 0
1682 1 86.1275868161566 5.849657450875232 1.535778400023311 -1 0 0
1510 4 89.50513924031974 1.9500289322726772 0.01783768568136311 -1 0 0
1693 1 91.19391545240103 2.9246112489362326 1.5357784000233106 -1 0 0
1516 4 92.88269166448273 1.9500289322726774 0.017837685681363496 -1 0 0
1699 1 94.57146787656403 2.924611248936232 1.5357784000233097 -1 0 0
1695 4 91.19391545240116 4.875075134211675 0.01783768568136253 -1 0 0
1701 4 94.57146787656416 4.875075134211678 0.017837685681365057 -1 0 0
1688 1 89.5051392403196 5.849657450875232 1.5357784000233108 -1 0 0
1694 1 92.88269166448259 5.849657450875232 1.5357784000233108 -1 0 0
1522 4 96.26024408864573 1.9500289322726774 0.017837685681363125 -1 0 0
1705 1 97.94902030072703 2.924611248936232 1.5357784000233097 -1 0 0
1528 4 99.63779651280873 1.9500289322726772 0.017837685681362975 -1 0 0
1707 4 97.94902030072716 4.875075134211675 0.017837685681362358 -1 0 0
1700 1 96.26024408864559 5.849657450875232 1.5357784000233108 -1 0 0
1706 1 99.63779651280859 5.849657450875231 1.5357784000233108 -1 0 0
1714 4 1.688776212081732 7.800121336150675 0.01783768568136223 0 0 0
1891 1 2.3856646761069108e-14 8.774703652814232 1.5357784000233097 0 0 0
1897 1 3.377552424163028 8.774703652814232 1.5357784000233083 0 0 0
1720 4 5.0663286362447355 7.800121336150675 0.017837685681362122 0 0 0
1893 4 1.6098776756604648e-13 10.725167538089678 0.017837685681363704 0 0 0
1899 4 3.377552424163163 10.725167538089678 0.01783768568136348 0 0 0
1892 1 1.6887762120815875 11.69974985475323 1.5357784000233101 0 0 0
1898 1 5.066328636244588 11.69974985475323 1.5357784000233101 0 0 0
1903 1 6.755104848326028 8.774703652814232 1.5357784000233088 0 0 0
1726 4 8.443881060407735 7.800121336150675 0.017837685681362396 0 0 0
1909 1 10.132657272489027 8.774703652814232 1.5357784000233092 0 0 0
1732 4 11.821433484570735 7.800121336150676 0.017837685681363343 0 0 0
1905 4 6.755104848326164 10.725167538089677 0.017837685681362892 0 0 0
1911 4 10.132657272489164 10.725167538089677 0.017837685681363083 0 0 0
1904 1 8.443881060407588 11.69974985475323 1.5357784000233101 0 0 0
1910 1 11.82143348457059 11.69974985475323 1.5357784000233101 0 0 0
1915 1 13.510209696652028 8.774703652814233 1.5357784000233097 0 0 0
1738 4 15.198985908733734 7.800121336150675 0.017837685681362722 0 0 0
1921 1 16.887762120815026 8.774703652814232 1.535778400023309 0 0 0
1917 4 13.510209696652165 10.725167538089677 0.01783768568136228 0 0 0
1923 4 16.887762120815164 10.725167538089677 0.017837685681363187 0 0 0
1916 1 15.19898590873359 11.69974985475323 1.53577840002331 0 0 0
1744 4 18.57653833289673 7.800121336150675 0.017837685681362375 0 0 0
1927 1 20.265314544978025 8.774703652814232 1.535778400023309 0 0 0
1750 4 21.95409075705973 7.800121336150675 0.017837685681362375 0 0 0
1933 1 23.642866969141025 8.774703652814232 1.535778400023309 0 0 0
1929 4 20.265314544978164 10.725167538089677 0.017837685681363027 0 0 0
1935 4 23.642866969141163 10.725167538089677 0.017837685681362982 0 0 0
1922 1 18.57653833289659 11.69974985475323 1.53577840002331 0 0 0
1928 1 21.95409075705959 11.69974985475323 1.53577840002331 0 0 0
1756 4 25.33164318122273 7.800121336150675 0.01783768568136203 0 0 0
1939 1 27.020419393304028 8.774703652814232 1.5357784000233077 0 0 0
1762 4 28.709195605385737 7.800121336150675 0.017837685681361827 0 0 0
1941 4 27.020419393304167 10.725167538089678 0.017837685681363954 0 0 0
1934 1 25.33164318122259 11.69974985475323 1.53577840002331 0 0 0
1940 1 28.70919560538559 11.69974985475323 1.53577840002331 0 0 0
1945 1 30.397971817467027 8.774703652814232 1.535778400023309 0 0 0
1768 4 32.08674802954874 7.800121336150675 0.01783768568136241 0 0 0
1951 1 33.77552424163003 8.774703652814232 1.535778400023309 0 0 0
1774 4 35.464300453711736 7.800121336150675 0.01783768568136241 0 0 0
1947 4 30.39797181746717 10.725167538089677 0.01783768568136293 0 0 0
1953 4 33.775524241630166 10.725167538089677 0.017837685681362975 0 0 0
1946 1 32.086748029548595 11.69974985475323 1.5357784000233097 0 0 0
1952 1 35.46430045371159 11.69974985475323 1.53577840002331 0 0 0
1957 1 37.15307666579303 8.774703652814232 1.535778400023309 0 0 0
1780 4 38.841852877874736 7.800121336150675 0.01783768568136241 0 0 0
1963 1 40.53062908995603 8.774703652814232 1.535778400023309 0 0 0
1959 4 37.153076665793165 10.725167538089677 0.017837685681362975 0 0 0
1965 4 40.530629089956165 10.725167538089677 0.017837685681362975 0 0 0
1958 1 38.84185287787459 11.69974985475323 1.53577840002331 0 0 0
1786 4 42.219405302037735 7.800121336150675 0.01783768568136241 0 0 0
1969 1 43.90818151411903 8.774703652814232 1.535778400023309 0 0 0
1792 4 45.596957726200735 7.800121336150675 0.017837685681362406 0 0 0
1975 1 47.28573393828203 8.774703652814232 1.535778400023309 0 0 0
1971 4 43.908181514119164 10.725167538089677 0.017837685681362975 0 0 0
1977 4 47.28573393828216 10.725167538089677 0.017837685681362986 0 0 0
1964 1 42.219405302037586 11.69974985475323 1.53577840002331 0 0 0
1970 1 45.596957726200586 11.69974985475323 1.53577840002331 0 0 0
1798 4 48.974510150363734 7.800121336150675 0.017837685681362785 0 0 0
1624 4 52.352062574526734 7.800121336150675 0.01783768568136286 -1 0 0
1801 1 50.66328636244503 8.774703652814233 1.5357784000233103 -1 0 0
1803 4 50.66328636244516 10.725167538089677 0.01783768568136257 -1 0 0
1976 1 48.974510150363585 11.69974985475323 1.53577840002331 0 0 0
1802 1 52.352062574526585 11.69974985475323 1.5357784000233106 -1 0 0
1807 1 54.04083878660803 8.774703652814232 1.535778400023309 -1 0 0
1630 4 55.72961499868973 7.800121336150675 0.01783768568136231 -1 0 0
1813 1 57.41839121077103 8.774703652814232 1.535778400023309 -1 0 0
1636 4 59.10716742285273 7.800121336150675 0.0178376856813623 -1 0 0
1809 4 54.04083878660816 10.725167538089677 0.01783768568136308 -1 0 0
1815 4 57.418391210771155 10.725167538089677 0.017837685681363024 -1 0 0
1808 1 55.729614998689584 11.69974985475323 1.53577840002331 -1 0 0
1814 1 59.107167422852584 11.69974985475323 1.5357784000233101 -1 0 0
1819 1 60.79594363493403 8.774703652814232 1.535778400023309 -1 0 0
1642 4 62.48471984701573 7.800121336150676 0.017837685681363617 -1 0 0
1825 1 64.17349605909703 8.774703652814232 1.5357784000233086 -1 0 0
1821 4 60.79594363493416 10.725167538089677 0.017837685681362854 -1 0 0
1827 4 64.17349605909716 10.725167538089677 0.017837685681363378 -1 0 0
1820 1 62.48471984701559 11.69974985475323 1.5357784000233101 -1 0 0
1648 4 65.86227227117874 7.800121336150675 0.017837685681361744 -1 0 0
1831 1 67.55104848326003 8.774703652814232 1.5357784000233081 -1 0 0
1654 4 69.23982469534174 7.800121336150675 0.01783768568136246 -1 0 0
1837 1 70.92860090742303 8.774703652814233 1.5357784000233097 -1 0 0
1833 4 67.55104848326016 10.725167538089678 0.01783768568136402 -1 0 0
1839 4 70.92860090742316 10.725167538089677 0.017837685681361775 -1 0 0
1826 1 65.8622722711786 11.69974985475323 1.53577840002331 -1 0 0
1832 1 69.2398246953416 11.69974985475323 1.53577840002331 -1 0 0
1660 4 72.61737711950474 7.800121336150675 0.017837685681362406 -1 0 0
1843 1 74.30615333158603 8.774703652814232 1.5357784000233081 -1 0 0
1666 4 75.99492954366774 7.800121336150675 0.01783768568136246 -1 0 0
1845 4 74.30615333158616 10.725167538089678 0.01783768568136403 -1 0 0
1838 1 72.6173771195046 11.69974985475323 1.5357784000233101 -1 0 0
1844 1 75.9949295436676 11.69974985475323 1.53577840002331 -1 0 0
1849 1 77.68370575574903 8.774703652814233 1.5357784000233097 -1 0 0
1672 4 79.37248196783074 7.800121336150675 0.01783768568136241 -1 0 0
1855 1 81.06125817991203 8.774703652814232 1.5357784000233081 -1 0 0
1678 4 82.75003439199374 7.800121336150675 0.01783768568136246 -1 0 0
1851 4 77.68370575574916 10.725167538089677 0.017837685681361775 -1 0 0
1857 4 81.06125817991216 10.725167538089678 0.01783768568136403 -1 0 0
1850 1 79.3724819678306 11.69974985475323 1.5357784000233101 -1 0 0
1856 1 82.7500343919936 11.69974985475323 1.53577840002331 -1 0 0
1861 1 84.43881060407503 8.774703652814233 1.5357784000233097 -1 0 0
1684 4 86.12758681615674 7.800121336150675 0.01783768568136241 -1 0 0
1867 1 87.81636302823803 8.774703652814232 1.5357784000233081 -1 0 0
1863 4 84.43881060407516 10.725167538089677 0.017837685681361775 -1 0 0
1869 4 87.81636302823816 10.725167538089678 0.01783768568136403 -1 0 0
1862 1 86.1275868161566 11.69974985475323 1.5357784000233101 -1 0 0
1690 4 89.50513924031974 7.800121336150675 0.01783768568136246 -1 0 0
1873 1 91.19391545240103 8.774703652814233 1.53577840002331 -1 0 0
1696 4 92.88269166448273 7.800121336150675 0.017837685681362774 -1 0 0
1879 1 94.57146787656403 8.774703652814232 1.535778400023309 -1 0 0
1875 4 91.19391545240116 10.725167538089677 0.017837685681361775 -1 0 0
1881 4 94.57146787656416 10.725167538089678 0.017837685681364332 -1 0 0
1868 1 89.5051392403196 11.69974985475323 1.53577840002331 -1 0 0
1874 1 92.88269166448259 11.69974985475323 1.5357784000233101 -1 0 0
1702 4 96.26024408864573 7.800121336150675 0.017837685681362354 -1 0 0
1885 1 97.94902030072703 8.774703652814232 1.535778400023309 -1 0 0
1708 4 99.63779651280873 7.800121336150675 0.01783768568136231 -1 0 0
1887 4 97.94902030072716 10.725167538089677 0.017837685681361626 -1 0 0
1880 1 96.26024408864559 11.69974985475323 1.53577840002331 -1 0 0
1886 1 99.63779651280859 11.69974985475323 1.53577840002331 -1 0 0
1894 4 1.688776212081732 13.650213740028676 0.017837685681361425 0 0 0
1900 4 5.0663286362447355 13.650213740028676 0.01783768568136125 0 0 0
2071 1 2.397642370364573e-14 14.624796056692228 1.5357784000233103 0 0 0
2077 1 3.377552424163028 14.624796056692228 1.535778400023309 0 0 0
2073 4 1.6113942907359863e-13 16.575259941967676 0.01783768568136518 0 0 0
2079 4 3.377552424163163 16.575259941967676 0.017837685681364998 0 0 0
2072 1 1.6887762120815875 17.549842258631234 1.5357784000233101 0 0 0
2078 1 5.066328636244588 17.549842258631234 1.53577840002331 0 0 0
1906 4 8.443881060407735 13.650213740028676 0.017837685681361574 0 0 0
1912 4 11.821433484570735 13.650213740028676 0.017837685681362403 0 0 0
2083 1 6.755104848326028 14.624796056692228 1.5357784000233095 0 0 0
2089 1 10.132657272489027 14.624796056692228 1.5357784000233097 0 0 0
2085 4 6.755104848326164 16.575259941967676 0.017837685681364488 0 0 0
2091 4 10.132657272489164 16.575259941967676 0.01783768568136456 0 0 0
2084 1 8.443881060407588 17.549842258631234 1.5357784000233101 0 0 0
2090 1 11.82143348457059 17.549842258631234 1.5357784000233101 0 0 0
1918 4 15.198985908733734 13.650213740028676 0.017837685681361955 0 0 0
2095 1 13.510209696652028 14.62479605669223 1.5357784000233101 0 0 0
2101 1 16.887762120815026 14.62479605669223 1.5357784000233095 0 0 0
2097 4 13.510209696652165 16.575259941967676 0.017837685681363808 0 0 0
2103 4 16.887762120815164 16.575259941967676 0.017837685681364568 0 0 0
2096 1 15.19898590873359 17.549842258631234 1.5357784000233101 0 0 0
1924 4 18.57653833289673 13.650213740028676 0.01783768568136158 0 0 0
1930 4 21.95409075705973 13.650213740028676 0.01783768568136158 0 0 0
2107 1 20.265314544978025 14.62479605669223 1.5357784000233095 0 0 0
2113 1 23.642866969141025 14.62479605669223 1.5357784000233095 0 0 0
2109 4 20.265314544978164 16.575259941967676 0.017837685681364405 0 0 0
2115 4 23.642866969141163 16.575259941967676 0.01783768568136437 0 0 0
2102 1 18.57653833289659 17.549842258631234 1.5357784000233101 0 0 0
2108 1 21.95409075705959 17.549842258631234 1.53577840002331 0 0 0
1936 4 25.33164318122273 13.650213740028676 0.01783768568136133 0 0 0
1942 4 28.709195605385737 13.650213740028676 0.01783768568136101 0 0 0
2119 1 27.020419393304028 14.624796056692228 1.5357784000233083 0 0 0
2121 4 27.020419393304167 16.575259941967676 0.017837685681365532 0 0 0
2114 1 25.33164318122259 17.549842258631234 1.5357784000233101 0 0 0
2120 1 28.70919560538559 17.549842258631234 1.53577840002331 0 0 0
1948 4 32.08674802954874 13.650213740028676 0.017837685681361477 0 0 0
1954 4 35.464300453711736 13.650213740028676 0.017837685681361473 0 0 0
2125 1 30.397971817467027 14.624796056692228 1.5357784000233097 0 0 0
2131 1 33.77552424163003 14.624796056692228 1.5357784000233097 0 0 0
2127 4 30.39797181746717 16.575259941967673 0.017837685681364415 0 0 0
2133 4 33.775524241630166 16.575259941967676 0.017837685681364453 0 0 0
2126 1 32.086748029548595 17.549842258631234 1.5357784000233097 0 0 0
2132 1 35.46430045371159 17.549842258631234 1.53577840002331 0 0 0
1960 4 38.841852877874736 13.650213740028676 0.017837685681361473 0 0 0
2137 1 37.15307666579303 14.624796056692228 1.5357784000233097 0 0 0
2143 1 40.53062908995603 14.624796056692228 1.5357784000233097 0 0 0
2139 4 37.153076665793165 16.575259941967676 0.017837685681364453 0 0 0
2145 4 40.530629089956165 16.575259941967676 0.017837685681364453 0 0 0
2138 1 38.84185287787459 17.549842258631234 1.53577840002331 0 0 0
1966 4 42.219405302037735 13.650213740028676 0.01783768568136147 0 0 0
1972 4 45.596957726200735 13.650213740028676 0.017837685681361473 0 0 0
2149 1 43.90818151411903 14.624796056692228 1.5357784000233097 0 0 0
2155 1 47.28573393828203 14.624796056692228 1.5357784000233097 0 0 0
2151 4 43.908181514119164 16.575259941967676 0.017837685681364453 0 0 0
2157 4 47.28573393828216 16.575259941967676 0.017837685681364457 0 0 0
2144 1 42.219405302037586 17.549842258631234 1.53577840002331 0 0 0
2150 1 45.596957726200586 17.549842258631234 1.53577840002331 0 0 0
1978 4 48.974510150363734 13.650213740028676 0.017837685681361952 0 0 0
1804 4 52.352062574526734 13.650213740028676 0.017837685681362014 -1 0 0
1981 1 50.66328636244503 14.62479605669223 1.535778400023311 -1 0 0
1983 4 50.66328636244516 16.575259941967676 0.01783768568136396 -1 0 0
2156 1 48.974510150363585 17.549842258631234 1.5357784000233101 0 0 0
1982 1 52.352062574526585 17.549842258631234 1.5357784000233108 -1 0 0
1810 4 55.72961499868973 13.650213740028676 0.01783768568136163 -1 0 0
1816 4 59.10716742285273 13.650213740028676 0.017837685681361615 -1 0 0
1987 1 54.04083878660803 14.62479605669223 1.5357784000233095 -1 0 0
1993 1 57.41839121077103 14.62479605669223 1.5357784000233095 -1 0 0
1989 4 54.04083878660816 16.575259941967676 0.017837685681364422 -1 0 0
1995 4 57.418391210771155 16.575259941967676 0.017837685681364422 -1 0 0
1988 1 55.729614998689584 17.549842258631234 1.53577840002331 -1 0 0
1994 1 59.107167422852584 17.549842258631234 1.53577840002331 -1 0 0
1822 4 62.48471984701573 13.650213740028676 0.017837685681362857 -1 0 0
1999 1 60.79594363493403 14.62479605669223 1.5357784000233095 -1 0 0
2005 1 64.17349605909703 14.62479605669223 1.535778400023309 -1 0 0
2001 4 60.79594363493416 16.575259941967676 0.01783768568136427 -1 0 0
2007 4 64.17349605909716 16.575259941967676 0.01783768568136475 -1 0 0
2000 1 62.48471984701559 17.549842258631234 1.53577840002331 -1 0 0
1828 4 65.86227227117874 13.650213740028676 0.017837685681360987 -1 0 0
1834 4 69.23982469534174 13.650213740028676 0.01783768568136167 -1 0 0
2011 1 67.55104848326003 14.624796056692228 1.535778400023309 -1 0 0
2017 1 70.92860090742303 14.62479605669223 1.5357784000233103 -1 0 0
2013 4 67.55104848326016 16.575259941967676 0.01783768568136557 -1 0 0
2019 4 70.92860090742316 16.575259941967673 0.017837685681363322 -1 0 0
2006 1 65.8622722711786 17.549842258631234 1.53577840002331 -1 0 0
2012 1 69.2398246953416 17.549842258631234 1.53577840002331 -1 0 0
1840 4 72.61737711950474 13.650213740028676 0.017837685681361515 -1 0 0
1846 4 75.99492954366774 13.650213740028676 0.017837685681361667 -1 0 0
2023 1 74.30615333158603 14.624796056692228 1.535778400023309 -1 0 0
2025 4 74.30615333158616 16.575259941967676 0.0178376856813656 -1 0 0
2018 1 72.6173771195046 17.549842258631234 1.53577840002331 -1 0 0
2024 1 75.9949295436676 17.549842258631234 1.53577840002331 -1 0 0
1852 4 79.37248196783074 13.650213740028676 0.017837685681361515 -1 0 0
1858 4 82.75003439199374 13.650213740028676 0.017837685681361667 -1 0 0
2029 1 77.68370575574903 14.62479605669223 1.5357784000233103 -1 0 0
2035 1 81.06125817991203 14.624796056692228 1.535778400023309 -1 0 0
2031 4 77.68370575574916 16.575259941967673 0.017837685681363322 -1 0 0
2037 4 81.06125817991216 16.575259941967676 0.0178376856813656 -1 0 0
2030 1 79.3724819678306 17.549842258631234 1.53577840002331 -1 0 0
2036 1 82.7500343919936 17.549842258631234 1.53577840002331 -1 0 0
1864 4 86.12758681615674 13.650213740028676 0.017837685681361515 -1 0 0
2041 1 84.43881060407503 14.62479605669223 1.5357784000233103 -1 0 0
2047 1 87.81636302823803 14.624796056692228 1.535778400023309 -1 0 0
2043 4 84.43881060407516 16.575259941967673 0.017837685681363322 -1 0 0
2049 4 87.81636302823816 16.575259941967676 0.0178376856813656 -1 0 0
2042 1 86.1275868161566 17.549842258631234 1.53577840002331 -1 0 0
1870 4 89.50513924031974 13.650213740028676 0.017837685681361664 -1 0 0
1876 4 92.88269166448273 13.650213740028676 0.01783768568136191 -1 0 0
2053 1 91.19391545240103 14.62479605669223 1.5357784000233103 -1 0 0
2059 1 94.57146787656403 14.62479605669223 1.5357784000233097 -1 0 0
2055 4 91.19391545240116 16.575259941967673 0.017837685681363322 -1 0 0
2061 4 94.57146787656416 16.575259941967676 0.017837685681365744 -1 0 0
2048 1 89.5051392403196 17.549842258631234 1.53577840002331 -1 0 0
2054 1 92.88269166448259 17.549842258631234 1.53577840002331 -1 0 0
1882 4 96.26024408864573 13.650213740028676 0.017837685681361702 -1 0 0
1888 4 99.63779651280873 13.650213740028676 0.017837685681361577 -1 0 0
2065 1 97.94902030072703 14.62479605669223 1.5357784000233097 -1 0 0
2067 4 97.94902030072716 16.575259941967673 0.017837685681363027 -1 0 0
2060 1 96.26024408864559 17.549842258631234 1.53577840002331 -1 0 0
2066 1 99.63779651280859 17.549842258631234 1.53577840002331 -1 0 0
2074 4 1.688776212081732 19.50030614390668 0.017837685681362313 0 0 0
2080 4 5.0663286362447355 19.50030614390668 0.017837685681362212 0 0 0
2251 1 2.402120114562827e-14 20.474888460570234 1.5357784000233106 0 0 0
2257 1 3.377552424163028 20.474888460570234 1.5357784000233095 0 0 0
2253 4 1.6113071462152238e-13 22.42535234584568 0.017837685681363017 0 0 0
2259 4 3.377552424163163 22.42535234584568 0.017837685681362906 0 0 0
2252 1 1.6887762120815872 23.39993466250923 1.5357784000233097 0 0 0
2258 1 5.066328636244588 23.39993466250923 1.5357784000233097 0 0 0
2086 4 8.443881060407735 19.50030614390668 0.017837685681362448 0 0 0
2092 4 11.821433484570735 19.50030614390668 0.017837685681363392 0 0 0
2263 1 6.755104848326028 20.474888460570234 1.53577840002331 0 0 0
2269 1 10.132657272489027 20.474888460570234 1.5357784000233101 0 0 0
2265 4 6.755104848326164 22.42535234584568 0.017837685681362403 0 0 0
2271 4 10.132657272489164 22.42535234584568 0.017837685681362604 0 0 0
2264 1 8.443881060407588 23.399934662509235 1.53577840002331 0 0 0
2270 1 11.82143348457059 23.39993466250923 1.5357784000233101 0 0 0
2098 4 15.198985908733734 19.50030614390668 0.017837685681362757 0 0 0
2275 1 13.510209696652028 20.474888460570234 1.5357784000233101 0 0 0
2281 1 16.887762120815026 20.474888460570234 1.5357784000233101 0 0 0
2277 4 13.510209696652165 22.425352345845678 0.01783768568136186 0 0 0
2283 4 16.887762120815164 22.42535234584568 0.017837685681362656 0 0 0
2276 1 15.19898590873359 23.39993466250923 1.5357784000233097 0 0 0
2104 4 18.57653833289673 19.50030614390668 0.017837685681362497 0 0 0
2110 4 21.95409075705973 19.50030614390668 0.0178376856813625 0 0 0
2287 1 20.265314544978025 20.474888460570234 1.5357784000233101 0 0 0
2293 1 23.642866969141025 20.474888460570234 1.5357784000233101 0 0 0
2289 4 20.265314544978164 22.42535234584568 0.017837685681362493 0 0 0
2295 4 23.642866969141163 22.42535234584568 0.017837685681362455 0 0 0
2282 1 18.57653833289659 23.39993466250923 1.5357784000233095 0 0 0
2288 1 21.95409075705959 23.39993466250923 1.5357784000233095 0 0 0
2116 4 25.33164318122273 19.50030614390668 0.017837685681362132 0 0 0
2122 4 28.709195605385737 19.50030614390668 0.01783768568136198 0 0 0
2299 1 27.020419393304028 20.474888460570234 1.5357784000233088 0 0 0
2301 4 27.020419393304167 22.42535234584568 0.01783768568136341 0 0 0
2294 1 25.33164318122259 23.39993466250923 1.5357784000233097 0 0 0
2300 1 28.70919560538559 23.39993466250923 1.5357784000233097 0 0 0
2128 4 32.08674802954874 19.50030614390668 0.017837685681362448 0 0 0
2134 4 35.464300453711736 19.50030614390668 0.017837685681362448 0 0 0
2305 1 30.397971817467027 20.474888460570234 1.5357784000233101 0 0 0
2311 1 33.77552424163003 20.474888460570234 1.5357784000233101 0 0 0
2307 4 30.39797181746717 22.42535234584568 0.01783768568136239 0 0 0
2313 4 33.775524241630166 22.42535234584568 0.017837685681362424 0 0 0
2306 1 32.086748029548595 23.39993466250923 1.5357784000233095 0 0 0
2312 1 35.46430045371159 23.39993466250923 1.53577840002331 0 0 0
2140 4 38.841852877874736 19.50030614390668 0.017837685681362448 0 0 0
2317 1 37.15307666579303 20.474888460570234 1.5357784000233101 0 0 0
2323 1 40.53062908995603 20.474888460570234 1.5357784000233101 0 0 0
2319 4 37.153076665793165 22.42535234584568 0.017837685681362424 0 0 0
2325 4 40.530629089956165 22.42535234584568 0.017837685681362424 0 0 0
2318 1 38.84185287787459 23.39993466250923 1.53577840002331 0 0 0
2146 4 42.219405302037735 19.50030614390668 0.01783768568136245 0 0 0
2152 4 45.596957726200735 19.50030614390668 0.017837685681362445 0 0 0
2329 1 43.90818151411903 20.474888460570234 1.5357784000233101 0 0 0
2335 1 47.28573393828203 20.474888460570234 1.5357784000233101 0 0 0
2331 4 43.908181514119164 22.42535234584568 0.017837685681362424 0 0 0
2337 4 47.28573393828216 22.42535234584568 0.017837685681362427 0 0 0
2324 1 42.219405302037586 23.39993466250923 1.53577840002331 0 0 0
2330 1 45.596957726200586 23.39993466250923 1.53577840002331 0 0 0
2158 4 48.974510150363734 19.50030614390668 0.01783768568136283 0 0 0
1984 4 52.352062574526734 19.50030614390668 0.017837685681362844 -1 0 0
2161 1 50.66328636244503 20.474888460570238 1.5357784000233112 -1 0 0
2163 4 50.66328636244516 22.425352345845678 0.01783768568136206 -1 0 0
2336 1 48.974510150363585 23.39993466250923 1.53577840002331 0 0 0
2162 1 52.352062574526585 23.399934662509235 1.5357784000233106 -1 0 0
1990 4 55.72961499868973 19.50030614390668 0.01783768568136246 -1 0 0
1996 4 59.10716742285273 19.50030614390668 0.01783768568136245 -1 0 0