LAMMPS data file via write_data, version 29 Aug 2024, timestep = 0, units = metal

3060 atoms
3 atom types

0 101.32657272489 xlo xhi
0 99.451570865926 ylo yhi
0 18.054542364506 zlo zhi

Masses

1 92.90637
2 32.06
3 32.06

Atoms # atomic

1532 1 1.6887762120819971 0 1.5378088375859997 0 0 0
1538 1 5.066328636245004 0 1.5378088375859997 0 0 0
1544 1 8.443881060408003 0 1.5378088375859997 0 0 0
1550 1 11.821433484571003 0 1.5378088375859997 0 0 0
1556 1 15.198985908733995 0 1.5378088375859997 0 0 0
1562 1 18.576538332896995 0 1.5378088375859997 0 0 0
1568 1 21.954090757059994 0 1.5378088375859997 0 0 0
1574 1 25.331643181222994 0 1.5378088375859997 0 0 0
1580 1 28.709195605386007 0 1.5378088375859997 0 0 0
1586 1 32.08674802954901 0 1.5378088375859997 0 0 0
1592 1 35.464300453712006 0 1.5378088375859997 0 0 0
1598 1 38.841852877875006 0 1.5378088375859997 0 0 0
1604 1 42.219405302038005 0 1.5378088375859997 0 0 0
1610 1 45.596957726201005 0 1.5378088375859997 0 0 0
1616 1 48.974510150364004 0 1.5378088375859997 0 0 0
1442 1 52.352062574527 0 1.5378088375859997 -1 0 0
1448 1 55.729614998689996 0 1.5378088375859997 -1 0 0
1454 1 59.107167422852996 0 1.5378088375859997 -1 0 0
1460 1 62.484719847015995 0 1.5378088375859997 -1 0 0
1466 1 65.862272271179 0 1.5378088375859997 -1 0 0
1472 1 69.23982469534201 0 1.5378088375859997 -1 0 0
1478 1 72.617377119505 0 1.5378088375859997 -1 0 0
1484 1 75.99492954366801 0 1.5378088375859997 -1 0 0
1490 1 79.37248196783099 0 1.5378088375859997 -1 0 0
1496 1 82.750034391994 0 1.5378088375859997 -1 0 0
1502 1 86.12758681615699 0 1.5378088375859997 -1 0 0
1508 1 89.50513924032 0 1.5378088375859997 -1 0 0
1514 1 92.88269166448299 0 1.5378088375859997 -1 0 0
1520 1 96.260244088646 0 1.5378088375859997 -1 0 0
1526 1 99.63779651280899 0 1.5378088375859997 -1 0 0
1534 3 1.6887762120819971 1.9500308012920016 0 0 0 0
1711 1 0 2.925046201938997 1.5378088375859997 0 0 0
1717 1 3.3775524241629995 2.925046201938997 1.5378088375859997 0 0 0
1540 3 5.066328636245004 1.9500308012920016 0 0 0 0
1723 1 6.755104848325999 2.925046201938997 1.5378088375859997 0 0 0
1546 3 8.443881060408003 1.9500308012920016 0 0 0 0
1729 1 10.132657272488999 2.925046201938997 1.5378088375859997 0 0 0
1552 3 11.821433484571003 1.9500308012920016 0 0 0 0
1735 1 13.510209696652005 2.925046201938997 1.5378088375859997 0 0 0
1558 3 15.198985908733995 1.9500308012920016 0 0 0 0
1741 1 16.887762120815005 2.925046201938997 1.5378088375859997 0 0 0
1564 3 18.576538332896995 1.9500308012920016 0 0 0 0
1747 1 20.265314544978004 2.925046201938997 1.5378088375859997 0 0 0
1570 3 21.954090757059994 1.9500308012920016 0 0 0 0
1753 1 23.642866969141004 2.925046201938997 1.5378088375859997 0 0 0
1576 3 25.331643181222994 1.9500308012920016 0 0 0 0
1759 1 27.020419393304003 2.925046201938997 1.5378088375859997 0 0 0
1582 3 28.709195605386007 1.9500308012920016 0 0 0 0
1765 1 30.397971817467003 2.925046201938997 1.5378088375859997 0 0 0
1588 3 32.08674802954901 1.9500308012920016 0 0 0 0
1771 1 33.77552424163 2.925046201938997 1.5378088375859997 0 0 0
1594 3 35.464300453712006 1.9500308012920016 0 0 0 0
1777 1 37.153076665793 2.925046201938997 1.5378088375859997 0 0 0
1600 3 38.841852877875006 1.9500308012920016 0 0 0 0
1783 1 40.530629089956 2.925046201938997 1.5378088375859997 0 0 0
1606 3 42.219405302038005 1.9500308012920016 0 0 0 0
1789 1 43.908181514119 2.925046201938997 1.5378088375859997 0 0 0
1612 3 45.596957726201005 1.9500308012920016 0 0 0 0
1795 1 47.285733938282 2.925046201938997 1.5378088375859997 0 0 0
1618 3 48.974510150364004 1.9500308012920016 0 0 0 0
1444 3 52.352062574527 1.9500308012920016 0 -1 0 0
1621 1 50.663286362445 2.925046201938997 1.5378088375859997 -1 0 0
1627 1 54.040838786608 2.925046201938997 1.5378088375859997 -1 0 0
1450 3 55.729614998689996 1.9500308012920016 0 -1 0 0
1633 1 57.418391210771 2.925046201938997 1.5378088375859997 -1 0 0
1456 3 59.107167422852996 1.9500308012920016 0 -1 0 0
1639 1 60.795943634934 2.925046201938997 1.5378088375859997 -1 0 0
1462 3 62.484719847015995 1.9500308012920016 0 -1 0 0
1645 1 64.173496059097 2.925046201938997 1.5378088375859997 -1 0 0
1468 3 65.862272271179 1.9500308012920016 0 -1 0 0
1651 1 67.55104848326 2.925046201938997 1.5378088375859997 -1 0 0
1474 3 69.23982469534201 1.9500308012920016 0 -1 0 0
1657 1 70.928600907423 2.925046201938997 1.5378088375859997 -1 0 0
1480 3 72.617377119505 1.9500308012920016 0 -1 0 0
1663 1 74.306153331586 2.925046201938997 1.5378088375859997 -1 0 0
1486 3 75.99492954366801 1.9500308012920016 0 -1 0 0
1669 1 77.683705755749 2.925046201938997 1.5378088375859997 -1 0 0
1492 3 79.37248196783099 1.9500308012920016 0 -1 0 0
1675 1 81.061258179912 2.925046201938997 1.5378088375859997 -1 0 0
1498 3 82.750034391994 1.9500308012920016 0 -1 0 0
1681 1 84.438810604075 2.925046201938997 1.5378088375859997 -1 0 0
1504 3 86.12758681615699 1.9500308012920016 0 -1 0 0
1687 1 87.816363028238 2.925046201938997 1.5378088375859997 -1 0 0
1510 3 89.50513924032 1.9500308012920016 0 -1 0 0
1693 1 91.193915452401 2.925046201938997 1.5378088375859997 -1 0 0
1516 3 92.88269166448299 1.9500308012920016 0 -1 0 0
1699 1 94.571467876564 2.925046201938997 1.5378088375859997 -1 0 0
1522 3 96.260244088646 1.9500308012920016 0 -1 0 0
1705 1 97.949020300727 2.925046201938997 1.5378088375859997 -1 0 0
1528 3 99.63779651280899 1.9500308012920016 0 -1 0 0
1713 3 0 4.875077003230999 0 0 0 0
1719 3 3.3775524241629995 4.875077003230999 0 0 0 0
1725 3 6.755104848325999 4.875077003230999 0 0 0 0
1731 3 10.132657272488999 4.875077003230999 0 0 0 0
1737 3 13.510209696652005 4.875077003230999 0 0 0 0
1743 3 16.887762120815005 4.875077003230999 0 0 0 0
1749 3 20.265314544978004 4.875077003230999 0 0 0 0
1755 3 23.642866969141004 4.875077003230999 0 0 0 0
1761 3 27.020419393304003 4.875077003230999 0 0 0 0
1767 3 30.397971817467003 4.875077003230999 0 0 0 0
1773 3 33.77552424163 4.875077003230999 0 0 0 0
1779 3 37.153076665793 4.875077003230999 0 0 0 0
1785 3 40.530629089956 4.875077003230999 0 0 0 0
1791 3 43.908181514119 4.875077003230999 0 0 0 0
1797 3 47.285733938282 4.875077003230999 0 0 0 0
1623 3 50.663286362445 4.875077003230999 0 -1 0 0
1629 3 54.040838786608 4.875077003230999 0 -1 0 0
1635 3 57.418391210771 4.875077003230999 0 -1 0 0
1641 3 60.795943634934 4.875077003230999 0 -1 0 0
1647 3 64.173496059097 4.875077003230999 0 -1 0 0
1653 3 67.55104848326 4.875077003230999 0 -1 0 0
1659 3 70.928600907423 4.875077003230999 0 -1 0 0
1665 3 74.306153331586 4.875077003230999 0 -1 0 0
1671 3 77.683705755749 4.875077003230999 0 -1 0 0
1677 3 81.061258179912 4.875077003230999 0 -1 0 0
1683 3 84.438810604075 4.875077003230999 0 -1 0 0
1689 3 87.816363028238 4.875077003230999 0 -1 0 0
1695 3 91.193915452401 4.875077003230999 0 -1 0 0
1701 3 94.571467876564 4.875077003230999 0 -1 0 0
1707 3 97.949020300727 4.875077003230999 0 -1 0 0
1712 1 1.6887762120819971 5.850092403878001 1.5378088375859997 0 0 0
1718 1 5.066328636245004 5.850092403878001 1.5378088375859997 0 0 0
1724 1 8.443881060408003 5.850092403878001 1.5378088375859997 0 0 0
1730 1 11.821433484571003 5.850092403878001 1.5378088375859997 0 0 0
1736 1 15.198985908733995 5.850092403878001 1.5378088375859997 0 0 0
1742 1 18.576538332896995 5.850092403878001 1.5378088375859997 0 0 0
1748 1 21.954090757059994 5.850092403878001 1.5378088375859997 0 0 0
1754 1 25.331643181222994 5.850092403878001 1.5378088375859997 0 0 0
1760 1 28.709195605386007 5.850092403878001 1.5378088375859997 0 0 0
1766 1 32.08674802954901 5.850092403878001 1.5378088375859997 0 0 0
1772 1 35.464300453712006 5.850092403878001 1.5378088375859997 0 0 0
1778 1 38.841852877875006 5.850092403878001 1.5378088375859997 0 0 0
1784 1 42.219405302038005 5.850092403878001 1.5378088375859997 0 0 0
1790 1 45.596957726201005 5.850092403878001 1.5378088375859997 0 0 0
1796 1 48.974510150364004 5.850092403878001 1.5378088375859997 0 0 0
1622 1 52.352062574527 5.850092403878001 1.5378088375859997 -1 0 0
1628 1 55.729614998689996 5.850092403878001 1.5378088375859997 -1 0 0
1634 1 59.107167422852996 5.850092403878001 1.5378088375859997 -1 0 0
1640 1 62.484719847015995 5.850092403878001 1.5378088375859997 -1 0 0
1646 1 65.862272271179 5.850092403878001 1.5378088375859997 -1 0 0
1652 1 69.23982469534201 5.850092403878001 1.5378088375859997 -1 0 0
1658 1 72.617377119505 5.850092403878001 1.5378088375859997 -1 0 0
1664 1 75.99492954366801 5.850092403878001 1.5378088375859997 -1 0 0
1670 1 79.37248196783099 5.850092403878001 1.5378088375859997 -1 0 0
1676 1 82.750034391994 5.850092403878001 1.5378088375859997 -1 0 0
1682 1 86.12758681615699 5.850092403878001 1.5378088375859997 -1 0 0
1688 1 89.50513924032 5.850092403878001 1.5378088375859997 -1 0 0
1694 1 92.88269166448299 5.850092403878001 1.5378088375859997 -1 0 0
1700 1 96.260244088646 5.850092403878001 1.5378088375859997 -1 0 0
1706 1 99.63779651280899 5.850092403878001 1.5378088375859997 -1 0 0
1714 3 1.6887762120819971 7.800123205169996 0 0 0 0
1891 1 0 8.775138605816998 1.5378088375859997 0 0 0
1897 1 3.3775524241629995 8.775138605816998 1.5378088375859997 0 0 0
1720 3 5.066328636245004 7.800123205169996 0 0 0 0
1903 1 6.755104848325999 8.775138605816998 1.5378088375859997 0 0 0
1726 3 8.443881060408003 7.800123205169996 0 0 0 0
1909 1 10.132657272488999 8.775138605816998 1.5378088375859997 0 0 0
1732 3 11.821433484571003 7.800123205169996 0 0 0 0
1915 1 13.510209696652005 8.775138605816998 1.5378088375859997 0 0 0
1738 3 15.198985908733995 7.800123205169996 0 0 0 0
1921 1 16.887762120815005 8.775138605816998 1.5378088375859997 0 0 0
1744 3 18.576538332896995 7.800123205169996 0 0 0 0
1927 1 20.265314544978004 8.775138605816998 1.5378088375859997 0 0 0
1750 3 21.954090757059994 7.800123205169996 0 0 0 0
1933 1 23.642866969141004 8.775138605816998 1.5378088375859997 0 0 0
1756 3 25.331643181222994 7.800123205169996 0 0 0 0
1939 1 27.020419393304003 8.775138605816998 1.5378088375859997 0 0 0
1762 3 28.709195605386007 7.800123205169996 0 0 0 0
1945 1 30.397971817467003 8.775138605816998 1.5378088375859997 0 0 0
1768 3 32.08674802954901 7.800123205169996 0 0 0 0
1951 1 33.77552424163 8.775138605816998 1.5378088375859997 0 0 0
1774 3 35.464300453712006 7.800123205169996 0 0 0 0
1957 1 37.153076665793 8.775138605816998 1.5378088375859997 0 0 0
1780 3 38.841852877875006 7.800123205169996 0 0 0 0
1963 1 40.530629089956 8.775138605816998 1.5378088375859997 0 0 0
1786 3 42.219405302038005 7.800123205169996 0 0 0 0
1969 1 43.908181514119 8.775138605816998 1.5378088375859997 0 0 0
1792 3 45.596957726201005 7.800123205169996 0 0 0 0
1975 1 47.285733938282 8.775138605816998 1.5378088375859997 0 0 0
1798 3 48.974510150364004 7.800123205169996 0 0 0 0
1624 3 52.352062574527 7.800123205169996 0 -1 0 0
1801 1 50.663286362445 8.775138605816998 1.5378088375859997 -1 0 0
1807 1 54.040838786608 8.775138605816998 1.5378088375859997 -1 0 0
1630 3 55.729614998689996 7.800123205169996 0 -1 0 0
1813 1 57.418391210771 8.775138605816998 1.5378088375859997 -1 0 0
1636 3 59.107167422852996 7.800123205169996 0 -1 0 0
1819 1 60.795943634934 8.775138605816998 1.5378088375859997 -1 0 0
1642 3 62.484719847015995 7.800123205169996 0 -1 0 0
1825 1 64.173496059097 8.775138605816998 1.5378088375859997 -1 0 0
1648 3 65.862272271179 7.800123205169996 0 -1 0 0
1831 1 67.55104848326 8.775138605816998 1.5378088375859997 -1 0 0
1654 3 69.23982469534201 7.800123205169996 0 -1 0 0
1837 1 70.928600907423 8.775138605816998 1.5378088375859997 -1 0 0
1660 3 72.617377119505 7.800123205169996 0 -1 0 0
1843 1 74.306153331586 8.775138605816998 1.5378088375859997 -1 0 0
1666 3 75.99492954366801 7.800123205169996 0 -1 0 0
1849 1 77.683705755749 8.775138605816998 1.5378088375859997 -1 0 0
1672 3 79.37248196783099 7.800123205169996 0 -1 0 0
1855 1 81.061258179912 8.775138605816998 1.5378088375859997 -1 0 0
1678 3 82.750034391994 7.800123205169996 0 -1 0 0
1861 1 84.438810604075 8.775138605816998 1.5378088375859997 -1 0 0
1684 3 86.12758681615699 7.800123205169996 0 -1 0 0
1867 1 87.816363028238 8.775138605816998 1.5378088375859997 -1 0 0
1690 3 89.50513924032 7.800123205169996 0 -1 0 0
1873 1 91.193915452401 8.775138605816998 1.5378088375859997 -1 0 0
1696 3 92.88269166448299 7.800123205169996 0 -1 0 0
1879 1 94.571467876564 8.775138605816998 1.5378088375859997 -1 0 0
1702 3 96.260244088646 7.800123205169996 0 -1 0 0
1885 1 97.949020300727 8.775138605816998 1.5378088375859997 -1 0 0
1708 3 99.63779651280899 7.800123205169996 0 -1 0 0
1893 3 0 10.725169407109 0 0 0 0
1899 3 3.3775524241629995 10.725169407109 0 0 0 0
1905 3 6.755104848325999 10.725169407109 0 0 0 0
1911 3 10.132657272488999 10.725169407109 0 0 0 0
1917 3 13.510209696652005 10.725169407109 0 0 0 0
1923 3 16.887762120815005 10.725169407109 0 0 0 0
1929 3 20.265314544978004 10.725169407109 0 0 0 0
1935 3 23.642866969141004 10.725169407109 0 0 0 0
1941 3 27.020419393304003 10.725169407109 0 0 0 0
1947 3 30.397971817467003 10.725169407109 0 0 0 0
1953 3 33.77552424163 10.725169407109 0 0 0 0
1959 3 37.153076665793 10.725169407109 0 0 0 0
1965 3 40.530629089956 10.725169407109 0 0 0 0
1971 3 43.908181514119 10.725169407109 0 0 0 0
1977 3 47.285733938282 10.725169407109 0 0 0 0
1803 3 50.663286362445 10.725169407109 0 -1 0 0
1809 3 54.040838786608 10.725169407109 0 -1 0 0
1815 3 57.418391210771 10.725169407109 0 -1 0 0
1821 3 60.795943634934 10.725169407109 0 -1 0 0
1827 3 64.173496059097 10.725169407109 0 -1 0 0
1833 3 67.55104848326 10.725169407109 0 -1 0 0
1839 3 70.928600907423 10.725169407109 0 -1 0 0
1845 3 74.306153331586 10.725169407109 0 -1 0 0
1851 3 77.683705755749 10.725169407109 0 -1 0 0
1857 3 81.061258179912 10.725169407109 0 -1 0 0
1863 3 84.438810604075 10.725169407109 0 -1 0 0
1869 3 87.816363028238 10.725169407109 0 -1 0 0
1875 3 91.193915452401 10.725169407109 0 -1 0 0
1881 3 94.571467876564 10.725169407109 0 -1 0 0
1887 3 97.949020300727 10.725169407109 0 -1 0 0
1892 1 1.6887762120819971 11.700184807756003 1.5378088375859997 0 0 0
1898 1 5.066328636245004 11.700184807756003 1.5378088375859997 0 0 0
1904 1 8.443881060408003 11.700184807756003 1.5378088375859997 0 0 0
1910 1 11.821433484571003 11.700184807756003 1.5378088375859997 0 0 0
1916 1 15.198985908733995 11.700184807756003 1.5378088375859997 0 0 0
1922 1 18.576538332896995 11.700184807756003 1.5378088375859997 0 0 0
1928 1 21.954090757059994 11.700184807756003 1.5378088375859997 0 0 0
1934 1 25.331643181222994 11.700184807756003 1.5378088375859997 0 0 0
1940 1 28.709195605386007 11.700184807756003 1.5378088375859997 0 0 0
1946 1 32.08674802954901 11.700184807756003 1.5378088375859997 0 0 0
1952 1 35.464300453712006 11.700184807756003 1.5378088375859997 0 0 0
1958 1 38.841852877875006 11.700184807756003 1.5378088375859997 0 0 0
1964 1 42.219405302038005 11.700184807756003 1.5378088375859997 0 0 0
1970 1 45.596957726201005 11.700184807756003 1.5378088375859997 0 0 0
1976 1 48.974510150364004 11.700184807756003 1.5378088375859997 0 0 0
1802 1 52.352062574527 11.700184807756003 1.5378088375859997 -1 0 0
1808 1 55.729614998689996 11.700184807756003 1.5378088375859997 -1 0 0
1814 1 59.107167422852996 11.700184807756003 1.5378088375859997 -1 0 0
1820 1 62.484719847015995 11.700184807756003 1.5378088375859997 -1 0 0
1826 1 65.862272271179 11.700184807756003 1.5378088375859997 -1 0 0
1832 1 69.23982469534201 11.700184807756003 1.5378088375859997 -1 0 0
1838 1 72.617377119505 11.700184807756003 1.5378088375859997 -1 0 0
1844 1 75.99492954366801 11.700184807756003 1.5378088375859997 -1 0 0
1850 1 79.37248196783099 11.700184807756003 1.5378088375859997 -1 0 0
1856 1 82.750034391994 11.700184807756003 1.5378088375859997 -1 0 0
1862 1 86.12758681615699 11.700184807756003 1.5378088375859997 -1 0 0
1868 1 89.50513924032 11.700184807756003 1.5378088375859997 -1 0 0
1874 1 92.88269166448299 11.700184807756003 1.5378088375859997 -1 0 0
1880 1 96.260244088646 11.700184807756003 1.5378088375859997 -1 0 0
1886 1 99.63779651280899 11.700184807756003 1.5378088375859997 -1 0 0
1894 3 1.6887762120819971 13.650215609047997 0 0 0 0
1900 3 5.066328636245004 13.650215609047997 0 0 0 0
1906 3 8.443881060408003 13.650215609047997 0 0 0 0
1912 3 11.821433484571003 13.650215609047997 0 0 0 0
1918 3 15.198985908733995 13.650215609047997 0 0 0 0
1924 3 18.576538332896995 13.650215609047997 0 0 0 0
1930 3 21.954090757059994 13.650215609047997 0 0 0 0
1936 3 25.331643181222994 13.650215609047997 0 0 0 0
1942 3 28.709195605386007 13.650215609047997 0 0 0 0
1948 3 32.08674802954901 13.650215609047997 0 0 0 0
1954 3 35.464300453712006 13.650215609047997 0 0 0 0
1960 3 38.841852877875006 13.650215609047997 0 0 0 0
1966 3 42.219405302038005 13.650215609047997 0 0 0 0
1972 3 45.596957726201005 13.650215609047997 0 0 0 0
1978 3 48.974510150364004 13.650215609047997 0 0 0 0
1804 3 52.352062574527 13.650215609047997 0 -1 0 0
1810 3 55.729614998689996 13.650215609047997 0 -1 0 0
1816 3 59.107167422852996 13.650215609047997 0 -1 0 0
1822 3 62.484719847015995 13.650215609047997 0 -1 0 0
1828 3 65.862272271179 13.650215609047997 0 -1 0 0
1834 3 69.23982469534201 13.650215609047997 0 -1 0 0
1840 3 72.617377119505 13.650215609047997 0 -1 0 0
1846 3 75.99492954366801 13.650215609047997 0 -1 0 0
1852 3 79.37248196783099 13.650215609047997 0 -1 0 0
1858 3 82.750034391994 13.650215609047997 0 -1 0 0
1864 3 86.12758681615699 13.650215609047997 0 -1 0 0
1870 3 89.50513924032 13.650215609047997 0 -1 0 0
1876 3 92.88269166448299 13.650215609047997 0 -1 0 0
1882 3 96.260244088646 13.650215609047997 0 -1 0 0
1888 3 99.63779651280899 13.650215609047997 0 -1 0 0
2071 1 0 14.625231009694993 1.5378088375859997 0 0 0
2077 1 3.3775524241629995 14.625231009694993 1.5378088375859997 0 0 0
2083 1 6.755104848325999 14.625231009694993 1.5378088375859997 0 0 0
2089 1 10.132657272488999 14.625231009694993 1.5378088375859997 0 0 0
2095 1 13.510209696652005 14.625231009694993 1.5378088375859997 0 0 0
2101 1 16.887762120815005 14.625231009694993 1.5378088375859997 0 0 0
2107 1 20.265314544978004 14.625231009694993 1.5378088375859997 0 0 0
2113 1 23.642866969141004 14.625231009694993 1.5378088375859997 0 0 0
2119 1 27.020419393304003 14.625231009694993 1.5378088375859997 0 0 0
2125 1 30.397971817467003 14.625231009694993 1.5378088375859997 0 0 0
2131 1 33.77552424163 14.625231009694993 1.5378088375859997 0 0 0
2137 1 37.153076665793 14.625231009694993 1.5378088375859997 0 0 0
2143 1 40.530629089956 14.625231009694993 1.5378088375859997 0 0 0
2149 1 43.908181514119 14.625231009694993 1.5378088375859997 0 0 0
2155 1 47.285733938282 14.625231009694993 1.5378088375859997 0 0 0
1981 1 50.663286362445 14.625231009694993 1.5378088375859997 -1 0 0
1987 1 54.040838786608 14.625231009694993 1.5378088375859997 -1 0 0
1993 1 57.418391210771 14.625231009694993 1.5378088375859997 -1 0 0
1999 1 60.795943634934 14.625231009694993 1.5378088375859997 -1 0 0
2005 1 64.173496059097 14.625231009694993 1.5378088375859997 -1 0 0
2011 1 67.55104848326 14.625231009694993 1.5378088375859997 -1 0 0
2017 1 70.928600907423 14.625231009694993 1.5378088375859997 -1 0 0
2023 1 74.306153331586 14.625231009694993 1.5378088375859997 -1 0 0
2029 1 77.683705755749 14.625231009694993 1.5378088375859997 -1 0 0
2035 1 81.061258179912 14.625231009694993 1.5378088375859997 -1 0 0
2041 1 84.438810604075 14.625231009694993 1.5378088375859997 -1 0 0
2047 1 87.816363028238 14.625231009694993 1.5378088375859997 -1 0 0
2053 1 91.193915452401 14.625231009694993 1.5378088375859997 -1 0 0
2059 1 94.571467876564 14.625231009694993 1.5378088375859997 -1 0 0
2065 1 97.949020300727 14.625231009694993 1.5378088375859997 -1 0 0
2073 3 0 16.575261810986994 0 0 0 0
2072 1 1.6887762120819971 17.550277211634004 1.5378088375859997 0 0 0
2079 3 3.3775524241629995 16.575261810986994 0 0 0 0
2078 1 5.066328636245004 17.550277211634004 1.5378088375859997 0 0 0
2085 3 6.755104848325999 16.575261810986994 0 0 0 0
2084 1 8.443881060408003 17.550277211634004 1.5378088375859997 0 0 0
2091 3 10.132657272488999 16.575261810986994 0 0 0 0
2090 1 11.821433484571003 17.550277211634004 1.5378088375859997 0 0 0
2097 3 13.510209696652005 16.575261810986994 0 0 0 0
2096 1 15.198985908733995 17.550277211634004 1.5378088375859997 0 0 0
2103 3 16.887762120815005 16.575261810986994 0 0 0 0
2102 1 18.576538332896995 17.550277211634004 1.5378088375859997 0 0 0
2109 3 20.265314544978004 16.575261810986994 0 0 0 0
2108 1 21.954090757059994 17.550277211634004 1.5378088375859997 0 0 0
2115 3 23.642866969141004 16.575261810986994 0 0 0 0
2121 3 27.020419393304003 16.575261810986994 0 0 0 0
2114 1 25.331643181222994 17.550277211634004 1.5378088375859997 0 0 0
2120 1 28.709195605386007 17.550277211634004 1.5378088375859997 0 0 0
2127 3 30.397971817467003 16.575261810986994 0 0 0 0
2126 1 32.08674802954901 17.550277211634004 1.5378088375859997 0 0 0
2133 3 33.77552424163 16.575261810986994 0 0 0 0
2132 1 35.464300453712006 17.550277211634004 1.5378088375859997 0 0 0
2139 3 37.153076665793 16.575261810986994 0 0 0 0
2138 1 38.841852877875006 17.550277211634004 1.5378088375859997 0 0 0
2145 3 40.530629089956 16.575261810986994 0 0 0 0
2144 1 42.219405302038005 17.550277211634004 1.5378088375859997 0 0 0
2151 3 43.908181514119 16.575261810986994 0 0 0 0
2150 1 45.596957726201005 17.550277211634004 1.5378088375859997 0 0 0
2157 3 47.285733938282 16.575261810986994 0 0 0 0
2156 1 48.974510150364004 17.550277211634004 1.5378088375859997 0 0 0
1983 3 50.663286362445 16.575261810986994 0 -1 0 0
1982 1 52.352062574527 17.550277211634004 1.5378088375859997 -1 0 0
1989 3 54.040838786608 16.575261810986994 0 -1 0 0
1988 1 55.729614998689996 17.550277211634004 1.5378088375859997 -1 0 0
1995 3 57.418391210771 16.575261810986994 0 -1 0 0
1994 1 59.107167422852996 17.550277211634004 1.5378088375859997 -1 0 0
2001 3 60.795943634934 16.575261810986994 0 -1 0 0
2000 1 62.484719847015995 17.550277211634004 1.5378088375859997 -1 0 0
2007 3 64.173496059097 16.575261810986994 0 -1 0 0
2006 1 65.862272271179 17.550277211634004 1.5378088375859997 -1 0 0
2013 3 67.55104848326 16.575261810986994 0 -1 0 0
2012 1 69.23982469534201 17.550277211634004 1.5378088375859997 -1 0 0
2019 3 70.928600907423 16.575261810986994 0 -1 0 0
2018 1 72.617377119505 17.550277211634004 1.5378088375859997 -1 0 0
2025 3 74.306153331586 16.575261810986994 0 -1 0 0
2031 3 77.683705755749 16.575261810986994 0 -1 0 0
2024 1 75.99492954366801 17.550277211634004 1.5378088375859997 -1 0 0
2030 1 79.37248196783099 17.550277211634004 1.5378088375859997 -1 0 0
2037 3 81.061258179912 16.575261810986994 0 -1 0 0
2036 1 82.750034391994 17.550277211634004 1.5378088375859997 -1 0 0
2043 3 84.438810604075 16.575261810986994 0 -1 0 0
2042 1 86.12758681615699 17.550277211634004 1.5378088375859997 -1 0 0
2049 3 87.816363028238 16.575261810986994 0 -1 0 0
2048 1 89.50513924032 17.550277211634004 1.5378088375859997 -1 0 0
2055 3 91.193915452401 16.575261810986994 0 -1 0 0
2054 1 92.88269166448299 17.550277211634004 1.5378088375859997 -1 0 0
2061 3 94.571467876564 16.575261810986994 0 -1 0 0
2060 1 96.260244088646 17.550277211634004 1.5378088375859997 -1 0 0
2067 3 97.949020300727 16.575261810986994 0 -1 0 0
2066 1 99.63779651280899 17.550277211634004 1.5378088375859997 -1 0 0
2074 3 1.6887762120819971 19.500308012926006 0 0 0 0
2080 3 5.066328636245004 19.500308012926006 0 0 0 0
2086 3 8.443881060408003 19.500308012926006 0 0 0 0
2092 3 11.821433484571003 19.500308012926006 0 0 0 0
2098 3 15.198985908733995 19.500308012926006 0 0 0 0
2104 3 18.576538332896995 19.500308012926006 0 0 0 0
2110 3 21.954090757059994 19.500308012926006 0 0 0 0
2116 3 25.331643181222994 19.500308012926006 0 0 0 0
2122 3 28.709195605386007 19.500308012926006 0 0 0 0
2128 3 32.08674802954901 19.500308012926006 0 0 0 0
2134 3 35.464300453712006 19.500308012926006 0 0 0 0
2140 3 38.841852877875006 19.500308012926006 0 0 0 0
2146 3 42.219405302038005 19.500308012926006 0 0 0 0
2152 3 45.596957726201005 19.500308012926006 0 0 0 0
2158 3 48.974510150364004 19.500308012926006 0 0 0 0
1984 3 52.352062574527 19.500308012926006 0 -1 0 0
1990 3 55.729614998689996 19.500308012926006 0 -1 0 0
1996 3 59.107167422852996 19.500308012926006 0 -1 0 0
2002 3 62.484719847015995 19.500308012926006 0 -1 0 0
2008 3 65.862272271179 19.500308012926006 0 -1 0 0
2014 3 69.23982469534201 19.500308012926006 0 -1 0 0
2020 3 72.617377119505 19.500308012926006 0 -1 0 0
2026 3 75.99492954366801 19.500308012926006 0 -1 0 0
2032 3 79.37248196783099 19.500308012926006 0 -1 0 0
2038 3 82.750034391994 19.500308012926006 0 -1 0 0
2044 3 86.12758681615699 19.500308012926006 0 -1 0 0
2050 3 89.50513924032 19.500308012926006 0 -1 0 0
2056 3 92.88269166448299 19.500308012926006 0 -1 0 0
2062 3 96.260244088646 19.500308012926006 0 -1 0 0
2068 3 99.63779651280899 19.500308012926006 0 -1 0 0
2251 1 0 20.475323413573 1.5378088375859997 0 0 0
2257 1 3.3775524241629995 20.475323413573 1.5378088375859997 0 0 0
2263 1 6.755104848325999 20.475323413573 1.5378088375859997 0 0 0
2269 1 10.132657272488999 20.475323413573 1.5378088375859997 0 0 0
2275 1 13.510209696652005 20.475323413573 1.5378088375859997 0 0 0
2281 1 16.887762120815005 20.475323413573 1.5378088375859997 0 0 0
2287 1 20.265314544978004 20.475323413573 1.5378088375859997 0 0 0
2293 1 23.642866969141004 20.475323413573 1.5378088375859997 0 0 0
2299 1 27.020419393304003 20.475323413573 1.5378088375859997 0 0 0
2305 1 30.397971817467003 20.475323413573 1.5378088375859997 0 0 0
2311 1 33.77552424163 20.475323413573 1.5378088375859997 0 0 0
2317 1 37.153076665793 20.475323413573 1.5378088375859997 0 0 0
2323 1 40.530629089956 20.475323413573 1.5378088375859997 0 0 0
2329 1 43.908181514119 20.475323413573 1.5378088375859997 0 0 0
2335 1 47.285733938282 20.475323413573 1.5378088375859997 0 0 0
2161 1 50.663286362445 20.475323413573 1.5378088375859997 -1 0 0
2167 1 54.040838786608 20.475323413573 1.5378088375859997 -1 0 0
2173 1 57.418391210771 20.475323413573 1.5378088375859997 -1 0 0
2179 1 60.795943634934 20.475323413573 1.5378088375859997 -1 0 0
2185 1 64.173496059097 20.475323413573 1.5378088375859997 -1 0 0
2191 1 67.55104848326 20.475323413573 1.5378088375859997 -1 0 0
2197 1 70.928600907423 20.475323413573 1.5378088375859997 -1 0 0
2203 1 74.306153331586 20.475323413573 1.5378088375859997 -1 0 0
2209 1 77.683705755749 20.475323413573 1.5378088375859997 -1 0 0
2215 1 81.061258179912 20.475323413573 1.5378088375859997 -1 0 0
2221 1 84.438810604075 20.475323413573 1.5378088375859997 -1 0 0
2227 1 87.816363028238 20.475323413573 1.5378088375859997 -1 0 0
2233 1 91.193915452401 20.475323413573 1.5378088375859997 -1 0 0
2239 1 94.571467876564 20.475323413573 1.5378088375859997 -1 0 0
2245 1 97.949020300727 20.475323413573 1.5378088375859997 -1 0 0
2253 3 0 22.425354214865003 0 0 0 0
2252 1 1.6887762120819971 23.400369615512 1.5378088375859997 0 0 0
2259 3 3.3775524241629995 22.425354214865003 0 0 0 0
2258 1 5.066328636245004 23.400369615512 1.5378088375859997 0 0 0
2265 3 6.755104848325999 22.425354214865003 0 0 0 0
2264 1 8.443881060408003 23.400369615512 1.5378088375859997 0 0 0
2271 3 10.132657272488999 22.425354214865003 0 0 0 0
2270 1 11.821433484571003 23.400369615512 1.5378088375859997 0 0 0
2277 3 13.510209696652005 22.425354214865003 0 0 0 0
2276 1 15.198985908733995 23.400369615512 1.5378088375859997 0 0 0
2283 3 16.887762120815005 22.425354214865003 0 0 0 0
2282 1 18.576538332896995 23.400369615512 1.5378088375859997 0 0 0
2289 3 20.265314544978004 22.425354214865003 0 0 0 0
2288 1 21.954090757059994 23.400369615512 1.5378088375859997 0 0 0
2295 3 23.642866969141004 22.425354214865003 0 0 0 0
2301 3 27.020419393304003 22.425354214865003 0 0 0 0
2294 1 25.331643181222994 23.400369615512 1.5378088375859997 0 0 0
2300 1 28.709195605386007 23.400369615512 1.5378088375859997 0 0 0
2307 3 30.397971817467003 22.425354214865003 0 0 0 0
2306 1 32.08674802954901 23.400369615512 1.5378088375859997 0 0 0
2313 3 33.77552424163 22.425354214865003 0 0 0 0
2312 1 35.464300453712006 23.400369615512 1.5378088375859997 0 0 0
2319 3 37.153076665793 22.425354214865003 0 0 0 0
2318 1 38.841852877875006 23.400369615512 1.5378088375859997 0 0 0
2325 3 40.530629089956 22.425354214865003 0 0 0 0
2324 1 42.219405302038005 23.400369615512 1.5378088375859997 0 0 0
2331 3 43.908181514119 22.425354214865003 0 0 0 0
2330 1 45.596957726201005 23.400369615512 1.5378088375859997 0 0 0
2337 3 47.285733938282 22.425354214865003 0 0 0 0
2336 1 48.974510150364004 23.400369615512 1.5378088375859997 0 0 0
2163 3 50.663286362445 22.425354214865003 0 -1 0 0
2162 1 52.352062574527 23.400369615512 1.5378088375859997 -1 0 0
2169 3 54.040838786608 22.425354214865003 0 -1 0 0
2168 1 55.729614998689996 23.400369615512 1.5378088375859997 -1 0 0
2175 3 57.418391210771 22.425354214865003 0 -1 0 0
2174 1 59.107167422852996 23.400369615512 1.5378088375859997 -1 0 0
2181 3 60.795943634934 22.425354214865003 0 -1 0 0
2180 1 62.484719847015995 23.400369615512 1.5378088375859997 -1 0 0
2187 3 64.173496059097 22.425354214865003 0 -1 0 0
2186 1 65.862272271179 23.400369615512 1.5378088375859997 -1 0 0
2193 3 67.55104848326 22.425354214865003 0 -1 0 0
2192 1 69.23982469534201 23.400369615512 1.5378088375859997 -1 0 0
2199 3 70.928600907423 22.425354214865003 0 -1 0 0
2198 1 72.617377119505 23.400369615512 1.5378088375859997 -1 0 0
2205 3 74.306153331586 22.425354214865003 0 -1 0 0
2211 3 77.683705755749 22.425354214865003 0 -1 0 0
2204 1 75.99492954366801 23.400369615512 1.5378088375859997 -1 0 0
2210 1 79.37248196783099 23.400369615512 1.5378088375859997 -1 0 0
2217 3 81.061258179912 22.425354214865003 0 -1 0 0
2216 1 82.750034391994 23.400369615512 1.5378088375859997 -1 0 0
2223 3 84.438810604075 22.425354214865003 0 -1 0 0
2222 1 86.12758681615699 23.400369615512 1.5378088375859997 -1 0 0
2229 3 87.816363028238 22.425354214865003 0 -1 0 0
2228 1 89.50513924032 23.400369615512 1.5378088375859997 -1 0 0
2235 3 91.193915452401 22.425354214865003 0 -1 0 0