LAMMPS data file via write_data, version 29 Aug 2024, timestep = 2, units = metal

9180 atoms
9 atom types

0 101.32657272489 xlo xhi
0 99.451570865926 ylo yhi
-50 50 zlo zhi

Masses

1 92.90637
2 92.90637
3 92.90637
4 32.06
5 32.06
6 32.06
7 32.06
8 32.06
9 32.06

Atoms # atomic

1534 5 1.6887762120817307 1.9500289528748267 0.017809053956108222 0 0 0
1711 1 2.46991608897048e-14 2.9245975571447262 1.5357042591898673 0 0 0
1717 1 3.377552424163029 2.924597557144726 1.5357042591898662 0 0 0
1540 5 5.066328636244735 1.9500289528748267 0.017809053956108163 0 0 0
1713 5 1.5871428573277897e-13 4.875075154813827 0.017809053956109974 0 0 0
1719 5 3.3775524241631607 4.875075154813827 0.017809053956109655 0 0 0
1712 1 1.6887762120815912 5.849643759083726 1.535704259189868 0 0 0
1718 1 5.0663286362445925 5.849643759083726 1.535704259189868 0 0 0
1723 1 6.755104848326029 2.9245975571447262 1.5357042591898669 0 0 0
1546 5 8.443881060407733 1.950028952874827 0.01780905395610847 0 0 0
1729 1 10.132657272489029 2.9245975571447262 1.5357042591898669 0 0 0
1552 5 11.821433484570735 1.9500289528748274 0.017809053956109346 0 0 0
1725 5 6.7551048483261615 4.8750751548138265 0.017809053956109183 0 0 0
1731 5 10.132657272489162 4.8750751548138265 0.01780905395610933 0 0 0
1724 1 8.443881060407591 5.849643759083726 1.5357042591898677 0 0 0
1730 1 11.821433484570594 5.849643759083726 1.535704259189868 0 0 0
1735 1 13.510209696652028 2.9245975571447267 1.5357042591898675 0 0 0
1558 5 15.198985908733732 1.950028952874827 0.017809053956108753 0 0 0
1741 1 16.88776212081503 2.9245975571447262 1.5357042591898666 0 0 0
1737 5 13.510209696652163 4.875075154813826 0.017809053956108576 0 0 0
1743 5 16.887762120815164 4.8750751548138265 0.017809053956109343 0 0 0
1736 1 15.198985908733594 5.849643759083726 1.5357042591898677 0 0 0
1564 5 18.57653833289673 1.950028952874827 0.017809053956108375 0 0 0
1747 1 20.265314544978025 2.9245975571447262 1.5357042591898669 0 0 0
1570 5 21.95409075705973 1.950028952874827 0.01780905395610837 0 0 0
1753 1 23.64286696914103 2.9245975571447262 1.5357042591898669 0 0 0
1749 5 20.265314544978164 4.8750751548138265 0.01780905395610917 0 0 0
1755 5 23.642866969141163 4.8750751548138265 0.01780905395610915 0 0 0
1742 1 18.576538332896597 5.849643759083726 1.535704259189868 0 0 0
1748 1 21.954090757059596 5.849643759083726 1.535704259189868 0 0 0
1576 5 25.33164318122273 1.9500289528748267 0.01780905395610809 0 0 0
1759 1 27.020419393304028 2.9245975571447254 1.5357042591898658 0 0 0
1582 5 28.709195605385737 1.9500289528748267 0.01780905395610791 0 0 0
1761 5 27.020419393304163 4.875075154813827 0.01780905395611012 0 0 0
1754 1 25.331643181222592 5.849643759083726 1.5357042591898682 0 0 0
1760 1 28.709195605385595 5.849643759083726 1.535704259189868 0 0 0
1765 1 30.39797181746703 2.9245975571447262 1.535704259189867 0 0 0
1588 5 32.08674802954874 1.950028952874827 0.01780905395610846 0 0 0
1771 1 33.77552424163003 2.9245975571447262 1.5357042591898669 0 0 0
1594 5 35.464300453711736 1.950028952874827 0.01780905395610846 0 0 0
1767 5 30.397971817467162 4.875075154813826 0.017809053956108836 0 0 0
1773 5 33.775524241630166 4.8750751548138265 0.017809053956109103 0 0 0
1766 1 32.086748029548595 5.849643759083725 1.5357042591898673 0 0 0
1772 1 35.464300453711594 5.849643759083726 1.535704259189868 0 0 0
1777 1 37.15307666579303 2.9245975571447262 1.5357042591898669 0 0 0
1600 5 38.841852877874736 1.950028952874827 0.01780905395610846 0 0 0
1783 1 40.53062908995603 2.9245975571447262 1.5357042591898669 0 0 0
1779 5 37.153076665793165 4.8750751548138265 0.017809053956109128 0 0 0
1785 5 40.530629089956165 4.8750751548138265 0.017809053956109128 0 0 0
1778 1 38.841852877874594 5.849643759083726 1.535704259189868 0 0 0
1606 5 42.219405302037735 1.950028952874827 0.01780905395610846 0 0 0
1789 1 43.90818151411903 2.9245975571447262 1.5357042591898669 0 0 0
1612 5 45.596957726200735 1.950028952874827 0.017809053956108458 0 0 0
1795 1 47.28573393828203 2.9245975571447262 1.5357042591898666 0 0 0
1791 5 43.908181514119164 4.8750751548138265 0.017809053956109128 0 0 0
1797 5 47.28573393828216 4.8750751548138265 0.017809053956109194 0 0 0
1784 1 42.21940530203759 5.849643759083726 1.535704259189868 0 0 0
1790 1 45.59695772620059 5.849643759083726 1.535704259189868 0 0 0
1618 5 48.974510150363734 1.9500289528748271 0.017809053956108895 0 0 0
1444 5 52.352062574526734 1.950028952874827 0.017809053956108822 -1 0 0
1621 1 50.66328636244503 2.9245975571447267 1.5357042591898675 -1 0 0
1623 5 50.663286362445156 4.875075154813826 0.01780905395610875 -1 0 0
1796 1 48.97451015036359 5.849643759083726 1.5357042591898684 0 0 0
1622 1 52.35206257452659 5.849643759083726 1.535704259189868 -1 0 0
1627 1 54.04083878660803 2.9245975571447262 1.5357042591898666 -1 0 0
1450 5 55.72961499868973 1.950028952874827 0.017809053956108364 -1 0 0
1633 1 57.41839121077103 2.9245975571447262 1.5357042591898669 -1 0 0
1456 5 59.10716742285273 1.950028952874827 0.017809053956108354 -1 0 0
1629 5 54.040838786608155 4.8750751548138265 0.017809053956109173 -1 0 0
1635 5 57.418391210771155 4.8750751548138265 0.017809053956109162 -1 0 0
1628 1 55.72961499868959 5.849643759083726 1.535704259189868 -1 0 0
1634 1 59.10716742285259 5.849643759083726 1.535704259189868 -1 0 0
1639 1 60.79594363493403 2.9245975571447262 1.5357042591898669 -1 0 0
1462 5 62.48471984701573 1.9500289528748276 0.01780905395610958 -1 0 0
1645 1 64.17349605909703 2.9245975571447262 1.5357042591898669 -1 0 0
1641 5 60.795943634934154 4.8750751548138265 0.01780905395610955 -1 0 0
1647 5 64.17349605909716 4.8750751548138265 0.01780905395610898 -1 0 0
1640 1 62.48471984701559 5.849643759083726 1.535704259189868 -1 0 0
1468 5 65.86227227117872 1.9500289528748265 0.01780905395610774 -1 0 0
1651 1 67.55104848326003 2.924597557144725 1.535704259189865 -1 0 0
1474 5 69.23982469534174 1.950028952874827 0.01780905395610851 -1 0 0
1657 1 70.92860090742303 2.924597557144727 1.5357042591898686 -1 0 0
1653 5 67.55104848326016 4.875075154813827 0.01780905395611019 -1 0 0
1659 5 70.92860090742316 4.875075154813825 0.01780905395610806 -1 0 0
1646 1 65.8622722711786 5.849643759083726 1.535704259189868 -1 0 0
1652 1 69.2398246953416 5.849643759083726 1.5357042591898677 -1 0 0
1480 5 72.61737711950472 1.950028952874827 0.017809053956108423 -1 0 0
1663 1 74.30615333158603 2.924597557144725 1.535704259189865 -1 0 0
1486 5 75.99492954366774 1.950028952874827 0.017809053956108507 -1 0 0
1665 5 74.30615333158616 4.875075154813827 0.017809053956110217 -1 0 0
1658 1 72.6173771195046 5.849643759083726 1.5357042591898677 -1 0 0
1664 1 75.9949295436676 5.849643759083726 1.5357042591898677 -1 0 0
1669 1 77.68370575574903 2.924597557144727 1.5357042591898686 -1 0 0
1492 5 79.37248196783072 1.950028952874827 0.01780905395610843 -1 0 0
1675 1 81.06125817991203 2.924597557144725 1.535704259189865 -1 0 0
1498 5 82.75003439199374 1.950028952874827 0.017809053956108507 -1 0 0
1671 5 77.68370575574916 4.875075154813825 0.01780905395610806 -1 0 0
1677 5 81.06125817991216 4.875075154813827 0.017809053956110217 -1 0 0
1670 1 79.3724819678306 5.849643759083726 1.5357042591898677 -1 0 0
1676 1 82.7500343919936 5.849643759083726 1.5357042591898677 -1 0 0
1681 1 84.43881060407503 2.924597557144727 1.5357042591898686 -1 0 0
1504 5 86.12758681615672 1.950028952874827 0.017809053956108427 -1 0 0
1687 1 87.81636302823803 2.924597557144725 1.535704259189865 -1 0 0
1683 5 84.43881060407516 4.875075154813825 0.01780905395610806 -1 0 0
1689 5 87.81636302823816 4.875075154813827 0.017809053956110217 -1 0 0
1682 1 86.1275868161566 5.849643759083726 1.5357042591898677 -1 0 0
1510 5 89.50513924031974 1.950028952874827 0.017809053956108507 -1 0 0
1693 1 91.19391545240103 2.924597557144727 1.5357042591898686 -1 0 0
1516 5 92.88269166448272 1.9500289528748271 0.017809053956108777 -1 0 0
1699 1 94.57146787656403 2.9245975571447262 1.5357042591898669 -1 0 0
1695 5 91.19391545240116 4.875075154813825 0.017809053956108056 -1 0 0
1701 5 94.57146787656416 4.875075154813827 0.017809053956110456 -1 0 0
1688 1 89.5051392403196 5.849643759083726 1.5357042591898677 -1 0 0
1694 1 92.88269166448259 5.849643759083726 1.5357042591898677 -1 0 0
1522 5 96.26024408864573 1.950028952874827 0.01780905395610845 -1 0 0
1705 1 97.94902030072703 2.9245975571447262 1.5357042591898669 -1 0 0
1528 5 99.63779651280872 1.9500289528748267 0.017809053956108385 -1 0 0
1707 5 97.94902030072716 4.875075154813825 0.017809053956107868 -1 0 0
1700 1 96.26024408864559 5.849643759083726 1.5357042591898677 -1 0 0
1706 1 99.63779651280859 5.849643759083726 1.5357042591898677 -1 0 0
1714 5 1.688776212081731 7.800121356752825 0.017809053956107816 0 0 0
1891 1 2.4702318435194673e-14 8.774689961022727 1.5357042591898666 0 0 0
1897 1 3.377552424163029 8.774689961022727 1.5357042591898655 0 0 0
1720 5 5.066328636244735 7.800121356752825 0.01780905395610769 0 0 0
1893 5 1.586310456641485e-13 10.725167558691828 0.017809053956109096 0 0 0
1899 5 3.3775524241631607 10.725167558691828 0.017809053956108722 0 0 0
1892 1 1.6887762120815912 11.699736162961726 1.535704259189867 0 0 0
1898 1 5.0663286362445925 11.699736162961726 1.5357042591898673 0 0 0
1903 1 6.755104848326029 8.774689961022727 1.5357042591898662 0 0 0
1726 5 8.443881060407733 7.800121356752825 0.017809053956107865 0 0 0
1909 1 10.132657272489029 8.774689961022727 1.535704259189866 0 0 0
1732 5 11.821433484570735 7.800121356752826 0.0178090539561088 0 0 0
1905 5 6.7551048483261615 10.725167558691828 0.01780905395610823 0 0 0
1911 5 10.132657272489162 10.725167558691828 0.017809053956108458 0 0 0
1904 1 8.443881060407591 11.699736162961726 1.535704259189867 0 0 0
1910 1 11.821433484570594 11.699736162961726 1.5357042591898675 0 0 0
1915 1 13.51020969665203 8.774689961022727 1.5357042591898669 0 0 0
1738 5 15.198985908733732 7.800121356752825 0.017809053956108118 0 0 0
1921 1 16.88776212081503 8.774689961022727 1.5357042591898662 0 0 0
1917 5 13.510209696652163 10.725167558691826 0.01780905395610766 0 0 0
1923 5 16.887762120815164 10.725167558691828 0.0178090539561081 0 0 0
1916 1 15.198985908733595 11.699736162961726 1.535704259189867 0 0 0
1744 5 18.57653833289673 7.800121356752825 0.017809053956107948 0 0 0
1927 1 20.265314544978025 8.774689961022727 1.5357042591898662 0 0 0
1750 5 21.95409075705973 7.800121356752825 0.017809053956107934 0 0 0
1933 1 23.642866969141025 8.774689961022727 1.5357042591898662 0 0 0
1929 5 20.265314544978164 10.725167558691828 0.017809053956108226 0 0 0
1935 5 23.642866969141163 10.725167558691828 0.017809053956108458 0 0 0
1922 1 18.576538332896593 11.699736162961726 1.5357042591898675 0 0 0
1928 1 21.954090757059593 11.699736162961726 1.5357042591898675 0 0 0
1756 5 25.33164318122273 7.800121356752825 0.01780905395610754 0 0 0
1939 1 27.020419393304028 8.774689961022725 1.5357042591898649 0 0 0
1762 5 28.709195605385737 7.8001213567528245 0.017809053956107247 0 0 0
1941 5 27.020419393304163 10.725167558691828 0.017809053956109308 0 0 0
1934 1 25.331643181222592 11.699736162961726 1.5357042591898677 0 0 0
1940 1 28.709195605385595 11.699736162961726 1.5357042591898673 0 0 0
1945 1 30.39797181746703 8.774689961022727 1.5357042591898666 0 0 0
1768 5 32.08674802954874 7.800121356752825 0.017809053956107906 0 0 0
1951 1 33.77552424163003 8.774689961022727 1.5357042591898662 0 0 0
1774 5 35.464300453711736 7.800121356752825 0.017809053956107903 0 0 0
1947 5 30.397971817467162 10.725167558691826 0.01780905395610789 0 0 0
1953 5 33.775524241630166 10.725167558691828 0.01780905395610817 0 0 0
1946 1 32.086748029548595 11.699736162961726 1.5357042591898666 0 0 0
1952 1 35.464300453711594 11.699736162961726 1.5357042591898673 0 0 0
1957 1 37.15307666579303 8.774689961022727 1.5357042591898662 0 0 0
1780 5 38.841852877874736 7.800121356752825 0.017809053956107903 0 0 0
1963 1 40.53062908995603 8.774689961022727 1.5357042591898662 0 0 0
1959 5 37.153076665793165 10.725167558691828 0.017809053956108194 0 0 0
1965 5 40.530629089956165 10.725167558691828 0.017809053956108194 0 0 0
1958 1 38.841852877874594 11.699736162961726 1.5357042591898673 0 0 0
1786 5 42.219405302037735 7.800121356752825 0.017809053956107903 0 0 0
1969 1 43.90818151411903 8.774689961022727 1.5357042591898662 0 0 0
1792 5 45.596957726200735 7.800121356752825 0.017809053956107903 0 0 0
1975 1 47.28573393828203 8.774689961022727 1.5357042591898662 0 0 0
1971 5 43.908181514119164 10.725167558691828 0.017809053956108194 0 0 0
1977 5 47.28573393828216 10.725167558691828 0.01780905395610826 0 0 0
1964 1 42.21940530203759 11.699736162961726 1.5357042591898673 0 0 0
1970 1 45.59695772620059 11.699736162961726 1.5357042591898673 0 0 0
1798 5 48.974510150363734 7.800121356752825 0.01780905395610824 0 0 0
1624 5 52.352062574526734 7.800121356752825 0.017809053956108278 -1 0 0
1801 1 50.66328636244503 8.774689961022727 1.535704259189867 -1 0 0
1803 5 50.663286362445156 10.725167558691826 0.017809053956107906 -1 0 0
1976 1 48.97451015036359 11.699736162961726 1.5357042591898677 0 0 0
1802 1 52.35206257452659 11.699736162961726 1.5357042591898673 -1 0 0
1807 1 54.04083878660803 8.774689961022727 1.5357042591898662 -1 0 0
1630 5 55.72961499868973 7.800121356752825 0.017809053956107934 -1 0 0
1813 1 57.41839121077103 8.774689961022727 1.5357042591898662 -1 0 0
1636 5 59.10716742285273 7.800121356752825 0.017809053956107927 -1 0 0
1809 5 54.040838786608155 10.725167558691828 0.017809053956108236 -1 0 0
1815 5 57.418391210771155 10.725167558691828 0.017809053956108222 -1 0 0
1808 1 55.72961499868959 11.699736162961726 1.5357042591898673 -1 0 0
1814 1 59.10716742285259 11.699736162961726 1.5357042591898673 -1 0 0
1819 1 60.79594363493403 8.774689961022727 1.535704259189866 -1 0 0
1642 5 62.48471984701573 7.800121356752826 0.017809053956109117 -1 0 0
1825 1 64.17349605909703 8.774689961022727 1.535704259189866 -1 0 0
1821 5 60.795943634934154 10.725167558691828 0.017809053956108697 -1 0 0
1827 5 64.17349605909716 10.725167558691828 0.01780905395610811 -1 0 0
1820 1 62.48471984701559 11.699736162961726 1.5357042591898675 -1 0 0
1648 5 65.86227227117872 7.8001213567528245 0.01780905395610719 -1 0 0
1831 1 67.55104848326003 8.774689961022725 1.5357042591898642 -1 0 0
1654 5 69.23982469534174 7.800121356752825 0.017809053956107896 -1 0 0
1837 1 70.92860090742303 8.774689961022728 1.5357042591898682 -1 0 0
1833 5 67.55104848326016 10.725167558691828 0.017809053956109332 -1 0 0
1839 5 70.92860090742316 10.725167558691826 0.017809053956107174 -1 0 0
1826 1 65.8622722711786 11.699736162961726 1.5357042591898673 -1 0 0
1832 1 69.2398246953416 11.699736162961726 1.5357042591898673 -1 0 0
1660 5 72.61737711950472 7.800121356752825 0.01780905395610792 -1 0 0
1843 1 74.30615333158603 8.774689961022725 1.5357042591898642 -1 0 0
1666 5 75.99492954366774 7.800121356752825 0.017809053956107896 -1 0 0
1845 5 74.30615333158616 10.725167558691828 0.017809053956109353 -1 0 0
1838 1 72.6173771195046 11.699736162961726 1.5357042591898673 -1 0 0
1844 1 75.9949295436676 11.699736162961726 1.5357042591898673 -1 0 0
1849 1 77.68370575574903 8.774689961022728 1.5357042591898682 -1 0 0
1672 5 79.37248196783072 7.800121356752825 0.017809053956107927 -1 0 0
1855 1 81.06125817991203 8.774689961022725 1.5357042591898642 -1 0 0
1678 5 82.75003439199374 7.800121356752825 0.017809053956107896 -1 0 0
1851 5 77.68370575574916 10.725167558691826 0.017809053956107174 -1 0 0
1857 5 81.06125817991216 10.725167558691828 0.017809053956109353 -1 0 0
1850 1 79.3724819678306 11.699736162961726 1.5357042591898673 -1 0 0
1856 1 82.7500343919936 11.699736162961726 1.5357042591898673 -1 0 0
1861 1 84.43881060407503 8.774689961022728 1.5357042591898682 -1 0 0
1684 5 86.12758681615672 7.800121356752825 0.017809053956107927 -1 0 0
1867 1 87.81636302823803 8.774689961022725 1.5357042591898642 -1 0 0
1863 5 84.43881060407516 10.725167558691826 0.017809053956107174 -1 0 0
1869 5 87.81636302823816 10.725167558691828 0.017809053956109353 -1 0 0
1862 1 86.1275868161566 11.699736162961726 1.5357042591898673 -1 0 0
1690 5 89.50513924031974 7.800121356752825 0.017809053956107896 -1 0 0
1873 1 91.19391545240103 8.774689961022728 1.535704259189868 -1 0 0
1696 5 92.88269166448272 7.800121356752825 0.01780905395610834 -1 0 0
1879 1 94.57146787656403 8.774689961022727 1.535704259189866 -1 0 0
1875 5 91.19391545240116 10.725167558691826 0.017809053956107174 -1 0 0
1881 5 94.57146787656416 10.725167558691828 0.01780905395610957 -1 0 0
1868 1 89.5051392403196 11.699736162961726 1.5357042591898673 -1 0 0
1874 1 92.88269166448259 11.699736162961726 1.5357042591898673 -1 0 0
1702 5 96.26024408864573 7.800121356752825 0.017809053956107955 -1 0 0
1885 1 97.94902030072703 8.774689961022727 1.535704259189866 -1 0 0
1708 5 99.63779651280872 7.800121356752825 0.01780905395610788 -1 0 0
1887 5 97.94902030072716 10.725167558691826 0.017809053956107046 -1 0 0
1880 1 96.26024408864559 11.699736162961726 1.5357042591898673 -1 0 0
1886 1 99.63779651280859 11.699736162961726 1.5357042591898669 -1 0 0
1894 5 1.6887762120817307 13.650213760630825 0.017809053956107067 0 0 0
1900 5 5.066328636244735 13.650213760630825 0.017809053956106973 0 0 0
2071 1 2.4760651143176316e-14 14.624782364900723 1.535704259189867 0 0 0
2077 1 3.377552424163029 14.624782364900723 1.535704259189866 0 0 0
2073 5 1.5878568263139834e-13 16.575259962569824 0.017809053956110616 0 0 0
2079 5 3.3775524241631607 16.575259962569824 0.01780905395611017 0 0 0
2072 1 1.6887762120815912 17.549828566839725 1.5357042591898673 0 0 0
2078 1 5.0663286362445925 17.549828566839725 1.5357042591898675 0 0 0
1906 5 8.443881060407733 13.650213760630825 0.017809053956107178 0 0 0
1912 5 11.821433484570735 13.650213760630825 0.01780905395610812 0 0 0
2083 1 6.755104848326029 14.624782364900723 1.5357042591898664 0 0 0
2089 1 10.132657272489029 14.624782364900723 1.5357042591898666 0 0 0
2085 5 6.7551048483261615 16.575259962569824 0.017809053956109717 0 0 0
2091 5 10.132657272489162 16.575259962569824 0.017809053956109894 0 0 0
2084 1 8.443881060407593 17.549828566839725 1.5357042591898673 0 0 0
2090 1 11.821433484570594 17.549828566839725 1.535704259189867 0 0 0
1918 5 15.198985908733732 13.650213760630825 0.017809053956107466 0 0 0
2095 1 13.510209696652028 14.624782364900723 1.5357042591898673 0 0 0
2101 1 16.88776212081503 14.624782364900723 1.5357042591898664 0 0 0
2097 5 13.510209696652163 16.575259962569824 0.01780905395610912 0 0 0
2103 5 16.887762120815164 16.575259962569824 0.017809053956109953 0 0 0
2096 1 15.198985908733594 17.549828566839725 1.535704259189867 0 0 0
1924 5 18.57653833289673 13.650213760630825 0.01780905395610719 0 0 0
1930 5 21.95409075705973 13.650213760630825 0.01780905395610718 0 0 0
2107 1 20.265314544978025 14.624782364900723 1.5357042591898664 0 0 0
2113 1 23.642866969141025 14.624782364900723 1.5357042591898666 0 0 0
2109 5 20.265314544978164 16.575259962569824 0.017809053956109766 0 0 0
2115 5 23.642866969141163 16.575259962569824 0.017809053956109752 0 0 0
2102 1 18.576538332896593 17.549828566839725 1.5357042591898673 0 0 0
2108 1 21.954090757059596 17.549828566839725 1.5357042591898673 0 0 0
1936 5 25.33164318122273 13.650213760630825 0.017809053956106904 0 0 0
1942 5 28.709195605385737 13.650213760630825 0.017809053956106588 0 0 0
2119 1 27.020419393304028 14.624782364900723 1.5357042591898655 0 0 0
2121 5 27.020419393304163 16.575259962569824 0.017809053956110724 0 0 0
2114 1 25.331643181222596 17.549828566839725 1.5357042591898677 0 0 0
2120 1 28.709195605385595 17.549828566839725 1.5357042591898675 0 0 0
1948 5 32.08674802954874 13.650213760630825 0.01780905395610707 0 0 0
1954 5 35.464300453711736 13.650213760630825 0.01780905395610707 0 0 0
2125 1 30.39797181746703 14.624782364900723 1.5357042591898669 0 0 0
2131 1 33.77552424163003 14.624782364900723 1.5357042591898666 0 0 0
2127 5 30.397971817467162 16.575259962569824 0.017809053956109377 0 0 0
2133 5 33.775524241630166 16.575259962569824 0.0178090539561097 0 0 0
2126 1 32.086748029548595 17.549828566839725 1.5357042591898669 0 0 0
2132 1 35.464300453711594 17.549828566839725 1.5357042591898675 0 0 0
1960 5 38.841852877874736 13.650213760630825 0.01780905395610707 0 0 0
2137 1 37.15307666579303 14.624782364900723 1.5357042591898666 0 0 0
2143 1 40.53062908995603 14.624782364900723 1.5357042591898666 0 0 0
2139 5 37.153076665793165 16.575259962569824 0.017809053956109728 0 0 0
2145 5 40.530629089956165 16.575259962569824 0.017809053956109724 0 0 0
2138 1 38.841852877874594 17.549828566839725 1.5357042591898675 0 0 0
1966 5 42.219405302037735 13.650213760630825 0.017809053956107067 0 0 0
1972 5 45.596957726200735 13.650213760630825 0.01780905395610707 0 0 0
2149 1 43.90818151411903 14.624782364900723 1.5357042591898666 0 0 0
2155 1 47.28573393828203 14.624782364900723 1.5357042591898666 0 0 0
2151 5 43.908181514119164 16.575259962569824 0.017809053956109724 0 0 0
2157 5 47.28573393828216 16.575259962569824 0.017809053956109804 0 0 0
2144 1 42.21940530203759 17.549828566839725 1.5357042591898675 0 0 0
2150 1 45.59695772620059 17.549828566839725 1.5357042591898675 0 0 0
1978 5 48.974510150363734 13.650213760630825 0.01780905395610764 0 0 0
1804 5 52.352062574526734 13.650213760630825 0.017809053956107528 -1 0 0
1981 1 50.66328636244503 14.624782364900723 1.5357042591898675 -1 0 0
1983 5 50.663286362445156 16.575259962569824 0.017809053956109273 -1 0 0
2156 1 48.97451015036359 17.549828566839725 1.535704259189868 0 0 0
1982 1 52.35206257452659 17.549828566839725 1.5357042591898673 -1 0 0
1810 5 55.72961499868973 13.650213760630825 0.0178090539561071 -1 0 0
1816 5 59.10716742285273 13.650213760630825 0.017809053956107098 -1 0 0
1987 1 54.04083878660803 14.624782364900723 1.5357042591898666 -1 0 0
1993 1 57.41839121077103 14.624782364900723 1.5357042591898666 -1 0 0
1989 5 54.040838786608155 16.575259962569824 0.01780905395610982 -1 0 0
1995 5 57.418391210771155 16.575259962569824 0.0178090539561098 -1 0 0
1988 1 55.72961499868959 17.549828566839725 1.5357042591898675 -1 0 0
1994 1 59.10716742285259 17.549828566839725 1.5357042591898675 -1 0 0
1822 5 62.48471984701573 13.650213760630825 0.017809053956108382 -1 0 0
1999 1 60.79594363493403 14.624782364900723 1.5357042591898666 -1 0 0
2005 1 64.17349605909703 14.624782364900723 1.5357042591898666 -1 0 0
2001 5 60.795943634934154 16.575259962569824 0.017809053956110196 -1 0 0
2007 5 64.17349605909716 16.575259962569824 0.017809053956109638 -1 0 0
2000 1 62.48471984701559 17.549828566839725 1.5357042591898673 -1 0 0
1828 5 65.86227227117872 13.650213760630825 0.017809053956106633 -1 0 0
1834 5 69.23982469534174 13.650213760630825 0.017809053956107247 -1 0 0
2011 1 67.55104848326003 14.624782364900723 1.5357042591898649 -1 0 0
2017 1 70.92860090742303 14.624782364900724 1.5357042591898686 -1 0 0
2013 5 67.55104848326016 16.575259962569824 0.017809053956110762 -1 0 0
2019 5 70.92860090742316 16.575259962569824 0.01780905395610859 -1 0 0
2006 1 65.8622722711786 17.549828566839725 1.5357042591898673 -1 0 0
2012 1 69.2398246953416 17.549828566839725 1.5357042591898675 -1 0 0
1840 5 72.61737711950472 13.650213760630825 0.01780905395610723 -1 0 0
1846 5 75.99492954366774 13.650213760630825 0.017809053956107244 -1 0 0
2023 1 74.30615333158603 14.624782364900723 1.5357042591898649 -1 0 0
2025 5 74.30615333158616 16.575259962569824 0.017809053956110772 -1 0 0
2018 1 72.6173771195046 17.549828566839725 1.5357042591898673 -1 0 0
2024 1 75.9949295436676 17.549828566839725 1.5357042591898675 -1 0 0
1852 5 79.37248196783072 13.650213760630825 0.01780905395610723 -1 0 0
1858 5 82.75003439199374 13.650213760630825 0.017809053956107244 -1 0 0
2029 1 77.68370575574903 14.624782364900724 1.5357042591898686 -1 0 0
2035 1 81.06125817991203 14.624782364900723 1.5357042591898649 -1 0 0
2031 5 77.68370575574916 16.575259962569824 0.01780905395610859 -1 0 0
2037 5 81.06125817991216 16.575259962569824 0.017809053956110772 -1 0 0
2030 1 79.3724819678306 17.549828566839725 1.5357042591898673 -1 0 0
2036 1 82.7500343919936 17.549828566839725 1.5357042591898675 -1 0 0
1864 5 86.12758681615672 13.650213760630825 0.01780905395610723 -1 0 0
2041 1 84.43881060407503 14.624782364900724 1.5357042591898686 -1 0 0
2047 1 87.81636302823803 14.624782364900723 1.5357042591898649 -1 0 0
2043 5 84.43881060407516 16.575259962569824 0.01780905395610859 -1 0 0
2049 5 87.81636302823816 16.575259962569824 0.017809053956110772 -1 0 0
2042 1 86.1275868161566 17.549828566839725 1.5357042591898673 -1 0 0
1870 5 89.50513924031974 13.650213760630825 0.01780905395610724 -1 0 0
1876 5 92.88269166448272 13.650213760630825 0.017809053956107546 -1 0 0
2053 1 91.19391545240103 14.624782364900724 1.5357042591898686 -1 0 0
2059 1 94.57146787656403 14.624782364900723 1.5357042591898669 -1 0 0
2055 5 91.19391545240116 16.575259962569824 0.01780905395610859 -1 0 0
2061 5 94.57146787656416 16.575259962569824 0.017809053956111074 -1 0 0
2048 1 89.5051392403196 17.549828566839725 1.5357042591898675 -1 0 0
2054 1 92.88269166448259 17.549828566839725 1.5357042591898673 -1 0 0
1882 5 96.26024408864573 13.650213760630825 0.017809053956107213 -1 0 0
1888 5 99.63779651280872 13.650213760630825 0.01780905395610709 -1 0 0
2065 1 97.94902030072703 14.624782364900723 1.5357042591898669 -1 0 0
2067 5 97.94902030072716 16.575259962569824 0.017809053956108448 -1 0 0
2060 1 96.26024408864559 17.549828566839725 1.5357042591898675 -1 0 0
2066 1 99.63779651280859 17.549828566839725 1.5357042591898675 -1 0 0
2074 5 1.688776212081731 19.500306164508828 0.017809053956107858 0 0 0
2080 5 5.066328636244735 19.500306164508828 0.017809053956107837 0 0 0
2251 1 2.469767303228907e-14 20.47487476877873 1.5357042591898669 0 0 0
2257 1 3.377552424163029 20.47487476877873 1.535704259189866 0 0 0
2253 5 1.5876591887262776e-13 22.42535236644783 0.017809053956108635 0 0 0
2259 5 3.3775524241631607 22.42535236644783 0.01780905395610832 0 0 0
2252 1 1.6887762120815912 23.399920970717726 1.5357042591898673 0 0 0
2258 1 5.0663286362445925 23.399920970717726 1.5357042591898673 0 0 0
2086 5 8.443881060407733 19.500306164508828 0.01780905395610782 0 0 0
2092 5 11.821433484570735 19.50030616450883 0.01780905395610873 0 0 0
2263 1 6.755104848326029 20.47487476877873 1.5357042591898666 0 0 0
2269 1 10.132657272489029 20.47487476877873 1.535704259189867 0 0 0
2265 5 6.7551048483261615 22.42535236644783 0.01780905395610776 0 0 0
2271 5 10.132657272489162 22.42535236644783 0.017809053956107903 0 0 0
2264 1 8.443881060407591 23.399920970717726 1.5357042591898669 0 0 0
2270 1 11.821433484570594 23.399920970717726 1.5357042591898669 0 0 0
2098 5 15.198985908733732 19.500306164508828 0.017809053956108184 0 0 0
2275 1 13.510209696652028 20.47487476877873 1.5357042591898677 0 0 0
2281 1 16.88776212081503 20.47487476877873 1.5357042591898669 0 0 0
2277 5 13.510209696652163 22.425352366447825 0.017809053956107355 0 0 0
2283 5 16.887762120815164 22.425352366447825 0.017809053956107646 0 0 0
2276 1 15.198985908733594 23.399920970717726 1.5357042591898666 0 0 0
2104 5 18.57653833289673 19.500306164508828 0.017809053956108066 0 0 0
2110 5 21.95409075705973 19.500306164508828 0.017809053956108052 0 0 0
2287 1 20.265314544978025 20.47487476877873 1.5357042591898669 0 0 0
2293 1 23.642866969141025 20.47487476877873 1.5357042591898669 0 0 0
2289 5 20.265314544978164 22.42535236644783 0.017809053956107795 0 0 0
2295 5 23.642866969141163 22.42535236644783 0.01780905395610802 0 0 0
2282 1 18.576538332896593 23.399920970717726 1.535704259189867 0 0 0
2288 1 21.954090757059593 23.399920970717726 1.535704259189867 0 0 0
2116 5 25.33164318122273 19.500306164508828 0.01780905395610768 0 0 0
2122 5 28.709195605385737 19.500306164508828 0.017809053956107414 0 0 0
2299 1 27.020419393304028 20.47487476877873 1.5357042591898653 0 0 0
2301 5 27.020419393304163 22.42535236644783 0.017809053956108746 0 0 0
2294 1 25.331643181222592 23.399920970717726 1.5357042591898675 0 0 0
2300 1 28.709195605385595 23.399920970717726 1.5357042591898673 0 0 0
2128 5 32.08674802954874 19.500306164508828 0.017809053956107893 0 0 0
2134 5 35.464300453711736 19.500306164508828 0.017809053956107893 0 0 0
2305 1 30.39797181746703 20.47487476877873 1.5357042591898669 0 0 0
2311 1 33.77552424163003 20.47487476877873 1.5357042591898666 0 0 0
2307 5 30.397971817467162 22.42535236644783 0.017809053956107476 0 0 0
2313 5 33.775524241630166 22.42535236644783 0.01780905395610773 0 0 0
2306 1 32.086748029548595 23.399920970717726 1.5357042591898664 0 0 0
2312 1 35.464300453711594 23.399920970717726 1.535704259189867 0 0 0
2140 5 38.841852877874736 19.500306164508828 0.017809053956107893 0 0 0
2317 1 37.15307666579303 20.47487476877873 1.5357042591898666 0 0 0
2323 1 40.53062908995603 20.47487476877873 1.5357042591898666 0 0 0
2319 5 37.153076665793165 22.42535236644783 0.017809053956107754 0 0 0
2325 5 40.530629089956165 22.42535236644783 0.017809053956107754 0 0 0
2318 1 38.841852877874594 23.399920970717726 1.535704259189867 0 0 0
2146 5 42.219405302037735 19.500306164508828 0.017809053956107896 0 0 0
2152 5 45.596957726200735 19.500306164508828 0.017809053956107893 0 0 0
2329 1 43.90818151411903 20.47487476877873 1.5357042591898666 0 0 0
2335 1 47.28573393828203 20.47487476877873 1.5357042591898664 0 0 0
2331 5 43.908181514119164 22.42535236644783 0.017809053956107754 0 0 0
2337 5 47.28573393828216 22.42535236644783 0.01780905395610783 0 0 0
2324 1 42.21940530203759 23.399920970717726 1.535704259189867 0 0 0
2330 1 45.59695772620059 23.399920970717726 1.535704259189867 0 0 0
2158 5 48.974510150363734 19.500306164508828 0.017809053956108566 0 0 0
1984 5 52.352062574526734 19.500306164508828 0.017809053956108396 -1 0 0
2161 1 50.66328636244503 20.47487476877873 1.5357042591898675 -1 0 0
2163 5 50.663286362445156 22.42535236644783 0.017809053956107136 -1 0 0
2336 1 48.97451015036359 23.399920970717726 1.5357042591898675 0 0 0