LAMMPS data file via write_data, version 29 Aug 2024, timestep = 0, units = metal

2112 atoms
8 atom types

0 96.265609625812 xlo xhi
0 101.514889355064 ylo yhi
0 17.10979291 zlo zhi

Masses

1 72.63
2 72.63
3 72.63
4 72.63
5 127.6
6 127.6
7 127.6
8 127.6

Atoms # atomic

1103 7 0 2.1149322724410027 0 0 0 0
1102 4 2.457170499935998 4.337522000241734e-06 0.3171571469900005 0 0 0
1107 5 4.375709528446002 2.1149322724410027 0 0 0 0
1106 2 6.832880028382 4.337522000241734e-06 0.3171571469900005 0 0 0
1111 7 8.751419056892004 2.1149322724410027 0 0 0 0
1110 4 11.208589556828002 4.337522000241734e-06 0.3171571469900005 0 0 0
1115 5 13.127128585338 2.1149322724410027 0 0 0 0
1114 2 15.584299085273997 4.337522000241734e-06 0.3171571469900005 0 0 0
1119 7 17.502838113783994 2.1149322724410027 0 0 0 0
1118 4 19.960008613720007 4.337522000241734e-06 0.3171571469900005 0 0 0
1123 5 21.878547642230004 2.1149322724410027 0 0 0 0
1122 2 24.335718142166 4.337522000241734e-06 0.3171571469900005 0 0 0
1127 7 26.254257170676 2.1149322724410027 0 0 0 0
1126 4 28.711427670611997 4.337522000241734e-06 0.3171571469900005 0 0 0
1131 5 30.629966699122008 2.1149322724410027 0 0 0 0
1130 2 33.087137199058006 4.337522000241734e-06 0.3171571469900005 0 0 0
1135 7 35.005676227568 2.1149322724410027 0 0 0 0
1134 4 37.462846727504 4.337522000241734e-06 0.3171571469900005 0 0 0
1139 5 39.381385756014 2.1149322724410027 0 0 0 0
1138 2 41.838556255949996 4.337522000241734e-06 0.3171571469900005 0 0 0
1143 7 43.75709528446001 2.1149322724410027 0 0 0 0
1142 4 46.214265784396005 4.337522000241734e-06 0.3171571469900005 0 0 0
1059 5 48.132804812906 2.1149322724410027 0 -1 0 0
1058 2 50.58997531284201 4.337522000241734e-06 0.3171571469900005 -1 0 0
1063 7 52.508514341352004 2.1149322724410027 0 -1 0 0
1062 4 54.96568484128801 4.337522000241734e-06 0.3171571469900005 -1 0 0
1067 5 56.88422386979801 2.1149322724410027 0 -1 0 0
1066 2 59.341394369734004 4.337522000241734e-06 0.3171571469900005 -1 0 0
1071 7 61.259933398244 2.1149322724410027 0 -1 0 0
1070 4 63.71710389818001 4.337522000241734e-06 0.3171571469900005 -1 0 0
1075 5 65.63564292669001 2.1149322724410027 0 -1 0 0
1074 2 68.09281342662601 4.337522000241734e-06 0.3171571469900005 -1 0 0
1079 7 70.011352455136 2.1149322724410027 0 -1 0 0
1078 4 72.468522955072 4.337522000241734e-06 0.3171571469900005 -1 0 0
1083 5 74.387061983582 2.1149322724410027 0 -1 0 0
1082 2 76.844232483518 4.337522000241734e-06 0.3171571469900005 -1 0 0
1087 7 78.76277151202801 2.1149322724410027 0 -1 0 0
1086 4 81.21994201196401 4.337522000241734e-06 0.3171571469900005 -1 0 0
1091 5 83.138481040474 2.1149322724410027 0 -1 0 0
1090 2 85.59565154041 4.337522000241734e-06 0.3171571469900005 -1 0 0
1095 7 87.51419056892001 2.1149322724410027 0 -1 0 0
1094 4 89.971361068856 4.337522000241734e-06 0.3171571469900005 -1 0 0
1099 5 91.889900097366 2.1149322724410027 0 -1 0 0
1098 2 94.34707059730201 4.337522000241734e-06 0.3171571469900005 -1 0 0
1190 4 2.457170499935998 4.229791393983 0.3171571469900005 0 0 0
1194 2 6.832880028382 4.229791393983 0.3171571469900005 0 0 0
1198 4 11.208589556828002 4.229791393983 0.3171571469900005 0 0 0
1202 2 15.584299085273997 4.229791393983 0.3171571469900005 0 0 0
1206 4 19.960008613720007 4.229791393983 0.3171571469900005 0 0 0
1210 2 24.335718142166 4.229791393983 0.3171571469900005 0 0 0
1214 4 28.711427670611997 4.229791393983 0.3171571469900005 0 0 0
1218 2 33.087137199058006 4.229791393983 0.3171571469900005 0 0 0
1222 4 37.462846727504 4.229791393983 0.3171571469900005 0 0 0
1226 2 41.838556255949996 4.229791393983 0.3171571469900005 0 0 0
1230 4 46.214265784396005 4.229791393983 0.3171571469900005 0 0 0
1146 2 50.58997531284201 4.229791393983 0.3171571469900005 -1 0 0
1150 4 54.96568484128801 4.229791393983 0.3171571469900005 -1 0 0
1154 2 59.341394369734004 4.229791393983 0.3171571469900005 -1 0 0
1158 4 63.71710389818001 4.229791393983 0.3171571469900005 -1 0 0
1162 2 68.09281342662601 4.229791393983 0.3171571469900005 -1 0 0
1166 4 72.468522955072 4.229791393983 0.3171571469900005 -1 0 0
1170 2 76.844232483518 4.229791393983 0.3171571469900005 -1 0 0
1174 4 81.21994201196401 4.229791393983 0.3171571469900005 -1 0 0
1178 2 85.59565154041 4.229791393983 0.3171571469900005 -1 0 0
1182 4 89.971361068856 4.229791393983 0.3171571469900005 -1 0 0
1186 2 94.34707059730201 4.229791393983 0.3171571469900005 -1 0 0
1191 7 0 6.344719328902002 0 0 0 0
1195 5 4.375709528446002 6.344719328902002 0 0 0 0
1199 7 8.751419056892004 6.344719328902002 0 0 0 0
1203 5 13.127128585338 6.344719328902002 0 0 0 0
1207 7 17.502838113783994 6.344719328902002 0 0 0 0
1211 5 21.878547642230004 6.344719328902002 0 0 0 0
1215 7 26.254257170676 6.344719328902002 0 0 0 0
1219 5 30.629966699122008 6.344719328902002 0 0 0 0
1223 7 35.005676227568 6.344719328902002 0 0 0 0
1227 5 39.381385756014 6.344719328902002 0 0 0 0
1231 7 43.75709528446001 6.344719328902002 0 0 0 0
1147 5 48.132804812906 6.344719328902002 0 -1 0 0
1151 7 52.508514341352004 6.344719328902002 0 -1 0 0
1155 5 56.88422386979801 6.344719328902002 0 -1 0 0
1159 7 61.259933398244 6.344719328902002 0 -1 0 0
1163 5 65.63564292669001 6.344719328902002 0 -1 0 0
1167 7 70.011352455136 6.344719328902002 0 -1 0 0
1171 5 74.387061983582 6.344719328902002 0 -1 0 0
1175 7 78.76277151202801 6.344719328902002 0 -1 0 0
1179 5 83.138481040474 6.344719328902002 0 -1 0 0
1183 7 87.51419056892001 6.344719328902002 0 -1 0 0
1187 5 91.889900097366 6.344719328902002 0 -1 0 0
1278 4 2.457170499935998 8.459578450443999 0.3171571469900005 0 0 0
1282 2 6.832880028382 8.459578450443999 0.3171571469900005 0 0 0
1286 4 11.208589556828002 8.459578450443999 0.3171571469900005 0 0 0
1290 2 15.584299085273997 8.459578450443999 0.3171571469900005 0 0 0
1294 4 19.960008613720007 8.459578450443999 0.3171571469900005 0 0 0
1298 2 24.335718142166 8.459578450443999 0.3171571469900005 0 0 0
1302 4 28.711427670611997 8.459578450443999 0.3171571469900005 0 0 0
1306 2 33.087137199058006 8.459578450443999 0.3171571469900005 0 0 0
1310 4 37.462846727504 8.459578450443999 0.3171571469900005 0 0 0
1314 2 41.838556255949996 8.459578450443999 0.3171571469900005 0 0 0
1318 4 46.214265784396005 8.459578450443999 0.3171571469900005 0 0 0
1234 2 50.58997531284201 8.459578450443999 0.3171571469900005 -1 0 0
1238 4 54.96568484128801 8.459578450443999 0.3171571469900005 -1 0 0
1242 2 59.341394369734004 8.459578450443999 0.3171571469900005 -1 0 0
1246 4 63.71710389818001 8.459578450443999 0.3171571469900005 -1 0 0
1250 2 68.09281342662601 8.459578450443999 0.3171571469900005 -1 0 0
1254 4 72.468522955072 8.459578450443999 0.3171571469900005 -1 0 0
1258 2 76.844232483518 8.459578450443999 0.3171571469900005 -1 0 0
1262 4 81.21994201196401 8.459578450443999 0.3171571469900005 -1 0 0
1266 2 85.59565154041 8.459578450443999 0.3171571469900005 -1 0 0
1270 4 89.971361068856 8.459578450443999 0.3171571469900005 -1 0 0
1274 2 94.34707059730201 8.459578450443999 0.3171571469900005 -1 0 0
1279 7 0 10.574506385363001 0 0 0 0
1283 5 4.375709528446002 10.574506385363001 0 0 0 0
1287 7 8.751419056892004 10.574506385363001 0 0 0 0
1291 5 13.127128585338 10.574506385363001 0 0 0 0
1295 7 17.502838113783994 10.574506385363001 0 0 0 0
1299 5 21.878547642230004 10.574506385363001 0 0 0 0
1303 7 26.254257170676 10.574506385363001 0 0 0 0
1307 5 30.629966699122008 10.574506385363001 0 0 0 0
1311 7 35.005676227568 10.574506385363001 0 0 0 0
1315 5 39.381385756014 10.574506385363001 0 0 0 0
1319 7 43.75709528446001 10.574506385363001 0 0 0 0
1235 5 48.132804812906 10.574506385363001 0 -1 0 0
1239 7 52.508514341352004 10.574506385363001 0 -1 0 0
1243 5 56.88422386979801 10.574506385363001 0 -1 0 0
1247 7 61.259933398244 10.574506385363001 0 -1 0 0
1251 5 65.63564292669001 10.574506385363001 0 -1 0 0
1255 7 70.011352455136 10.574506385363001 0 -1 0 0
1259 5 74.387061983582 10.574506385363001 0 -1 0 0
1263 7 78.76277151202801 10.574506385363001 0 -1 0 0
1267 5 83.138481040474 10.574506385363001 0 -1 0 0
1271 7 87.51419056892001 10.574506385363001 0 -1 0 0
1275 5 91.889900097366 10.574506385363001 0 -1 0 0
1366 4 2.457170499935998 12.689365506905006 0.3171571469900005 0 0 0
1370 2 6.832880028382 12.689365506905006 0.3171571469900005 0 0 0
1374 4 11.208589556828002 12.689365506905006 0.3171571469900005 0 0 0
1378 2 15.584299085273997 12.689365506905006 0.3171571469900005 0 0 0
1382 4 19.960008613720007 12.689365506905006 0.3171571469900005 0 0 0
1386 2 24.335718142166 12.689365506905006 0.3171571469900005 0 0 0
1390 4 28.711427670611997 12.689365506905006 0.3171571469900005 0 0 0
1394 2 33.087137199058006 12.689365506905006 0.3171571469900005 0 0 0
1398 4 37.462846727504 12.689365506905006 0.3171571469900005 0 0 0
1402 2 41.838556255949996 12.689365506905006 0.3171571469900005 0 0 0
1406 4 46.214265784396005 12.689365506905006 0.3171571469900005 0 0 0
1322 2 50.58997531284201 12.689365506905006 0.3171571469900005 -1 0 0
1326 4 54.96568484128801 12.689365506905006 0.3171571469900005 -1 0 0
1330 2 59.341394369734004 12.689365506905006 0.3171571469900005 -1 0 0
1334 4 63.71710389818001 12.689365506905006 0.3171571469900005 -1 0 0
1338 2 68.09281342662601 12.689365506905006 0.3171571469900005 -1 0 0
1342 4 72.468522955072 12.689365506905006 0.3171571469900005 -1 0 0
1346 2 76.844232483518 12.689365506905006 0.3171571469900005 -1 0 0
1350 4 81.21994201196401 12.689365506905006 0.3171571469900005 -1 0 0
1354 2 85.59565154041 12.689365506905006 0.3171571469900005 -1 0 0
1358 4 89.971361068856 12.689365506905006 0.3171571469900005 -1 0 0
1362 2 94.34707059730201 12.689365506905006 0.3171571469900005 -1 0 0
1367 7 0 14.804293441824 0 0 0 0
1371 5 4.375709528446002 14.804293441824 0 0 0 0
1375 7 8.751419056892004 14.804293441824 0 0 0 0
1379 5 13.127128585338 14.804293441824 0 0 0 0
1383 7 17.502838113783994 14.804293441824 0 0 0 0
1387 5 21.878547642230004 14.804293441824 0 0 0 0
1391 7 26.254257170676 14.804293441824 0 0 0 0
1395 5 30.629966699122008 14.804293441824 0 0 0 0
1399 7 35.005676227568 14.804293441824 0 0 0 0
1403 5 39.381385756014 14.804293441824 0 0 0 0
1407 7 43.75709528446001 14.804293441824 0 0 0 0
1323 5 48.132804812906 14.804293441824 0 -1 0 0
1327 7 52.508514341352004 14.804293441824 0 -1 0 0
1331 5 56.88422386979801 14.804293441824 0 -1 0 0
1335 7 61.259933398244 14.804293441824 0 -1 0 0
1339 5 65.63564292669001 14.804293441824 0 -1 0 0
1343 7 70.011352455136 14.804293441824 0 -1 0 0
1347 5 74.387061983582 14.804293441824 0 -1 0 0
1351 7 78.76277151202801 14.804293441824 0 -1 0 0
1355 5 83.138481040474 14.804293441824 0 -1 0 0
1359 7 87.51419056892001 14.804293441824 0 -1 0 0
1363 5 91.889900097366 14.804293441824 0 -1 0 0
1454 4 2.457170499935998 16.919152563365998 0.3171571469900005 0 0 0
1458 2 6.832880028382 16.919152563365998 0.3171571469900005 0 0 0
1462 4 11.208589556828002 16.919152563365998 0.3171571469900005 0 0 0
1466 2 15.584299085273997 16.919152563365998 0.3171571469900005 0 0 0
1470 4 19.960008613720007 16.919152563365998 0.3171571469900005 0 0 0
1474 2 24.335718142166 16.919152563365998 0.3171571469900005 0 0 0
1478 4 28.711427670611997 16.919152563365998 0.3171571469900005 0 0 0
1482 2 33.087137199058006 16.919152563365998 0.3171571469900005 0 0 0
1486 4 37.462846727504 16.919152563365998 0.3171571469900005 0 0 0
1490 2 41.838556255949996 16.919152563365998 0.3171571469900005 0 0 0
1494 4 46.214265784396005 16.919152563365998 0.3171571469900005 0 0 0
1410 2 50.58997531284201 16.919152563365998 0.3171571469900005 -1 0 0
1414 4 54.96568484128801 16.919152563365998 0.3171571469900005 -1 0 0
1418 2 59.341394369734004 16.919152563365998 0.3171571469900005 -1 0 0
1422 4 63.71710389818001 16.919152563365998 0.3171571469900005 -1 0 0
1426 2 68.09281342662601 16.919152563365998 0.3171571469900005 -1 0 0
1430 4 72.468522955072 16.919152563365998 0.3171571469900005 -1 0 0
1434 2 76.844232483518 16.919152563365998 0.3171571469900005 -1 0 0
1438 4 81.21994201196401 16.919152563365998 0.3171571469900005 -1 0 0
1442 2 85.59565154041 16.919152563365998 0.3171571469900005 -1 0 0
1446 4 89.971361068856 16.919152563365998 0.3171571469900005 -1 0 0
1450 2 94.34707059730201 16.919152563365998 0.3171571469900005 -1 0 0
1455 7 0 19.034080498284993 0 0 0 0
1459 5 4.375709528446002 19.034080498284993 0 0 0 0
1463 7 8.751419056892004 19.034080498284993 0 0 0 0
1467 5 13.127128585338 19.034080498284993 0 0 0 0
1471 7 17.502838113783994 19.034080498284993 0 0 0 0
1475 5 21.878547642230004 19.034080498284993 0 0 0 0
1479 7 26.254257170676 19.034080498284993 0 0 0 0
1483 5 30.629966699122008 19.034080498284993 0 0 0 0
1487 7 35.005676227568 19.034080498284993 0 0 0 0
1491 5 39.381385756014 19.034080498284993 0 0 0 0
1495 7 43.75709528446001 19.034080498284993 0 0 0 0
1411 5 48.132804812906 19.034080498284993 0 -1 0 0
1415 7 52.508514341352004 19.034080498284993 0 -1 0 0
1419 5 56.88422386979801 19.034080498284993 0 -1 0 0
1423 7 61.259933398244 19.034080498284993 0 -1 0 0
1427 5 65.63564292669001 19.034080498284993 0 -1 0 0
1431 7 70.011352455136 19.034080498284993 0 -1 0 0
1435 5 74.387061983582 19.034080498284993 0 -1 0 0
1439 7 78.76277151202801 19.034080498284993 0 -1 0 0
1443 5 83.138481040474 19.034080498284993 0 -1 0 0
1447 7 87.51419056892001 19.034080498284993 0 -1 0 0
1451 5 91.889900097366 19.034080498284993 0 -1 0 0
1542 4 2.457170499935998 21.148939619827004 0.3171571469900005 0 0 0
1546 2 6.832880028382 21.148939619827004 0.3171571469900005 0 0 0
1550 4 11.208589556828002 21.148939619827004 0.3171571469900005 0 0 0
1554 2 15.584299085273997 21.148939619827004 0.3171571469900005 0 0 0
1558 4 19.960008613720007 21.148939619827004 0.3171571469900005 0 0 0
1562 2 24.335718142166 21.148939619827004 0.3171571469900005 0 0 0
1566 4 28.711427670611997 21.148939619827004 0.3171571469900005 0 0 0
1570 2 33.087137199058006 21.148939619827004 0.3171571469900005 0 0 0
1574 4 37.462846727504 21.148939619827004 0.3171571469900005 0 0 0
1578 2 41.838556255949996 21.148939619827004 0.3171571469900005 0 0 0
1582 4 46.214265784396005 21.148939619827004 0.3171571469900005 0 0 0
1498 2 50.58997531284201 21.148939619827004 0.3171571469900005 -1 0 0
1502 4 54.96568484128801 21.148939619827004 0.3171571469900005 -1 0 0
1506 2 59.341394369734004 21.148939619827004 0.3171571469900005 -1 0 0
1510 4 63.71710389818001 21.148939619827004 0.3171571469900005 -1 0 0
1514 2 68.09281342662601 21.148939619827004 0.3171571469900005 -1 0 0
1518 4 72.468522955072 21.148939619827004 0.3171571469900005 -1 0 0
1522 2 76.844232483518 21.148939619827004 0.3171571469900005 -1 0 0
1526 4 81.21994201196401 21.148939619827004 0.3171571469900005 -1 0 0
1530 2 85.59565154041 21.148939619827004 0.3171571469900005 -1 0 0
1534 4 89.971361068856 21.148939619827004 0.3171571469900005 -1 0 0
1538 2 94.34707059730201 21.148939619827004 0.3171571469900005 -1 0 0
1543 7 0 23.263867554746 0 0 0 0
1547 5 4.375709528446002 23.263867554746 0 0 0 0
1551 7 8.751419056892004 23.263867554746 0 0 0 0
1555 5 13.127128585338 23.263867554746 0 0 0 0
1559 7 17.502838113783994 23.263867554746 0 0 0 0
1563 5 21.878547642230004 23.263867554746 0 0 0 0
1567 7 26.254257170676 23.263867554746 0 0 0 0
1571 5 30.629966699122008 23.263867554746 0 0 0 0
1575 7 35.005676227568 23.263867554746 0 0 0 0
1579 5 39.381385756014 23.263867554746 0 0 0 0
1583 7 43.75709528446001 23.263867554746 0 0 0 0
1499 5 48.132804812906 23.263867554746 0 -1 0 0
1503 7 52.508514341352004 23.263867554746 0 -1 0 0
1507 5 56.88422386979801 23.263867554746 0 -1 0 0
1511 7 61.259933398244 23.263867554746 0 -1 0 0
1515 5 65.63564292669001 23.263867554746 0 -1 0 0
1519 7 70.011352455136 23.263867554746 0 -1 0 0
1523 5 74.387061983582 23.263867554746 0 -1 0 0
1527 7 78.76277151202801 23.263867554746 0 -1 0 0
1531 5 83.138481040474 23.263867554746 0 -1 0 0
1535 7 87.51419056892001 23.263867554746 0 -1 0 0
1539 5 91.889900097366 23.263867554746 0 -1 0 0
1630 4 2.457170499935998 25.378726676287997 0.3171571469900005 0 0 0
1634 2 6.832880028382 25.378726676287997 0.3171571469900005 0 0 0
1638 4 11.208589556828002 25.378726676287997 0.3171571469900005 0 0 0
1642 2 15.584299085273997 25.378726676287997 0.3171571469900005 0 0 0
1646 4 19.960008613720007 25.378726676287997 0.3171571469900005 0 0 0
1650 2 24.335718142166 25.378726676287997 0.3171571469900005 0 0 0
1654 4 28.711427670611997 25.378726676287997 0.3171571469900005 0 0 0
1658 2 33.087137199058006 25.378726676287997 0.3171571469900005 0 0 0
1662 4 37.462846727504 25.378726676287997 0.3171571469900005 0 0 0
1666 2 41.838556255949996 25.378726676287997 0.3171571469900005 0 0 0
1670 4 46.214265784396005 25.378726676287997 0.3171571469900005 0 0 0
1586 2 50.58997531284201 25.378726676287997 0.3171571469900005 -1 0 0
1590 4 54.96568484128801 25.378726676287997 0.3171571469900005 -1 0 0
1594 2 59.341394369734004 25.378726676287997 0.3171571469900005 -1 0 0
1598 4 63.71710389818001 25.378726676287997 0.3171571469900005 -1 0 0
1602 2 68.09281342662601 25.378726676287997 0.3171571469900005 -1 0 0
1606 4 72.468522955072 25.378726676287997 0.3171571469900005 -1 0 0
1610 2 76.844232483518 25.378726676287997 0.3171571469900005 -1 0 0
1614 4 81.21994201196401 25.378726676287997 0.3171571469900005 -1 0 0
1618 2 85.59565154041 25.378726676287997 0.3171571469900005 -1 0 0
1622 4 89.971361068856 25.378726676287997 0.3171571469900005 -1 0 0
1626 2 94.34707059730201 25.378726676287997 0.3171571469900005 -1 0 0
1631 7 0 27.493654611207006 0 0 0 0
1635 5 4.375709528446002 27.493654611207006 0 0 0 0
1639 7 8.751419056892004 27.493654611207006 0 0 0 0
1643 5 13.127128585338 27.493654611207006 0 0 0 0
1647 7 17.502838113783994 27.493654611207006 0 0 0 0
1651 5 21.878547642230004 27.493654611207006 0 0 0 0
1655 7 26.254257170676 27.493654611207006 0 0 0 0
1659 5 30.629966699122008 27.493654611207006 0 0 0 0
1663 7 35.005676227568 27.493654611207006 0 0 0 0
1667 5 39.381385756014 27.493654611207006 0 0 0 0
1671 7 43.75709528446001 27.493654611207006 0 0 0 0
1587 5 48.132804812906 27.493654611207006 0 -1 0 0
1591 7 52.508514341352004 27.493654611207006 0 -1 0 0
1595 5 56.88422386979801 27.493654611207006 0 -1 0 0
1599 7 61.259933398244 27.493654611207006 0 -1 0 0
1603 5 65.63564292669001 27.493654611207006 0 -1 0 0
1607 7 70.011352455136 27.493654611207006 0 -1 0 0
1611 5 74.387061983582 27.493654611207006 0 -1 0 0
1615 7 78.76277151202801 27.493654611207006 0 -1 0 0
1619 5 83.138481040474 27.493654611207006 0 -1 0 0
1623 7 87.51419056892001 27.493654611207006 0 -1 0 0
1627 5 91.889900097366 27.493654611207006 0 -1 0 0
1718 4 2.457170499935998 29.608513732749003 0.3171571469900005 0 0 0
1722 2 6.832880028382 29.608513732749003 0.3171571469900005 0 0 0
1726 4 11.208589556828002 29.608513732749003 0.3171571469900005 0 0 0
1730 2 15.584299085273997 29.608513732749003 0.3171571469900005 0 0 0
1734 4 19.960008613720007 29.608513732749003 0.3171571469900005 0 0 0
1738 2 24.335718142166 29.608513732749003 0.3171571469900005 0 0 0
1742 4 28.711427670611997 29.608513732749003 0.3171571469900005 0 0 0
1746 2 33.087137199058006 29.608513732749003 0.3171571469900005 0 0 0
1750 4 37.462846727504 29.608513732749003 0.3171571469900005 0 0 0
1754 2 41.838556255949996 29.608513732749003 0.3171571469900005 0 0 0
1758 4 46.214265784396005 29.608513732749003 0.3171571469900005 0 0 0
1674 2 50.58997531284201 29.608513732749003 0.3171571469900005 -1 0 0
1678 4 54.96568484128801 29.608513732749003 0.3171571469900005 -1 0 0
1682 2 59.341394369734004 29.608513732749003 0.3171571469900005 -1 0 0
1686 4 63.71710389818001 29.608513732749003 0.3171571469900005 -1 0 0
1690 2 68.09281342662601 29.608513732749003 0.3171571469900005 -1 0 0
1694 4 72.468522955072 29.608513732749003 0.3171571469900005 -1 0 0
1698 2 76.844232483518 29.608513732749003 0.3171571469900005 -1 0 0
1702 4 81.21994201196401 29.608513732749003 0.3171571469900005 -1 0 0
1706 2 85.59565154041 29.608513732749003 0.3171571469900005 -1 0 0
1710 4 89.971361068856 29.608513732749003 0.3171571469900005 -1 0 0
1714 2 94.34707059730201 29.608513732749003 0.3171571469900005 -1 0 0
1719 7 0 31.723441667668 0 0 0 0
1723 5 4.375709528446002 31.723441667668 0 0 0 0
1727 7 8.751419056892004 31.723441667668 0 0 0 0
1731 5 13.127128585338 31.723441667668 0 0 0 0
1735 7 17.502838113783994 31.723441667668 0 0 0 0
1739 5 21.878547642230004 31.723441667668 0 0 0 0
1743 7 26.254257170676 31.723441667668 0 0 0 0
1747 5 30.629966699122008 31.723441667668 0 0 0 0
1751 7 35.005676227568 31.723441667668 0 0 0 0
1755 5 39.381385756014 31.723441667668 0 0 0 0
1759 7 43.75709528446001 31.723441667668 0 0 0 0
1675 5 48.132804812906 31.723441667668 0 -1 0 0
1679 7 52.508514341352004 31.723441667668 0 -1 0 0
1683 5 56.88422386979801 31.723441667668 0 -1 0 0
1687 7 61.259933398244 31.723441667668 0 -1 0 0
1691 5 65.63564292669001 31.723441667668 0 -1 0 0
1695 7 70.011352455136 31.723441667668 0 -1 0 0
1699 5 74.387061983582 31.723441667668 0 -1 0 0
1703 7 78.76277151202801 31.723441667668 0 -1 0 0
1707 5 83.138481040474 31.723441667668 0 -1 0 0
1711 7 87.51419056892001 31.723441667668 0 -1 0 0
1715 5 91.889900097366 31.723441667668 0 -1 0 0
1806 4 2.457170499935998 33.838300789209995 0.3171571469900005 0 0 0
1810 2 6.832880028382 33.838300789209995 0.3171571469900005 0 0 0
1814 4 11.208589556828002 33.838300789209995 0.3171571469900005 0 0 0
1818 2 15.584299085273997 33.838300789209995 0.3171571469900005 0 0 0
1822 4 19.960008613720007 33.838300789209995 0.3171571469900005 0 0 0
1826 2 24.335718142166 33.838300789209995 0.3171571469900005 0 0 0
1830 4 28.711427670611997 33.838300789209995 0.3171571469900005 0 0 0
1834 2 33.087137199058006 33.838300789209995 0.3171571469900005 0 0 0
1838 4 37.462846727504 33.838300789209995 0.3171571469900005 0 0 0
1842 2 41.838556255949996 33.838300789209995 0.3171571469900005 0 0 0
1846 4 46.214265784396005 33.838300789209995 0.3171571469900005 0 0 0
1762 2 50.58997531284201 33.838300789209995 0.3171571469900005 -1 0 0
1766 4 54.96568484128801 33.838300789209995 0.3171571469900005 -1 0 0
1770 2 59.341394369734004 33.838300789209995 0.3171571469900005 -1 0 0
1774 4 63.71710389818001 33.838300789209995 0.3171571469900005 -1 0 0
1778 2 68.09281342662601 33.838300789209995 0.3171571469900005 -1 0 0
1782 4 72.468522955072 33.838300789209995 0.3171571469900005 -1 0 0
1786 2 76.844232483518 33.838300789209995 0.3171571469900005 -1 0 0
1790 4 81.21994201196401 33.838300789209995 0.3171571469900005 -1 0 0
1794 2 85.59565154041 33.838300789209995 0.3171571469900005 -1 0 0
1798 4 89.971361068856 33.838300789209995 0.3171571469900005 -1 0 0
1802 2 94.34707059730201 33.838300789209995 0.3171571469900005 -1 0 0
1807 7 0 35.953228724129005 0 0 0 0
1811 5 4.375709528446002 35.953228724129005 0 0 0 0
1815 7 8.751419056892004 35.953228724129005 0 0 0 0
1819 5 13.127128585338 35.953228724129005 0 0 0 0
1823 7 17.502838113783994 35.953228724129005 0 0 0 0
1827 5 21.878547642230004 35.953228724129005 0 0 0 0
1831 7 26.254257170676 35.953228724129005 0 0 0 0
1835 5 30.629966699122008 35.953228724129005 0 0 0 0
1839 7 35.005676227568 35.953228724129005 0 0 0 0
1843 5 39.381385756014 35.953228724129005 0 0 0 0
1847 7 43.75709528446001 35.953228724129005 0 0 0 0
1763 5 48.132804812906 35.953228724129005 0 -1 0 0
1767 7 52.508514341352004 35.953228724129005 0 -1 0 0
1771 5 56.88422386979801 35.953228724129005 0 -1 0 0
1775 7 61.259933398244 35.953228724129005 0 -1 0 0
1779 5 65.63564292669001 35.953228724129005 0 -1 0 0
1783 7 70.011352455136 35.953228724129005 0 -1 0 0
1787 5 74.387061983582 35.953228724129005 0 -1 0 0
1791 7 78.76277151202801 35.953228724129005 0 -1 0 0
1795 5 83.138481040474 35.953228724129005 0 -1 0 0
1799 7 87.51419056892001 35.953228724129005 0 -1 0 0
1803 5 91.889900097366 35.953228724129005 0 -1 0 0
1894 4 2.457170499935998 38.068087845671 0.3171571469900005 0 0 0
1898 2 6.832880028382 38.068087845671 0.3171571469900005 0 0 0
1902 4 11.208589556828002 38.068087845671 0.3171571469900005 0 0 0
1906 2 15.584299085273997 38.068087845671 0.3171571469900005 0 0 0
1910 4 19.960008613720007 38.068087845671 0.3171571469900005 0 0 0
1914 2 24.335718142166 38.068087845671 0.3171571469900005 0 0 0
1918 4 28.711427670611997 38.068087845671 0.3171571469900005 0 0 0
1922 2 33.087137199058006 38.068087845671 0.3171571469900005 0 0 0
1926 4 37.462846727504 38.068087845671 0.3171571469900005 0 0 0
1930 2 41.838556255949996 38.068087845671 0.3171571469900005 0 0 0
1934 4 46.214265784396005 38.068087845671 0.3171571469900005 0 0 0
1850 2 50.58997531284201 38.068087845671 0.3171571469900005 -1 0 0
1854 4 54.96568484128801 38.068087845671 0.3171571469900005 -1 0 0
1858 2 59.341394369734004 38.068087845671 0.3171571469900005 -1 0 0
1862 4 63.71710389818001 38.068087845671 0.3171571469900005 -1 0 0
1866 2 68.09281342662601 38.068087845671 0.3171571469900005 -1 0 0
1870 4 72.468522955072 38.068087845671 0.3171571469900005 -1 0 0
1874 2 76.844232483518 38.068087845671 0.3171571469900005 -1 0 0
1878 4 81.21994201196401 38.068087845671 0.3171571469900005 -1 0 0
1882 2 85.59565154041 38.068087845671 0.3171571469900005 -1 0 0
1886 4 89.971361068856 38.068087845671 0.3171571469900005 -1 0 0
1890 2 94.34707059730201 38.068087845671 0.3171571469900005 -1 0 0
1895 7 0 40.18301578059 0 0 0 0
1899 5 4.375709528446002 40.18301578059 0 0 0 0
1903 7 8.751419056892004 40.18301578059 0 0 0 0
1907 5 13.127128585338 40.18301578059 0 0 0 0
1911 7 17.502838113783994 40.18301578059 0 0 0 0
1915 5 21.878547642230004 40.18301578059 0 0 0 0
1919 7 26.254257170676 40.18301578059 0 0 0 0
1923 5 30.629966699122008 40.18301578059 0 0 0 0
1927 7 35.005676227568 40.18301578059 0 0 0 0
1931 5 39.381385756014 40.18301578059 0 0 0 0
1935 7 43.75709528446001 40.18301578059 0 0 0 0
1851 5 48.132804812906 40.18301578059 0 -1 0 0
1855 7 52.508514341352004 40.18301578059 0 -1 0 0
1859 5 56.88422386979801 40.18301578059 0 -1 0 0
1863 7 61.259933398244 40.18301578059 0 -1 0 0
1867 5 65.63564292669001 40.18301578059 0 -1 0 0
1871 7 70.011352455136 40.18301578059 0 -1 0 0
1875 5 74.387061983582 40.18301578059 0 -1 0 0
1879 7 78.76277151202801 40.18301578059 0 -1 0 0
1883 5 83.138481040474 40.18301578059 0 -1 0 0
1887 7 87.51419056892001 40.18301578059 0 -1 0 0
1891 5 91.889900097366 40.18301578059 0 -1 0 0
1982 4 2.457170499935998 42.297874902131994 0.3171571469900005 0 0 0
1986 2 6.832880028382 42.297874902131994 0.3171571469900005 0 0 0
1990 4 11.208589556828002 42.297874902131994 0.3171571469900005 0 0 0
1994 2 15.584299085273997 42.297874902131994 0.3171571469900005 0 0 0
1998 4 19.960008613720007 42.297874902131994 0.3171571469900005 0 0 0
2002 2 24.335718142166 42.297874902131994 0.3171571469900005 0 0 0
2006 4 28.711427670611997 42.297874902131994 0.3171571469900005 0 0 0
2010 2 33.087137199058006 42.297874902131994 0.3171571469900005 0 0 0
2014 4 37.462846727504 42.297874902131994 0.3171571469900005 0 0 0
2018 2 41.838556255949996 42.297874902131994 0.3171571469900005 0 0 0
2022 4 46.214265784396005 42.297874902131994 0.3171571469900005 0 0 0
1938 2 50.58997531284201 42.297874902131994 0.3171571469900005 -1 0 0
1942 4 54.96568484128801 42.297874902131994 0.3171571469900005 -1 0 0
1946 2 59.341394369734004 42.297874902131994 0.3171571469900005 -1 0 0
1950 4 63.71710389818001 42.297874902131994 0.3171571469900005 -1 0 0
1954 2 68.09281342662601 42.297874902131994 0.3171571469900005 -1 0 0
1958 4 72.468522955072 42.297874902131994 0.3171571469900005 -1 0 0
1962 2 76.844232483518 42.297874902131994 0.3171571469900005 -1 0 0
1966 4 81.21994201196401 42.297874902131994 0.3171571469900005 -1 0 0
1970 2 85.59565154041 42.297874902131994 0.3171571469900005 -1 0 0
1974 4 89.971361068856 42.297874902131994 0.3171571469900005 -1 0 0
1978 2 94.34707059730201 42.297874902131994 0.3171571469900005 -1 0 0
1983 7 0 44.412802837051004 0 0 0 0
1987 5 4.375709528446002 44.412802837051004 0 0 0 0
1991 7 8.751419056892004 44.412802837051004 0 0 0 0
1995 5 13.127128585338 44.412802837051004 0 0 0 0
1999 7 17.502838113783994 44.412802837051004 0 0 0 0
2003 5 21.878547642230004 44.412802837051004 0 0 0 0
2007 7 26.254257170676 44.412802837051004 0 0 0 0
2011 5 30.629966699122008 44.412802837051004 0 0 0 0
2015 7 35.005676227568 44.412802837051004 0 0 0 0
2019 5 39.381385756014 44.412802837051004 0 0 0 0
2023 7 43.75709528446001 44.412802837051004 0 0 0 0
1939 5 48.132804812906 44.412802837051004 0 -1 0 0
1943 7 52.508514341352004 44.412802837051004 0 -1 0 0
1947 5 56.88422386979801 44.412802837051004 0 -1 0 0
1951 7 61.259933398244 44.412802837051004 0 -1 0 0
1955 5 65.63564292669001 44.412802837051004 0 -1 0 0
1959 7 70.011352455136 44.412802837051004 0 -1 0 0
1963 5 74.387061983582 44.412802837051004 0 -1 0 0
1967 7 78.76277151202801 44.412802837051004 0 -1 0 0
1971 5 83.138481040474 44.412802837051004 0 -1 0 0
1975 7 87.51419056892001 44.412802837051004 0 -1 0 0
1979 5 91.889900097366 44.412802837051004 0 -1 0 0
2070 4 2.457170499935998 46.527661958593 0.3171571469900005 0 0 0
2074 2 6.832880028382 46.527661958593 0.3171571469900005 0 0 0
2078 4 11.208589556828002 46.527661958593 0.3171571469900005 0 0 0
2082 2 15.584299085273997 46.527661958593 0.3171571469900005 0 0 0
2086 4 19.960008613720007 46.527661958593 0.3171571469900005 0 0 0
2090 2 24.335718142166 46.527661958593 0.3171571469900005 0 0 0
2094 4 28.711427670611997 46.527661958593 0.3171571469900005 0 0 0
2098 2 33.087137199058006 46.527661958593 0.3171571469900005 0 0 0
2102 4 37.462846727504 46.527661958593 0.3171571469900005 0 0 0
2106 2 41.838556255949996 46.527661958593 0.3171571469900005 0 0 0
2110 4 46.214265784396005 46.527661958593 0.3171571469900005 0 0 0
2026 2 50.58997531284201 46.527661958593 0.3171571469900005 -1 0 0
2030 4 54.96568484128801 46.527661958593 0.3171571469900005 -1 0 0
2034 2 59.341394369734004 46.527661958593 0.3171571469900005 -1 0 0
2038 4 63.71710389818001 46.527661958593 0.3171571469900005 -1 0 0