LAMMPS data file via write_data, version 29 Aug 2024, timestep = 7, units = metal

6336 atoms
24 atom types

0 96.265609625812 xlo xhi
0 101.514889355064 ylo yhi
-50 50 zlo zhi

Masses

1 72.63
2 72.63
3 72.63
4 72.63
5 72.63
6 72.63
7 72.63
8 72.63
9 72.63
10 72.63
11 72.63
12 72.63
13 127.6
14 127.6
15 127.6
16 127.6
17 127.6
18 127.6
19 127.6
20 127.6
21 127.6
22 127.6
23 127.6
24 127.6

Atoms # atomic

1102 4 2.488714654708246 4.698920532671202e-06 0.056644166592821746 0 0 0
1107 13 4.369711565659252 2.1149324043408524 -0.00672788094085812 0 0 0
1190 4 2.488714654708246 4.229791755381532 0.05664416659282133 0 0 0
1101 3 0.2441854210890588 2.1149241553212543 2.862243671218016 0 0 0
1105 1 4.619894949535055 2.1149241553212543 2.8622436712180175 0 0 0
1104 16 2.1926990202732117 1.5454556840349443e-05 2.923674945883491 0 0 0
1192 16 2.1926990202732113 4.229802511017838 2.9236749458834903 0 0 0
1106 2 6.864424183154248 4.69892053267121e-06 0.05664416659282365 0 0 0
1111 15 8.74542109410525 2.1149324043408524 -0.006727880940859423 0 0 0
1110 4 11.24013371160025 4.698920532670675e-06 0.056644166592823154 0 0 0
1194 2 6.864424183154248 4.229791755381532 0.05664416659282313 0 0 0
1198 4 11.240133711600253 4.229791755381532 0.05664416659282324 0 0 0
1109 3 8.995604477981056 2.1149241553212543 2.8622436712180153 0 0 0
1108 14 6.568408548719211 1.545455684038751e-05 2.9236749458834934 0 0 0
1112 16 10.944118077165218 1.545455684037579e-05 2.923674945883493 0 0 0
1196 14 6.568408548719212 4.229802511017838 2.923674945883492 0 0 0
1200 16 10.944118077165218 4.229802511017838 2.923674945883492 0 0 0
1115 13 13.121130622551247 2.1149324043408524 -0.006727880940857772 0 0 0
1114 2 15.615843240046246 4.698920532669819e-06 0.056644166592821815 0 0 0
1202 2 15.615843240046246 4.229791755381532 0.0566441665928212 0 0 0
1113 1 13.37131400642706 2.1149241553212543 2.8622436712180166 0 0 0
1116 14 15.319827605611218 1.545455684039294e-05 2.9236749458834925 0 0 0
1204 14 15.319827605611218 4.229802511017838 2.923674945883491 0 0 0
1119 15 17.496840150997244 2.1149324043408524 -0.006727880940860017 0 0 0
1118 4 19.991552768492248 4.698920532666777e-06 0.056644166592824785 0 0 0
1123 13 21.872549679443253 2.1149324043408524 -0.006727880940858207 0 0 0
1206 4 19.991552768492248 4.229791755381532 0.056644166592824605 0 0 0
1117 3 17.74702353487306 2.1149241553212543 2.8622436712180153 0 0 0
1121 1 22.122733063319053 2.1149241553212543 2.8622436712180166 0 0 0
1120 16 19.695537134057222 1.5454556840502227e-05 2.9236749458834947 0 0 0
1208 16 19.695537134057222 4.229802511017838 2.923674945883494 0 0 0
1122 2 24.367262296938243 4.6989205326683365e-06 0.05664416659282312 0 0 0
1127 15 26.248259207889248 2.1149324043408524 -0.00672788094085819 0 0 0
1210 2 24.367262296938243 4.229791755381532 0.05664416659282197 0 0 0
1125 3 26.49844259176505 2.1149241553212543 2.8622436712180166 0 0 0
1124 14 24.071246662503217 1.5454556840606958e-05 2.923674945883493 0 0 0
1212 14 24.071246662503217 4.229802511017838 2.923674945883493 0 0 0
1126 4 28.742971825384238 4.698920532670041e-06 0.056644166592822356 0 0 0
1131 13 30.623968736335257 2.1149324043408524 -0.006727880940859038 0 0 0
1130 2 33.118681353830254 4.698920532670178e-06 0.05664416659282305 0 0 0
1214 4 28.742971825384238 4.229791755381532 0.05664416659282198 0 0 0
1218 2 33.118681353830254 4.229791755381532 0.05664416659282316 0 0 0
1129 1 30.874152120211058 2.1149241553212543 2.862243671218017 0 0 0
1128 16 28.44695619094921 1.545455684035642e-05 2.9236749458834925 0 0 0
1132 14 32.822665719395225 1.5454556840415237e-05 2.923674945883493 0 0 0
1216 16 28.44695619094921 4.229802511017838 2.9236749458834925 0 0 0
1220 14 32.822665719395225 4.229802511017838 2.9236749458834916 0 0 0
1135 15 34.99967826478126 2.1149324043408524 -0.0067278809408597585 0 0 0
1134 4 37.49439088227625 4.698920532668042e-06 0.05664416659282293 0 0 0
1139 13 39.375387793227254 2.1149324043408524 -0.006727880940859843 0 0 0
1222 4 37.49439088227625 4.229791755381532 0.05664416659282226 0 0 0
1133 3 35.24986164865705 2.1149241553212543 2.862243671218017 0 0 0
1137 1 39.62557117710305 2.1149241553212543 2.862243671218017 0 0 0
1136 16 37.19837524784123 1.5454556840602804e-05 2.923674945883493 0 0 0
1224 16 37.19837524784123 4.229802511017838 2.9236749458834925 0 0 0
1138 2 41.870100410722245 4.698920532671477e-06 0.056644166592823855 0 0 0
1143 15 43.751097321673264 2.1149324043408524 -0.006727880940858074 0 0 0
1226 2 41.870100410722245 4.229791755381532 0.05664416659282287 0 0 0
1141 3 44.00128070554906 2.1149241553212543 2.8622436712180175 0 0 0
1140 14 41.57408477628722 1.54545568404005e-05 2.9236749458834934 0 0 0
1228 14 41.57408477628722 4.229802511017838 2.923674945883493 0 0 0
1142 4 46.245809939168254 4.6989205326721075e-06 0.05664416659282229 0 0 0
1059 13 48.12680685011926 2.1149324043408524 -0.006727880940858785 -1 0 0
1058 2 50.621519467614256 4.6989205326705904e-06 0.056644166592822585 -1 0 0
1230 4 46.245809939168254 4.229791755381532 0.05664416659282132 0 0 0
1146 2 50.621519467614256 4.229791755381532 0.05664416659282184 -1 0 0
1057 1 48.37699023399506 2.1149241553212543 2.862243671218016 -1 0 0
1144 16 45.949794304733224 1.545455684022809e-05 2.9236749458834916 0 0 0
1060 14 50.325503833179226 1.5454556840338584e-05 2.923674945883492 -1 0 0
1232 16 45.949794304733224 4.229802511017838 2.9236749458834916 0 0 0
1148 14 50.325503833179226 4.229802511017838 2.9236749458834916 -1 0 0
1063 15 52.50251637856526 2.1149324043408524 -0.006727880940858155 -1 0 0
1062 4 54.99722899606026 4.698920532670268e-06 0.05664416659282294 -1 0 0
1150 4 54.99722899606026 4.229791755381532 0.056644166592822676 -1 0 0
1061 3 52.75269976244106 2.1149241553212543 2.8622436712180166 -1 0 0
1064 16 54.70121336162523 1.5454556840321833e-05 2.923674945883494 -1 0 0
1152 16 54.70121336162523 4.229802511017838 2.9236749458834925 -1 0 0
1067 13 56.87822590701126 2.1149324043408524 -0.006727880940858955 -1 0 0
1066 2 59.37293852450625 4.698920532671568e-06 0.056644166592822315 -1 0 0
1071 15 61.25393543545726 2.1149324043408524 -0.006727880940858359 -1 0 0
1154 2 59.37293852450625 4.229791755381532 0.05664416659282183 -1 0 0
1065 1 57.128409290887056 2.1149241553212543 2.8622436712180166 -1 0 0
1069 3 61.50411881933306 2.1149241553212543 2.8622436712180157 -1 0 0
1068 14 59.07692289007122 1.545455684026159e-05 2.9236749458834916 -1 0 0
1156 14 59.07692289007122 4.229802511017838 2.923674945883491 -1 0 0
1070 4 63.748648052952255 4.698920532669834e-06 0.05664416659282309 -1 0 0
1075 13 65.62964496390325 2.1149324043408524 -0.006727880940858376 -1 0 0
1158 4 63.748648052952255 4.229791755381532 0.056644166592823175 -1 0 0
1073 1 65.87982834777908 2.1149241553212543 2.862243671218015 -1 0 0
1072 16 63.452632418517226 1.5454556840419215e-05 2.923674945883493 -1 0 0
1076 14 67.8283419469632 1.5454556840469972e-05 2.923674945883493 -1 0 0
1160 16 63.452632418517226 4.229802511017838 2.9236749458834916 -1 0 0
1164 14 67.8283419469632 4.229802511017838 2.923674945883492 -1 0 0
1074 2 68.12435758139826 4.698920532670739e-06 0.0566441665928242 -1 0 0
1079 15 70.00535449234924 2.1149324043408524 -0.0067278809408575 -1 0 0
1078 4 72.50006710984425 4.698920532669423e-06 0.056644166592822474 -1 0 0
1162 2 68.12435758139826 4.229791755381532 0.056644166592824036 -1 0 0
1166 4 72.50006710984425 4.229791755381532 0.056644166592822606 -1 0 0
1077 3 70.25553787622508 2.1149241553212543 2.8622436712180166 -1 0 0
1080 16 72.2040514754092 1.545455684031715e-05 2.9236749458834916 -1 0 0
1168 16 72.2040514754092 4.229802511017838 2.9236749458834903 -1 0 0
1083 13 74.38106402079524 2.1149324043408524 -0.006727880940856956 -1 0 0
1082 2 76.87577663829025 4.698920532668931e-06 0.056644166592822176 -1 0 0
1087 15 78.75677354924125 2.1149324043408524 -0.006727880940858367 -1 0 0
1170 2 76.87577663829025 4.229791755381532 0.056644166592821364 -1 0 0
1081 1 74.63124740467109 2.1149241553212543 2.8622436712180144 -1 0 0
1085 3 79.00695693311708 2.1149241553212543 2.862243671218015 -1 0 0
1084 14 76.57976100385521 1.54545568403927e-05 2.923674945883493 -1 0 0
1172 14 76.57976100385521 4.229802511017838 2.923674945883493 -1 0 0
1086 4 81.25148616673626 4.698920532671032e-06 0.05664416659282368 -1 0 0
1091 13 83.13248307768724 2.1149324043408524 -0.006727880940857501 -1 0 0
1174 4 81.25148616673626 4.229791755381532 0.05664416659282333 -1 0 0
1089 1 83.38266646156308 2.1149241553212543 2.8622436712180166 -1 0 0
1088 16 80.9554705323012 1.5454556840495658e-05 2.9236749458834925 -1 0 0
1176 16 80.9554705323012 4.229802511017838 2.9236749458834916 -1 0 0
1090 2 85.62719569518225 4.6989205326683805e-06 0.05664416659282252 -1 0 0
1095 15 87.50819260613325 2.1149324043408524 -0.006727880940857464 -1 0 0
1094 4 90.00290522362825 4.698920532666028e-06 0.056644166592821024 -1 0 0
1178 2 85.62719569518225 4.229791755381532 0.05664416659282258 -1 0 0
1182 4 90.00290522362825 4.229791755381532 0.056644166592820525 -1 0 0
1093 3 87.75837599000909 2.1149241553212543 2.8622436712180166 -1 0 0
1092 14 85.3311800607472 1.545455684033584e-05 2.923674945883491 -1 0 0
1096 16 89.70688958919321 1.5454556840562116e-05 2.923674945883493 -1 0 0
1180 14 85.3311800607472 4.229802511017838 2.9236749458834903 -1 0 0
1184 16 89.70688958919321 4.229802511017838 2.923674945883492 -1 0 0
1103 15 96.25961166302524 2.1149324043408524 -0.006727880940857349 -1 0 0
1099 13 91.88390213457923 2.1149324043408524 -0.006727880940857532 -1 0 0
1098 2 94.37861475207426 4.698920532671722e-06 0.05664416659282368 -1 0 0
1186 2 94.37861475207426 4.229791755381532 0.056644166592823425 -1 0 0
1097 1 92.13408551845508 2.1149241553212543 2.8622436712180135 -1 0 0
1100 14 94.0825991176392 1.54545568405158e-05 2.9236749458834925 -1 0 0
1188 14 94.0825991176392 4.229802511017838 2.923674945883492 -1 0 0
1195 13 4.369711565659252 6.344719460801852 -0.006727880940858105 0 0 0
1278 4 2.4887146547082457 8.459578811842531 0.05664416659282086 0 0 0
1283 13 4.369711565659252 10.57450651726285 -0.006727880940858119 0 0 0
1189 3 0.24418542108905875 6.344711211782252 2.862243671218016 0 0 0
1193 1 4.619894949535055 6.344711211782252 2.8622436712180175 0 0 0
1277 3 0.24418542108905883 10.574498268243252 2.862243671218016 0 0 0
1281 1 4.619894949535055 10.574498268243252 2.8622436712180175 0 0 0
1280 16 2.1926990202732113 8.459589567478842 2.923674945883491 0 0 0
1199 15 8.74542109410525 6.344719460801852 -0.006727880940859391 0 0 0
1282 2 6.864424183154248 8.459578811842531 0.056644166592822794 0 0 0
1286 4 11.240133711600253 8.459578811842531 0.05664416659282247 0 0 0
1287 15 8.74542109410525 10.57450651726285 -0.006727880940859411 0 0 0
1197 3 8.995604477981056 6.344711211782252 2.8622436712180153 0 0 0
1285 3 8.995604477981056 10.574498268243252 2.8622436712180153 0 0 0
1284 14 6.568408548719211 8.459589567478842 2.923674945883492 0 0 0
1288 16 10.944118077165218 8.459589567478842 2.923674945883492 0 0 0
1203 13 13.121130622551247 6.344719460801852 -0.006727880940857748 0 0 0
1290 2 15.615843240046246 8.459578811842531 0.05664416659282112 0 0 0
1291 13 13.121130622551247 10.57450651726285 -0.00672788094085775 0 0 0
1201 1 13.37131400642706 6.344711211782252 2.862243671218016 0 0 0
1289 1 13.37131400642706 10.574498268243252 2.862243671218016 0 0 0
1292 14 15.319827605611218 8.459589567478842 2.923674945883491 0 0 0
1207 15 17.496840150997244 6.344719460801852 -0.006727880940859992 0 0 0
1211 13 21.872549679443253 6.344719460801852 -0.006727880940857578 0 0 0
1294 4 19.991552768492248 8.459578811842531 0.05664416659282428 0 0 0
1295 15 17.496840150997244 10.57450651726285 -0.006727880940859979 0 0 0
1299 13 21.872549679443253 10.57450651726285 -0.006727880940857584 0 0 0
1205 3 17.74702353487306 6.344711211782252 2.8622436712180153 0 0 0
1209 1 22.122733063319053 6.344711211782252 2.862243671218017 0 0 0
1293 3 17.74702353487306 10.574498268243252 2.8622436712180153 0 0 0
1297 1 22.122733063319053 10.574498268243252 2.862243671218017 0 0 0
1296 16 19.695537134057222 8.459589567478842 2.923674945883494 0 0 0
1215 15 26.248259207889248 6.344719460801852 -0.006727880940858151 0 0 0
1298 2 24.367262296938247 8.459578811842531 0.056644166592822724 0 0 0
1303 15 26.248259207889248 10.57450651726285 -0.006727880940858609 0 0 0
1213 3 26.49844259176505 6.344711211782252 2.8622436712180166 0 0 0
1301 3 26.49844259176505 10.574498268243252 2.8622436712180175 0 0 0
1300 14 24.071246662503217 8.459589567478842 2.9236749458834916 0 0 0
1219 13 30.623968736335257 6.344719460801852 -0.00672788094085901 0 0 0
1302 4 28.74297182538424 8.459578811842531 0.05664416659282273 0 0 0
1306 2 33.118681353830254 8.459578811842531 0.056644166592822245 0 0 0
1307 13 30.623968736335257 10.57450651726285 -0.006727880940859023 0 0 0
1217 1 30.874152120211058 6.344711211782252 2.862243671218017 0 0 0
1305 1 30.874152120211058 10.574498268243252 2.862243671218017 0 0 0
1304 16 28.44695619094921 8.459589567478842 2.9236749458834903 0 0 0
1308 14 32.822665719395225 8.459589567478842 2.9236749458834916 0 0 0
1223 15 34.99967826478126 6.344719460801852 -0.006727880940860237 0 0 0
1227 13 39.375387793227254 6.344719460801852 -0.006727880940859821 0 0 0
1310 4 37.49439088227625 8.459578811842531 0.056644166592822 0 0 0
1311 15 34.99967826478126 10.57450651726285 -0.006727880940859754 0 0 0
1315 13 39.375387793227254 10.57450651726285 -0.0067278809408589865 0 0 0
1221 3 35.24986164865705 6.344711211782252 2.8622436712180166 0 0 0
1309 3 35.24986164865705 10.574498268243252 2.862243671218017 0 0 0
1225 1 39.62557117710305 6.344711211782252 2.862243671218017 0 0 0
1313 1 39.62557117710305 10.574498268243252 2.8622436712180166 0 0 0
1312 16 37.19837524784123 8.459589567478842 2.9236749458834916 0 0 0
1231 15 43.751097321673264 6.344719460801852 -0.006727880940858513 0 0 0
1314 2 41.870100410722245 8.459578811842531 0.05664416659282284 0 0 0
1319 15 43.751097321673264 10.57450651726285 -0.006727880940858522 0 0 0
1229 3 44.00128070554906 6.344711211782252 2.862243671218018 0 0 0
1317 3 44.00128070554906 10.574498268243252 2.862243671218018 0 0 0
1316 14 41.57408477628722 8.459589567478842 2.9236749458834925 0 0 0
1147 13 48.12680685011926 6.344719460801852 -0.006727880940858361 -1 0 0
1318 4 46.245809939168254 8.459578811842531 0.056644166592821246 0 0 0
1234 2 50.621519467614256 8.459578811842531 0.05664416659282184 -1 0 0
1235 13 48.12680685011926 10.57450651726285 -0.0067278809408587836 -1 0 0
1145 1 48.37699023399506 6.344711211782252 2.8622436712180157 -1 0 0
1233 1 48.37699023399506 10.574498268243252 2.862243671218016 -1 0 0
1320 16 45.949794304733224 8.459589567478842 2.9236749458834908 0 0 0
1236 14 50.325503833179226 8.459589567478842 2.9236749458834916 -1 0 0
1151 15 52.50251637856526 6.344719460801852 -0.006727880940858533 -1 0 0
1238 4 54.99722899606026 8.459578811842531 0.056644166592822634 -1 0 0
1239 15 52.50251637856526 10.57450651726285 -0.006727880940858146 -1 0 0
1149 3 52.75269976244106 6.344711211782252 2.8622436712180166 -1 0 0
1237 3 52.75269976244106 10.574498268243252 2.8622436712180166 -1 0 0
1240 16 54.70121336162523 8.459589567478842 2.9236749458834925 -1 0 0
1155 13 56.87822590701126 6.344719460801852 -0.006727880940858939 -1 0 0
1159 15 61.25393543545726 6.344719460801852 -0.006727880940858345 -1 0 0
1242 2 59.37293852450625 8.459578811842531 0.05664416659282136 -1 0 0
1243 13 56.87822590701126 10.57450651726285 -0.006727880940858944 -1 0 0
1247 15 61.25393543545726 10.57450651726285 -0.006727880940858369 -1 0 0
1153 1 57.128409290887056 6.344711211782252 2.8622436712180166 -1 0 0
1157 3 61.50411881933306 6.344711211782252 2.8622436712180157 -1 0 0
1241 1 57.128409290887056 10.574498268243252 2.8622436712180166 -1 0 0
1245 3 61.50411881933306 10.574498268243252 2.8622436712180157 -1 0 0
1244 14 59.07692289007122 8.459589567478842 2.923674945883491 -1 0 0
1163 13 65.62964496390325 6.344719460801852 -0.006727880940858369 -1 0 0
1246 4 63.748648052952255 8.459578811842531 0.056644166592822356 -1 0 0
1251 13 65.62964496390325 10.57450651726285 -0.00672788094085839 -1 0 0
1161 1 65.87982834777908 6.344711211782252 2.862243671218015 -1 0 0
1249 1 65.87982834777908 10.574498268243252 2.862243671218015 -1 0 0
1248 16 63.452632418517226 8.459589567478842 2.9236749458834916 -1 0 0
1252 14 67.8283419469632 8.459589567478842 2.923674945883492 -1 0 0
1167 15 70.00535449234924 6.344719460801852 -0.006727880940857498 -1 0 0
1250 2 68.12435758139826 8.459578811842531 0.05664416659282336 -1 0 0
1254 4 72.50006710984425 8.459578811842531 0.05664416659282214 -1 0 0
1255 15 70.00535449234924 10.57450651726285 -0.006727880940857513 -1 0 0
1165 3 70.25553787622508 6.344711211782252 2.8622436712180166 -1 0 0
1253 3 70.25553787622508 10.574498268243252 2.8622436712180166 -1 0 0
1256 16 72.2040514754092 8.459589567478842 2.9236749458834903 -1 0 0
1171 13 74.38106402079524 6.344719460801852 -0.006727880940856945 -1 0 0
1175 15 78.75677354924125 6.344719460801852 -0.006727880940858348 -1 0 0
1258 2 76.87577663829025 8.459578811842531 0.05664416659282191 -1 0 0
1259 13 74.38106402079524 10.57450651726285 -0.0067278809408569595 -1 0 0
1263 15 78.75677354924125 10.57450651726285 -0.006727880940858013 -1 0 0
1169 1 74.63124740467109 6.344711211782252 2.8622436712180144 -1 0 0
1173 3 79.00695693311708 6.344711211782252 2.862243671218015 -1 0 0
1257 1 74.63124740467109 10.574498268243252 2.8622436712180144 -1 0 0
1261 3 79.00695693311708 10.574498268243252 2.8622436712180153 -1 0 0
1260 14 76.57976100385521 8.459589567478842 2.923674945883492 -1 0 0
1179 13 83.13248307768724 6.344719460801852 -0.006727880940857499 -1 0 0
1262 4 81.25148616673626 8.459578811842531 0.05664416659282297 -1 0 0
1267 13 83.13248307768724 10.57450651726285 -0.0067278809408575025 -1 0 0
1177 1 83.38266646156308 6.344711211782252 2.8622436712180166 -1 0 0
1265 1 83.38266646156308 10.574498268243252 2.8622436712180166 -1 0 0
1264 16 80.9554705323012 8.459589567478842 2.9236749458834916 -1 0 0
1183 15 87.50819260613325 6.344719460801852 -0.006727880940857441 -1 0 0
1266 2 85.62719569518225 8.459578811842531 0.056644166592821725 -1 0 0
1270 4 90.00290522362825 8.459578811842531 0.0566441665928205 -1 0 0
1271 15 87.50819260613325 10.57450651726285 -0.006727880940857445 -1 0 0
1181 3 87.75837599000909 6.344711211782252 2.8622436712180166 -1 0 0
1269 3 87.75837599000909 10.574498268243252 2.8622436712180166 -1 0 0
1268 14 85.3311800607472 8.459589567478842 2.9236749458834903 -1 0 0
1272 16 89.70688958919321 8.459589567478842 2.923674945883492 -1 0 0
1191 15 96.25961166302524 6.344719460801852 -0.006727880940857104 -1 0 0
1279 15 96.25961166302524 10.57450651726285 -0.006727880940857348 -1 0 0
1187 13 91.88390213457923 6.344719460801852 -0.006727880940857524 -1 0 0
1274 2 94.37861475207426 8.459578811842531 0.05664416659282297 -1 0 0
1275 13 91.88390213457923 10.57450651726285 -0.006727880940857574 -1 0 0
1185 1 92.13408551845508 6.344711211782252 2.8622436712180135 -1 0 0
1273 1 92.13408551845508 10.574498268243252 2.862243671218014 -1 0 0
1276 14 94.0825991176392 8.459589567478842 2.9236749458834916 -1 0 0
1366 4 2.4887146547082457 12.689365868303538 0.05664416659282086 0 0 0
1371 13 4.369711565659252 14.80429357372385 -0.006727880940857565 0 0 0
1454 4 2.488714654708246 16.919152924764532 0.05664416659281961 0 0 0
1365 3 0.24418542108905883 14.804285324704258 2.862243671218016 0 0 0
1369 1 4.619894949535055 14.804285324704258 2.862243671218017 0 0 0
1368 16 2.1926990202732113 12.689376623939847 2.923674945883491 0 0 0
1456 16 2.1926990202732117 16.919163680400835 2.9236749458834885 0 0 0
1370 2 6.864424183154248 12.689365868303538 0.0566441665928232 0 0 0
1374 4 11.240133711600253 12.689365868303538 0.05664416659282321 0 0 0
1375 15 8.74542109410525 14.80429357372385 -0.006727880940859252 0 0 0
1458 2 6.864424183154249 16.919152924764532 0.05664416659282136 0 0 0
1462 4 11.240133711600253 16.919152924764532 0.056644166592820774 0 0 0
1373 3 8.995604477981056 14.804285324704258 2.8622436712180153 0 0 0
1372 14 6.568408548719212 12.689376623939847 2.923674945883492 0 0 0
1376 16 10.944118077165218 12.689376623939847 2.923674945883492 0 0 0
1460 14 6.568408548719211 16.919163680400835 2.9236749458834908 0 0 0
1464 16 10.944118077165218 16.919163680400835 2.9236749458834903 0 0 0
1378 2 15.615843240046246 12.689365868303538 0.05664416659282112 0 0 0
1379 13 13.121130622551247 14.80429357372385 -0.0067278809408576855 0 0 0
1466 2 15.615843240046246 16.919152924764532 0.056644166592819796 0 0 0
1377 1 13.37131400642706 14.804285324704258 2.8622436712180166 0 0 0
1380 14 15.319827605611218 12.689376623939847 2.9236749458834916 0 0 0
1468 14 15.319827605611218 16.919163680400835 2.9236749458834894 0 0 0
1382 4 19.991552768492248 12.689365868303538 0.05664416659282467 0 0 0
1383 15 17.496840150997244 14.80429357372385 -0.0067278809408599085 0 0 0
1387 13 21.872549679443253 14.80429357372385 -0.00672788094085768 0 0 0
1470 4 19.991552768492248 16.919152924764532 0.05664416659282238 0 0 0
1381 3 17.74702353487306 14.804285324704258 2.8622436712180153 0 0 0
1385 1 22.122733063319053 14.804285324704258 2.862243671218017 0 0 0
1384 16 19.695537134057222 12.689376623939847 2.923674945883494 0 0 0
1472 16 19.695537134057222 16.919163680400835 2.923674945883492 0 0 0
1386 2 24.367262296938243 12.689365868303538 0.056644166592822356 0 0 0
1391 15 26.248259207889248 14.80429357372385 -0.006727880940858092 0 0 0
1474 2 24.367262296938243 16.919152924764532 0.05664416659281989 0 0 0
1389 3 26.49844259176505 14.804285324704258 2.8622436712180166 0 0 0
1388 14 24.071246662503217 12.689376623939847 2.923674945883492 0 0 0
1476 14 24.071246662503217 16.919163680400835 2.9236749458834908 0 0 0
1390 4 28.742971825384238 12.689365868303538 0.05664416659282192 0 0 0
1394 2 33.118681353830254 12.689365868303538 0.056644166592822745 0 0 0
1395 13 30.623968736335257 14.80429357372385 -0.006727880940858943 0 0 0
1478 4 28.742971825384238 16.919152924764532 0.05664416659281992 0 0 0
1482 2 33.118681353830254 16.919152924764532 0.05664416659282067 0 0 0
1393 1 30.874152120211058 14.804285324704258 2.862243671218017 0 0 0
1392 16 28.44695619094921 12.689376623939847 2.923674945883492 0 0 0
1396 14 32.822665719395225 12.689376623939847 2.923674945883492 0 0 0
1480 16 28.44695619094921 16.919163680400835 2.9236749458834903 0 0 0
1484 14 32.822665719395225 16.919163680400835 2.92367494588349 0 0 0
1398 4 37.49439088227625 12.689365868303538 0.05664416659282249 0 0 0
1399 15 34.99967826478126 14.80429357372385 -0.006727880940858841 0 0 0
1403 13 39.375387793227254 14.80429357372385 -0.006727880940859786 0 0 0
1486 4 37.49439088227625 16.919152924764532 0.056644166592820136 0 0 0
1397 3 35.24986164865705 14.804285324704258 2.862243671218016 0 0 0
1401 1 39.62557117710305 14.804285324704258 2.862243671218017 0 0 0
1400 16 37.19837524784123 12.689376623939847 2.9236749458834925 0 0 0
1488 16 37.19837524784123 16.919163680400835 2.9236749458834903 0 0 0
1402 2 41.870100410722245 12.689365868303538 0.05664416659282307 0 0 0
1407 15 43.751097321673264 14.80429357372385 -0.006727880940857685 0 0 0
1490 2 41.870100410722245 16.919152924764532 0.056644166592821045 0 0 0
1405 3 44.00128070554906 14.804285324704258 2.8622436712180175 0 0 0
1404 14 41.57408477628722 12.689376623939847 2.9236749458834925 0 0 0
1492 14 41.57408477628722 16.919163680400835 2.9236749458834908 0 0 0
1406 4 46.245809939168254 12.689365868303538 0.05664416659282135 0 0 0
1322 2 50.621519467614256 12.689365868303538 0.05664416659282186 -1 0 0
1323 13 48.12680685011926 14.80429357372385 -0.006727880940858707 -1 0 0
1494 4 46.245809939168254 16.919152924764532 0.056644166592819525 0 0 0
1410 2 50.621519467614256 16.919152924764532 0.05664416659281994 -1 0 0
1321 1 48.37699023399506 14.804285324704258 2.862243671218016 -1 0 0
1408 16 45.949794304733224 12.689376623939847 2.923674945883491 0 0 0
1324 14 50.325503833179226 12.689376623939847 2.9236749458834916 -1 0 0
1496 16 45.949794304733224 16.919163680400835 2.9236749458834894 0 0 0
1412 14 50.325503833179226 16.919163680400835 2.9236749458834894 -1 0 0
1326 4 54.99722899606026 12.689365868303538 0.05664416659282255 -1 0 0
1327 15 52.50251637856526 14.80429357372385 -0.0067278809408585 -1 0 0
1414 4 54.99722899606026 16.919152924764532 0.0566441665928203 -1 0 0
1325 3 52.75269976244106 14.804285324704258 2.8622436712180166 -1 0 0
1328 16 54.70121336162523 12.689376623939847 2.9236749458834925 -1 0 0
1416 16 54.70121336162523 16.919163680400835 2.9236749458834908 -1 0 0
1330 2 59.37293852450625 12.689365868303538 0.05664416659282186 -1 0 0
1331 13 56.87822590701126 14.80429357372385 -0.006727880940858875 -1 0 0
1335 15 61.25393543545726 14.80429357372385 -0.006727880940858666 -1 0 0
1418 2 59.37293852450625 16.919152924764532 0.05664416659281994 -1 0 0
1329 1 57.128409290887056 14.804285324704258 2.8622436712180166 -1 0 0
1333 3 61.50411881933306 14.804285324704258 2.862243671218016 -1 0 0
1332 14 59.07692289007122 12.689376623939847 2.9236749458834916 -1 0 0
1420 14 59.07692289007122 16.919163680400835 2.9236749458834894 -1 0 0
1334 4 63.748648052952255 12.689365868303538 0.056644166592822655 -1 0 0
1339 13 65.62964496390325 14.80429357372385 -0.00672788094085833 -1 0 0
1422 4 63.748648052952255 16.919152924764532 0.056644166592820205 -1 0 0
1337 1 65.87982834777908 14.804285324704258 2.862243671218015 -1 0 0
1336 16 63.452632418517226 12.689376623939847 2.9236749458834916 -1 0 0
1340 14 67.8283419469632 12.689376623939847 2.923674945883492 -1 0 0
1424 16 63.452632418517226 16.919163680400835 2.9236749458834903 -1 0 0
1428 14 67.8283419469632 16.919163680400835 2.92367494588349 -1 0 0
1338 2 68.12435758139826 12.689365868303538 0.05664416659282338 -1 0 0
1342 4 72.50006710984425 12.689365868303538 0.056644166592822606 -1 0 0
1343 15 70.00535449234924 14.80429357372385 -0.00672788094085745 -1 0 0
1426 2 68.12435758139826 16.919152924764532 0.056644166592822044 -1 0 0
1430 4 72.50006710984425 16.919152924764532 0.05664416659282 -1 0 0
1341 3 70.25553787622508 14.804285324704258 2.8622436712180166 -1 0 0
1344 16 72.2040514754092 12.689376623939847 2.9236749458834903 -1 0 0
1432 16 72.2040514754092 16.919163680400835 2.923674945883488 -1 0 0
1346 2 76.87577663829025 12.689365868303538 0.05664416659282192 -1 0 0
1347 13 74.38106402079524 14.80429357372385 -0.0067278809408569265 -1 0 0
1351 15 78.75677354924125 14.80429357372385 -0.006727880940857938 -1 0 0
1434 2 76.87577663829025 16.919152924764532 0.05664416659281984 -1 0 0
1345 1 74.63124740467109 14.804285324704258 2.8622436712180144 -1 0 0
1349 3 79.00695693311708 14.804285324704258 2.8622436712180153 -1 0 0
1348 14 76.57976100385521 12.689376623939847 2.923674945883492 -1 0 0
1436 14 76.57976100385521 16.919163680400835 2.923674945883491 -1 0 0
1350 4 81.25148616673626 12.689365868303538 0.056644166592823036 -1 0 0
1355 13 83.13248307768724 14.80429357372385 -0.006727880940857452 -1 0 0
1438 4 81.25148616673626 16.919152924764532 0.056644166592821385 -1 0 0
1353 1 83.38266646156308 14.804285324704258 2.8622436712180166 -1 0 0
1352 16 80.9554705323012 12.689376623939847 2.923674945883492 -1 0 0
1440 16 80.9554705323012 16.919163680400835 2.92367494588349 -1 0 0
1354 2 85.62719569518225 12.689365868303538 0.056644166592822565 -1 0 0
1358 4 90.00290522362825 12.689365868303538 0.056644166592820996 -1 0 0
1359 15 87.50819260613325 14.80429357372385 -0.006727880940857399 -1 0 0
1442 2 85.62719569518225 16.919152924764532 0.05664416659282 -1 0 0
1446 4 90.00290522362825 16.919152924764532 0.05664416659281864 -1 0 0
1357 3 87.75837599000909 14.804285324704258 2.8622436712180166 -1 0 0
1356 14 85.3311800607472 12.689376623939847 2.9236749458834903 -1 0 0
1360 16 89.70688958919321 12.689376623939847 2.923674945883492 -1 0 0
1444 14 85.3311800607472 16.919163680400835 2.923674945883488 -1 0 0
1448 16 89.70688958919321 16.919163680400835 2.9236749458834903 -1 0 0
1367 15 96.25961166302524 14.80429357372385 -0.0067278809408573255 -1 0 0
1362 2 94.37861475207426 12.689365868303538 0.056644166592823036 -1 0 0
1363 13 91.88390213457923 14.80429357372385 -0.006727880940857515 -1 0 0
1450 2 94.37861475207426 16.919152924764532 0.056644166592821385 -1 0 0
1361 1 92.13408551845508 14.804285324704258 2.862243671218014 -1 0 0
1364 14 94.0825991176392 12.689376623939847 2.923674945883492 -1 0 0
1452 14 94.0825991176392 16.919163680400835 2.92367494588349 -1 0 0
1459 13 4.369711565659252 19.034080630184846 -0.0067278809408581036 0 0 0
1542 4 2.488714654708246 21.14893998122554 0.05664416659282308 0 0 0
1547 13 4.369711565659252 23.263867686645852 -0.0067278809408581 0 0 0
1453 3 0.24418542108905875 19.034072381165256 2.862243671218016 0 0 0
1457 1 4.619894949535055 19.034072381165256 2.8622436712180175 0 0 0
1541 3 0.24418542108905875 23.263859437626262 2.862243671218016 0 0 0
1545 1 4.619894949535055 23.263859437626262 2.8622436712180175 0 0 0
1544 16 2.192699020273212 21.148950736861842 2.923674945883492 0 0 0
1463 15 8.74542109410525 19.034080630184846 -0.006727880940859395 0 0 0
1546 2 6.864424183154248 21.14893998122554 0.05664416659282401 0 0 0
1550 4 11.24013371160025 21.14893998122554 0.05664416659282472 0 0 0
1551 15 8.745421094105252 23.263867686645852 -0.0067278809408606146 0 0 0
1461 3 8.995604477981056 19.034072381165256 2.8622436712180153 0 0 0
1549 3 8.995604477981056 23.263859437626262 2.8622436712180153 0 0 0
1548 14 6.568408548719211 21.148950736861842 2.9236749458834943 0 0 0
1552 16 10.944118077165218 21.148950736861842 2.9236749458834934 0 0 0
1467 13 13.121130622551247 19.034080630184846 -0.0067278809408578355 0 0 0
1554 2 15.615843240046246 21.14893998122554 0.05664416659282294 0 0 0
1555 13 13.121130622551247 23.263867686645852 -0.006727880940857843 0 0 0
1465 1 13.37131400642706 19.034072381165256 2.8622436712180157 0 0 0