LAMMPS data file via write_data, version 29 Aug 2024, timestep = 12, units = metal

4224 atoms
16 atom types

0 96.265609625812 xlo xhi
0 101.514889355064 ylo yhi
-50 50 zlo zhi

Masses

1 72.63
2 72.63
3 72.63
4 72.63
5 72.63
6 72.63
7 72.63
8 72.63
9 127.6
10 127.6
11 127.6
12 127.6
13 127.6
14 127.6
15 127.6
16 127.6

Atoms # atomic

1102 4 2.504380502752101 4.639930618829753e-06 -0.010190050993470897 0 0 0
1107 9 4.373297038376818 2.1149322592575555 0.1287830280247908 0 0 0
1190 4 2.504380502752102 4.229791696391618 -0.010190050993471957 0 0 0
1104 12 2.216193084762908 2.48603516725894e-05 2.8589102237865385 0 0 0
1192 12 2.216193084762908 4.2298119168126735 2.8589102237865367 0 0 0
1106 2 6.880090031198104 4.639930618832705e-06 -0.010190050993466553 0 0 0
1111 11 8.749006566822821 2.1149322592575555 0.12878302802478547 0 0 0
1110 4 11.255799559644107 4.6399306188331e-06 -0.010190050993466787 0 0 0
1194 2 6.880090031198104 4.229791696391618 -0.010190050993468924 0 0 0
1198 4 11.255799559644105 4.229791696391618 -0.010190050993468418 0 0 0
1108 10 6.591902613208907 2.4860351672603025e-05 2.858910223786541 0 0 0
1112 12 10.967612141654916 2.486035167238758e-05 2.858910223786542 0 0 0
1196 10 6.591902613208907 4.2298119168126735 2.8589102237865394 0 0 0
1200 12 10.967612141654916 4.2298119168126735 2.8589102237865403 0 0 0
1115 9 13.124716095268816 2.1149322592575555 0.1287830280247898 0 0 0
1114 2 15.6315090880901 4.639930618836688e-06 -0.010190050993469769 0 0 0
1202 2 15.631509088090102 4.229791696391618 -0.010190050993471537 0 0 0
1116 10 15.343321670100917 2.4860351672658854e-05 2.858910223786539 0 0 0
1204 10 15.343321670100917 4.2298119168126735 2.8589102237865376 0 0 0
1119 11 17.50042562371481 2.1149322592575555 0.12878302802478409 0 0 0
1118 4 20.007218616536104 4.639930618832148e-06 -0.01019005099346509 0 0 0
1123 9 21.87613515216082 2.1149322592575555 0.12878302802479044 0 0 0
1206 4 20.0072186165361 4.229791696391618 -0.010190050993466617 0 0 0
1120 12 19.719031198546922 2.486035167246783e-05 2.8589102237865442 0 0 0
1208 12 19.71903119854692 4.2298119168126735 2.858910223786542 0 0 0
1122 2 24.382928144982102 4.63993061883316e-06 -0.010190050993467594 0 0 0
1127 11 26.251844680606816 2.1149322592575555 0.12878302802478947 0 0 0
1210 2 24.3829281449821 4.229791696391618 -0.01019005099346915 0 0 0
1124 10 24.094740726992914 2.486035167238396e-05 2.8589102237865407 0 0 0
1212 10 24.094740726992914 4.2298119168126735 2.8589102237865394 0 0 0
1126 4 28.758637673428098 4.6399306188407515e-06 -0.010190050993469212 0 0 0
1131 9 30.627554209052825 2.1149322592575555 0.1287830280247884 0 0 0
1130 2 33.1343472018741 4.6399306188373515e-06 -0.010190050993468702 0 0 0
1214 4 28.758637673428098 4.229791696391618 -0.010190050993470754 0 0 0
1218 2 33.1343472018741 4.229791696391618 -0.010190050993469962 0 0 0
1128 12 28.47045025543891 2.48603516720534e-05 2.85891022378654 0 0 0
1132 10 32.84615978388491 2.4860351672298354e-05 2.8589102237865403 0 0 0
1216 12 28.47045025543891 4.2298119168126735 2.8589102237865376 0 0 0
1220 10 32.846159783884914 4.2298119168126735 2.858910223786539 0 0 0
1135 11 35.00326373749882 2.1149322592575555 0.1287830280247885 0 0 0
1134 4 37.510056730320095 4.639930618833716e-06 -0.010190050993468225 0 0 0
1139 9 39.378973265944815 2.1149322592575555 0.1287830280247871 0 0 0
1222 4 37.510056730320095 4.229791696391618 -0.010190050993469844 0 0 0
1136 12 37.2218693123309 2.4860351672473954e-05 2.8589102237865407 0 0 0
1224 12 37.2218693123309 4.2298119168126735 2.85891022378654 0 0 0
1138 2 41.88576625876609 4.639930618839231e-06 -0.010190050993467417 0 0 0
1143 11 43.754682794390824 2.1149322592575555 0.1287830280247888 0 0 0
1226 2 41.88576625876609 4.229791696391618 -0.010190050993469374 0 0 0
1140 10 41.597578840776904 2.4860351672095293e-05 2.8589102237865416 0 0 0
1228 10 41.597578840776904 4.2298119168126735 2.8589102237865403 0 0 0
1142 4 46.2614757872121 4.6399306188359454e-06 -0.010190050993469731 0 0 0
1059 9 48.13039232283682 2.1149322592575555 0.12878302802478736 -1 0 0
1058 2 50.6371853156581 4.63993061883633e-06 -0.010190050993468739 -1 0 0
1230 4 46.261475787212106 4.229791696391618 -0.010190050993471061 0 0 0
1146 2 50.6371853156581 4.229791696391618 -0.010190050993470479 -1 0 0
1144 12 45.973288369222914 2.4860351672637807e-05 2.8589102237865403 0 0 0
1060 10 50.34899789766891 2.4860351672219275e-05 2.8589102237865403 -1 0 0
1232 12 45.973288369222914 4.2298119168126735 2.858910223786537 0 0 0
1148 10 50.348997897668916 4.2298119168126735 2.8589102237865385 -1 0 0
1063 11 52.50610185128282 2.1149322592575555 0.12878302802478866 -1 0 0
1062 4 55.0128948441041 4.639930618836716e-06 -0.01019005099346684 -1 0 0
1150 4 55.0128948441041 4.229791696391618 -0.010190050993469339 -1 0 0
1064 12 54.72470742611491 2.4860351672353228e-05 2.8589102237865416 -1 0 0
1152 12 54.72470742611492 4.2298119168126735 2.8589102237865403 -1 0 0
1067 9 56.88181137972882 2.1149322592575555 0.12878302802478753 -1 0 0
1066 2 59.3886043725501 4.63993061883852e-06 -0.010190050993469554 -1 0 0
1071 11 61.25752090817482 2.1149322592575555 0.12878302802478744 -1 0 0
1154 2 59.3886043725501 4.229791696391618 -0.010190050993471264 -1 0 0
1068 10 59.100416954560906 2.486035167220403e-05 2.8589102237865394 -1 0 0
1156 10 59.10041695456091 4.2298119168126735 2.8589102237865385 -1 0 0
1070 4 63.7643139009961 4.639930618836809e-06 -0.010190050993468043 -1 0 0
1075 9 65.63323043662083 2.1149322592575555 0.12878302802478545 -1 0 0
1158 4 63.7643139009961 4.229791696391618 -0.010190050993469788 -1 0 0
1072 12 63.476126483006915 2.4860351672372056e-05 2.858910223786541 -1 0 0
1076 10 67.85183601145293 2.486035167220105e-05 2.858910223786543 -1 0 0
1160 12 63.476126483006915 4.2298119168126735 2.858910223786539 -1 0 0
1164 10 67.85183601145293 4.2298119168126735 2.8589102237865407 -1 0 0
1074 2 68.14002342944211 4.639930618834811e-06 -0.010190050993467892 -1 0 0
1079 11 70.00893996506682 2.1149322592575555 0.1287830280247898 -1 0 0
1078 4 72.5157329578881 4.639930618833884e-06 -0.010190050993471308 -1 0 0
1162 2 68.14002342944211 4.229791696391618 -0.010190050993469126 -1 0 0
1166 4 72.5157329578881 4.229791696391618 -0.010190050993472193 -1 0 0
1080 12 72.22754553989893 2.4860351672668822e-05 2.8589102237865403 -1 0 0
1168 12 72.22754553989893 4.2298119168126735 2.8589102237865385 -1 0 0
1083 9 74.38464949351282 2.1149322592575555 0.12878302802478797 -1 0 0
1082 2 76.8914424863341 4.639930618837065e-06 -0.010190050993468348 -1 0 0
1087 11 78.76035902195883 2.1149322592575555 0.12878302802478653 -1 0 0
1170 2 76.8914424863341 4.229791696391618 -0.010190050993470645 -1 0 0
1084 10 76.60325506834494 2.4860351672337568e-05 2.858910223786542 -1 0 0
1172 10 76.60325506834494 4.2298119168126735 2.8589102237865403 -1 0 0
1086 4 81.26715201478011 4.639930618838705e-06 -0.010190050993467224 -1 0 0
1091 9 83.13606855040481 2.1149322592575555 0.12878302802478978 -1 0 0
1174 4 81.26715201478011 4.229791696391618 -0.010190050993469094 -1 0 0
1088 12 80.97896459679093 2.4860351672029238e-05 2.858910223786543 -1 0 0
1176 12 80.97896459679093 4.2298119168126735 2.8589102237865407 -1 0 0
1090 2 85.6428615432261 4.639930618835975e-06 -0.010190050993471485 -1 0 0
1095 11 87.51177807885082 2.1149322592575555 0.12878302802479105 -1 0 0
1094 4 90.0185710716721 4.6399306188378225e-06 -0.01019005099347029 -1 0 0
1178 2 85.6428615432261 4.229791696391618 -0.010190050993472047 -1 0 0
1182 4 90.0185710716721 4.229791696391618 -0.010190050993471247 -1 0 0
1092 10 85.35467412523693 2.4860351672594124e-05 2.8589102237865394 -1 0 0
1096 12 89.73038365368294 2.486035167216677e-05 2.8589102237865425 -1 0 0
1180 10 85.35467412523693 4.2298119168126735 2.8589102237865376 -1 0 0
1184 12 89.73038365368294 4.2298119168126735 2.8589102237865394 -1 0 0
1103 11 96.26319713574283 2.1149322592575555 0.12878302802478997 -1 0 0
1099 9 91.88748760729682 2.1149322592575555 0.1287830280247861 -1 0 0
1098 2 94.39428060011811 4.639930618824793e-06 -0.01019005099346776 -1 0 0
1186 2 94.39428060011811 4.229791696391618 -0.010190050993469113 -1 0 0
1100 10 94.10609318212893 2.486035167295811e-05 2.858910223786543 -1 0 0
1188 10 94.10609318212893 4.2298119168126735 2.858910223786541 -1 0 0
1195 9 4.373297038376818 6.344719315718556 0.12878302802479072 0 0 0
1278 4 2.5043805027521016 8.45957875285262 -0.010190050993472156 0 0 0
1283 9 4.373297038376818 10.574506372179552 0.12878302802479077 0 0 0
1280 12 2.2161930847629074 8.459598973273671 2.8589102237865367 0 0 0
1199 11 8.749006566822821 6.344719315718556 0.1287830280247856 0 0 0
1282 2 6.880090031198104 8.45957875285262 -0.010190050993469276 0 0 0
1286 4 11.255799559644105 8.45957875285262 -0.010190050993468116 0 0 0
1287 11 8.749006566822821 10.574506372179552 0.1287830280247855 0 0 0
1284 10 6.591902613208907 8.459598973273671 2.8589102237865394 0 0 0
1288 12 10.967612141654916 8.459598973273671 2.8589102237865403 0 0 0
1203 9 13.124716095268816 6.344719315718556 0.12878302802479005 0 0 0
1290 2 15.6315090880901 8.45957875285262 -0.010190050993471752 0 0 0
1291 9 13.124716095268816 10.574506372179552 0.12878302802478955 0 0 0
1292 10 15.343321670100917 8.459598973273671 2.858910223786537 0 0 0
1207 11 17.50042562371481 6.344719315718556 0.12878302802478414 0 0 0
1211 9 21.87613515216082 6.344719315718556 0.12878302802479055 0 0 0
1294 4 20.007218616536104 8.45957875285262 -0.010190050993466666 0 0 0
1295 11 17.50042562371481 10.574506372179552 0.1287830280247852 0 0 0
1299 9 21.87613515216082 10.574506372179552 0.12878302802478972 0 0 0
1296 12 19.719031198546922 8.459598973273671 2.8589102237865425 0 0 0
1215 11 26.251844680606816 6.344719315718556 0.12878302802478953 0 0 0
1298 2 24.382928144982095 8.45957875285262 -0.010190050993469401 0 0 0
1303 11 26.251844680606816 10.574506372179552 0.1287830280247895 0 0 0
1300 10 24.094740726992914 8.459598973273671 2.858910223786539 0 0 0
1219 9 30.627554209052825 6.344719315718556 0.1287830280247885 0 0 0
1302 4 28.758637673428094 8.45957875285262 -0.010190050993470706 0 0 0
1306 2 33.1343472018741 8.45957875285262 -0.010190050993469821 0 0 0
1307 9 30.627554209052825 10.574506372179552 0.12878302802478855 0 0 0
1304 12 28.47045025543891 8.459598973273671 2.8589102237865376 0 0 0
1308 10 32.846159783884914 8.459598973273671 2.8589102237865385 0 0 0
1223 11 35.00326373749882 6.344719315718556 0.128783028024788 0 0 0
1227 9 39.378973265944815 6.344719315718556 0.1287830280247872 0 0 0
1310 4 37.510056730320095 8.45957875285262 -0.010190050993470388 0 0 0
1311 11 35.00326373749882 10.574506372179552 0.12878302802478722 0 0 0
1315 9 39.378973265944815 10.574506372179552 0.12878302802478714 0 0 0
1312 12 37.22186931233091 8.459598973273671 2.8589102237865394 0 0 0
1231 11 43.754682794390824 6.344719315718556 0.12878302802478808 0 0 0
1314 2 41.88576625876609 8.45957875285262 -0.010190050993469335 0 0 0
1319 11 43.754682794390824 10.574506372179552 0.1287830280247886 0 0 0
1316 10 41.597578840776904 8.459598973273671 2.8589102237865394 0 0 0
1147 9 48.13039232283682 6.344719315718556 0.12878302802478742 -1 0 0
1318 4 46.2614757872121 8.45957875285262 -0.010190050993471228 0 0 0
1234 2 50.6371853156581 8.45957875285262 -0.010190050993470583 -1 0 0
1235 9 48.13039232283682 10.574506372179552 0.12878302802478742 -1 0 0
1320 12 45.973288369222914 8.459598973273671 2.858910223786538 0 0 0
1236 10 50.34899789766891 8.459598973273671 2.8589102237865385 -1 0 0
1151 11 52.50610185128282 6.344719315718556 0.12878302802478894 -1 0 0
1238 4 55.0128948441041 8.45957875285262 -0.010190050993469061 -1 0 0
1239 11 52.50610185128282 10.574506372179552 0.12878302802478855 -1 0 0
1240 12 54.72470742611491 8.459598973273671 2.85891022378654 -1 0 0
1155 9 56.88181137972882 6.344719315718556 0.1287830280247876 -1 0 0
1159 11 61.25752090817482 6.344719315718556 0.12878302802478747 -1 0 0
1242 2 59.3886043725501 8.45957875285262 -0.010190050993470501 -1 0 0
1243 9 56.88181137972882 10.574506372179552 0.12878302802478758 -1 0 0
1247 11 61.25752090817482 10.574506372179552 0.12878302802478742 -1 0 0
1244 10 59.10041695456091 8.459598973273671 2.8589102237865385 -1 0 0
1163 9 65.63323043662083 6.344719315718556 0.12878302802478622 -1 0 0
1246 4 63.7643139009961 8.45957875285262 -0.010190050993470333 -1 0 0
1251 9 65.63323043662083 10.574506372179552 0.12878302802478583 -1 0 0
1248 12 63.476126483006915 8.459598973273671 2.858910223786539 -1 0 0
1252 10 67.85183601145293 8.459598973273671 2.8589102237865403 -1 0 0
1167 11 70.00893996506682 6.344719315718556 0.12878302802479058 -1 0 0
1250 2 68.14002342944211 8.45957875285262 -0.010190050993469566 -1 0 0
1254 4 72.5157329578881 8.45957875285262 -0.010190050993471492 -1 0 0
1255 11 70.00893996506682 10.574506372179552 0.12878302802478986 -1 0 0
1256 12 72.22754553989893 8.459598973273671 2.858910223786538 -1 0 0
1171 9 74.38464949351282 6.344719315718556 0.12878302802478764 -1 0 0
1175 11 78.76035902195883 6.344719315718556 0.1287830280247866 -1 0 0
1258 2 76.8914424863341 8.45957875285262 -0.01019005099347007 -1 0 0
1259 9 74.38464949351282 10.574506372179552 0.12878302802478797 -1 0 0
1263 11 78.76035902195883 10.574506372179552 0.12878302802478658 -1 0 0
1260 10 76.60325506834494 8.459598973273671 2.8589102237865403 -1 0 0
1179 9 83.13606855040481 6.344719315718556 0.12878302802479055 -1 0 0
1262 4 81.26715201478011 8.45957875285262 -0.010190050993469113 -1 0 0
1267 9 83.13606855040481 10.574506372179552 0.1287830280247898 -1 0 0
1264 12 80.97896459679093 8.459598973273671 2.8589102237865407 -1 0 0
1183 11 87.51177807885082 6.344719315718556 0.12878302802479158 -1 0 0
1266 2 85.6428615432261 8.45957875285262 -0.010190050993472245 -1 0 0
1270 4 90.0185710716721 8.45957875285262 -0.010190050993471134 -1 0 0
1271 11 87.51177807885082 10.574506372179552 0.1287830280247911 -1 0 0
1268 10 85.35467412523693 8.459598973273671 2.858910223786538 -1 0 0
1272 12 89.73038365368294 8.459598973273671 2.858910223786539 -1 0 0
1191 11 96.26319713574283 6.344719315718556 0.12878302802479 -1 0 0
1279 11 96.26319713574283 10.574506372179552 0.12878302802479 -1 0 0
1187 9 91.88748760729682 6.344719315718556 0.12878302802478622 -1 0 0
1274 2 94.39428060011811 8.45957875285262 -0.010190050993469051 -1 0 0
1275 9 91.88748760729682 10.574506372179552 0.12878302802478614 -1 0 0
1276 10 94.10609318212893 8.459598973273671 2.8589102237865407 -1 0 0
1366 4 2.5043805027521016 12.689365809313626 -0.010190050993471828 0 0 0
1371 9 4.373297038376818 14.804293428640552 0.12878302802479077 0 0 0
1454 4 2.504380502752102 16.91915286577462 -0.01019005099347451 0 0 0
1368 12 2.2161930847629074 12.689386029734674 2.8589102237865363 0 0 0
1456 12 2.216193084762907 16.919173086195666 2.8589102237865345 0 0 0
1370 2 6.880090031198104 12.689365809313626 -0.010190050993468898 0 0 0
1374 4 11.255799559644105 12.689365809313626 -0.010190050993468338 0 0 0
1375 11 8.749006566822821 14.804293428640552 0.12878302802478575 0 0 0
1458 2 6.880090031198104 16.91915286577462 -0.01019005099347031 0 0 0
1462 4 11.255799559644107 16.91915286577462 -0.010190050993470263 0 0 0
1372 10 6.591902613208907 12.689386029734676 2.85891022378654 0 0 0
1376 12 10.967612141654916 12.689386029734674 2.8589102237865407 0 0 0
1460 10 6.591902613208906 16.919173086195666 2.858910223786538 0 0 0
1464 12 10.967612141654916 16.919173086195666 2.8589102237865385 0 0 0
1378 2 15.631509088090102 12.689365809313626 -0.010190050993471382 0 0 0
1379 9 13.124716095268816 14.804293428640552 0.1287830280247901 0 0 0
1466 2 15.631509088090102 16.91915286577462 -0.010190050993473117 0 0 0
1380 10 15.343321670100917 12.689386029734674 2.858910223786538 0 0 0
1468 10 15.343321670100917 16.919173086195666 2.8589102237865354 0 0 0
1382 4 20.0072186165361 12.689365809313626 -0.010190050993466721 0 0 0
1383 11 17.50042562371481 14.804293428640552 0.12878302802478564 0 0 0
1387 9 21.87613515216082 14.804293428640552 0.12878302802479044 0 0 0
1470 4 20.007218616536104 16.91915286577462 -0.010190050993468435 0 0 0
1384 12 19.719031198546922 12.689386029734676 2.8589102237865434 0 0 0
1472 12 19.719031198546922 16.919173086195666 2.8589102237865407 0 0 0
1386 2 24.3829281449821 12.689365809313626 -0.01019005099346913 0 0 0
1391 11 26.251844680606816 14.804293428640552 0.12878302802478941 0 0 0
1474 2 24.382928144982102 16.91915286577462 -0.01019005099347103 0 0 0
1388 10 24.094740726992914 12.689386029734674 2.858910223786539 0 0 0
1476 10 24.094740726992914 16.919173086195666 2.8589102237865376 0 0 0
1390 4 28.758637673428094 12.689365809313626 -0.010190050993470359 0 0 0
1394 2 33.1343472018741 12.689365809313626 -0.01019005099346974 0 0 0
1395 9 30.627554209052825 14.804293428640552 0.12878302802478864 0 0 0
1478 4 28.758637673428094 16.91915286577462 -0.010190050993472945 0 0 0
1482 2 33.1343472018741 16.91915286577462 -0.010190050993472397 0 0 0
1392 12 28.47045025543891 12.689386029734674 2.858910223786538 0 0 0
1396 10 32.846159783884914 12.689386029734674 2.858910223786539 0 0 0
1480 12 28.47045025543891 16.919173086195666 2.858910223786536 0 0 0
1484 10 32.84615978388491 16.919173086195666 2.8589102237865367 0 0 0
1398 4 37.510056730320095 12.689365809313626 -0.010190050993469816 0 0 0
1399 11 35.00326373749882 14.804293428640552 0.12878302802478817 0 0 0
1403 9 39.378973265944815 14.804293428640552 0.12878302802478772 0 0 0
1486 4 37.510056730320095 16.91915286577462 -0.01019005099347157 0 0 0
1400 12 37.2218693123309 12.689386029734674 2.85891022378654 0 0 0
1488 12 37.22186931233091 16.919173086195666 2.858910223786537 0 0 0
1402 2 41.88576625876609 12.689365809313626 -0.01019005099347007 0 0 0
1407 11 43.754682794390824 14.804293428640552 0.1287830280247888 0 0 0
1490 2 41.88576625876609 16.91915286577462 -0.010190050993471037 0 0 0
1404 10 41.597578840776904 12.689386029734674 2.85891022378654 0 0 0
1492 10 41.597578840776904 16.919173086195666 2.8589102237865376 0 0 0
1406 4 46.261475787212106 12.689365809313626 -0.010190050993470914 0 0 0
1322 2 50.6371853156581 12.689365809313626 -0.010190050993470475 -1 0 0
1323 9 48.13039232283682 14.804293428640552 0.1287830280247872 -1 0 0
1494 4 46.2614757872121 16.91915286577462 -0.010190050993473105 0 0 0
1410 2 50.6371853156581 16.91915286577462 -0.010190050993472784 -1 0 0
1408 12 45.973288369222914 12.689386029734674 2.858910223786537 0 0 0
1324 10 50.348997897668916 12.689386029734674 2.8589102237865385 -1 0 0
1496 12 45.973288369222914 16.919173086195666 2.8589102237865367 0 0 0
1412 10 50.34899789766891 16.919173086195666 2.8589102237865363 -1 0 0
1326 4 55.0128948441041 12.689365809313626 -0.010190050993468645 -1 0 0
1327 11 52.50610185128282 14.804293428640552 0.12878302802478864 -1 0 0
1414 4 55.0128948441041 16.91915286577462 -0.010190050993471016 -1 0 0
1328 12 54.72470742611491 12.689386029734674 2.85891022378654 -1 0 0
1416 12 54.72470742611491 16.919173086195666 2.858910223786538 -1 0 0
1330 2 59.3886043725501 12.689365809313626 -0.010190050993470865 -1 0 0
1331 9 56.88181137972882 14.804293428640552 0.12878302802478717 -1 0 0
1335 11 61.25752090817482 14.804293428640552 0.12878302802478753 -1 0 0
1418 2 59.3886043725501 16.91915286577462 -0.010190050993472526 -1 0 0
1332 10 59.10041695456091 12.689386029734674 2.858910223786538 -1 0 0
1420 10 59.100416954560906 16.919173086195666 2.8589102237865363 -1 0 0
1334 4 63.7643139009961 12.689365809313626 -0.010190050993469814 -1 0 0
1339 9 65.63323043662083 14.804293428640552 0.12878302802478597 -1 0 0
1422 4 63.7643139009961 16.91915286577462 -0.010190050993472399 -1 0 0
1336 12 63.476126483006915 12.689386029734674 2.858910223786539 -1 0 0
1340 10 67.85183601145293 12.689386029734674 2.8589102237865403 -1 0 0
1424 12 63.47612648300691 16.919173086195666 2.8589102237865367 -1 0 0
1428 10 67.85183601145293 16.919173086195666 2.858910223786539 -1 0 0
1338 2 68.14002342944211 12.689365809313626 -0.010190050993469774 -1 0 0
1342 4 72.5157329578881 12.689365809313626 -0.010190050993471386 -1 0 0
1343 11 70.00893996506683 14.804293428640552 0.12878302802478958 -1 0 0
1426 2 68.14002342944211 16.91915286577462 -0.010190050993471086 -1 0 0
1430 4 72.5157329578881 16.91915286577462 -0.010190050993473827 -1 0 0
1344 12 72.22754553989893 12.689386029734674 2.858910223786538 -1 0 0
1432 12 72.22754553989893 16.919173086195666 2.8589102237865363 -1 0 0
1346 2 76.8914424863341 12.689365809313626 -0.010190050993469745 -1 0 0
1347 9 74.38464949351282 14.804293428640552 0.12878302802478814 -1 0 0
1351 11 78.76035902195883 14.804293428640552 0.1287830280247871 -1 0 0
1434 2 76.8914424863341 16.91915286577462 -0.01019005099347251 -1 0 0
1348 10 76.60325506834494 12.689386029734674 2.8589102237865407 -1 0 0
1436 10 76.60325506834494 16.919173086195666 2.858910223786538 -1 0 0
1350 4 81.26715201478011 12.689365809313626 -0.010190050993468732 -1 0 0
1355 9 83.13606855040481 14.804293428640552 0.12878302802479033 -1 0 0
1438 4 81.26715201478011 16.91915286577462 -0.010190050993470957 -1 0 0
1352 12 80.97896459679093 12.689386029734676 2.8589102237865416 -1 0 0
1440 12 80.97896459679093 16.919173086195666 2.858910223786539 -1 0 0
1354 2 85.6428615432261 12.689365809313626 -0.01019005099347201 -1 0 0
1358 4 90.0185710716721 12.689365809313626 -0.010190050993471157 -1 0 0
1359 11 87.51177807885084 14.804293428640552 0.12878302802479066 -1 0 0
1442 2 85.6428615432261 16.91915286577462 -0.010190050993473695 -1 0 0
1446 4 90.0185710716721 16.91915286577462 -0.010190050993473155 -1 0 0
1356 10 85.35467412523693 12.689386029734676 2.858910223786538 -1 0 0
1360 12 89.73038365368294 12.689386029734676 2.85891022378654 -1 0 0
1444 10 85.35467412523693 16.919173086195666 2.8589102237865354 -1 0 0
1448 12 89.73038365368294 16.919173086195666 2.858910223786538 -1 0 0
1367 11 96.26319713574283 14.804293428640552 0.1287830280247902 -1 0 0
1362 2 94.39428060011811 12.689365809313626 -0.010190050993469379 -1 0 0
1363 9 91.88748760729682 14.804293428640552 0.12878302802478636 -1 0 0
1450 2 94.39428060011811 16.91915286577462 -0.01019005099347173 -1 0 0
1364 10 94.10609318212893 12.689386029734674 2.8589102237865403 -1 0 0
1452 10 94.10609318212893 16.919173086195666 2.858910223786538 -1 0 0
1459 9 4.373297038376818 19.03408048510154 0.12878302802479022 0 0 0
1542 4 2.5043805027521016 21.148939922235627 -0.010190050993470336 0 0 0
1547 9 4.373297038376817 23.263867541562547 0.12878302802479077 0 0 0
1544 12 2.2161930847629074 21.14896014265667 2.8589102237865376 0 0 0
1463 11 8.749006566822821 19.03408048510154 0.12878302802478564 0 0 0
1546 2 6.880090031198104 21.148939922235627 -0.010190050993466749 0 0 0
1550 4 11.255799559644107 21.148939922235627 -0.010190050993467406 0 0 0
1551 11 8.749006566822821 23.263867541562547 0.12878302802478545 0 0 0
1548 10 6.591902613208908 21.14896014265667 2.858910223786541 0 0 0
1552 12 10.967612141654916 21.14896014265667 2.8589102237865416 0 0 0
1467 9 13.124716095268816 19.03408048510154 0.12878302802478964 0 0 0
1554 2 15.631509088090102 21.148939922235627 -0.010190050993470113 0 0 0
1555 9 13.124716095268816 23.263867541562547 0.12878302802478955 0 0 0
1556 10 15.343321670100917 21.14896014265667 2.8589102237865385 0 0 0
1471 11 17.50042562371481 19.03408048510154 0.128783028024785 0 0 0
1475 9 21.87613515216082 19.03408048510154 0.1287830280247896 0 0 0
1558 4 20.007218616536104 21.148939922235627 -0.010190050993465287 0 0 0
1559 11 17.50042562371481 23.263867541562547 0.12878302802478458 0 0 0
1563 9 21.87613515216082 23.263867541562547 0.12878302802479016 0 0 0
1560 12 19.71903119854692 21.14896014265667 2.8589102237865434 0 0 0
1479 11 26.251844680606816 19.03408048510154 0.12878302802478958 0 0 0
1562 2 24.3829281449821 21.148939922235627 -0.010190050993467963 0 0 0
1567 11 26.251844680606816 23.263867541562547 0.1287830280247899 0 0 0
1564 10 24.094740726992914 21.14896014265667 2.8589102237865407 0 0 0
1483 9 30.627554209052825 19.03408048510154 0.12878302802478858 0 0 0
1566 4 28.758637673428094 21.148939922235627 -0.01019005099346919 0 0 0
1570 2 33.1343472018741 21.148939922235627 -0.010190050993468792 0 0 0
1571 9 30.627554209052825 23.263867541562547 0.1287830280247884 0 0 0
1568 12 28.47045025543891 21.14896014265667 2.858910223786539 0 0 0
1572 10 32.846159783884914 21.14896014265667 2.8589102237865403 0 0 0
1487 11 35.00326373749882 19.03408048510154 0.1287830280247879 0 0 0
1491 9 39.378973265944815 19.03408048510154 0.1287830280247877 0 0 0
1574 4 37.510056730320095 21.148939922235627 -0.010190050993468223 0 0 0
1575 11 35.00326373749882 23.263867541562547 0.1287830280247886 0 0 0
1579 9 39.378973265944815 23.263867541562547 0.12878302802478803 0 0 0
1576 12 37.2218693123309 21.14896014265667 2.858910223786541 0 0 0
1495 11 43.754682794390824 19.03408048510154 0.128783028024789 0 0 0
1578 2 41.88576625876609 21.148939922235627 -0.010190050993467972 0 0 0
1583 11 43.754682794390824 23.263867541562547 0.1287830280247888 0 0 0
1580 10 41.597578840776904 21.14896014265667 2.8589102237865407 0 0 0
1411 9 48.13039232283682 19.03408048510154 0.1287830280247875 -1 0 0
1582 4 46.2614757872121 21.148939922235627 -0.01019005099346998 0 0 0
1498 2 50.6371853156581 21.148939922235627 -0.010190050993469382 -1 0 0
1499 9 48.13039232283682 23.263867541562547 0.12878302802478736 -1 0 0
1584 12 45.973288369222914 21.14896014265667 2.8589102237865394 0 0 0
1500 10 50.34899789766891 21.14896014265667 2.8589102237865403 -1 0 0
1415 11 52.50610185128282 19.03408048510154 0.12878302802478891 -1 0 0
1502 4 55.0128948441041 21.148939922235627 -0.010190050993467963 -1 0 0
1503 11 52.50610185128282 23.263867541562547 0.12878302802478875 -1 0 0
1504 12 54.72470742611492 21.14896014265667 2.8589102237865407 -1 0 0
1419 9 56.88181137972882 19.03408048510154 0.12878302802478767 -1 0 0
1423 11 61.25752090817482 19.03408048510154 0.12878302802478755 -1 0 0
1506 2 59.3886043725501 21.148939922235627 -0.010190050993469769 -1 0 0
1507 9 56.88181137972882 23.263867541562547 0.12878302802478755 -1 0 0
1511 11 61.25752090817482 23.263867541562547 0.12878302802478747 -1 0 0
1508 10 59.10041695456091 21.14896014265667 2.8589102237865403 -1 0 0
1427 9 65.63323043662083 19.03408048510154 0.12878302802478572 -1 0 0
1510 4 63.7643139009961 21.148939922235627 -0.010190050993469115 -1 0 0
1515 9 65.63323043662083 23.263867541562547 0.12878302802478625 -1 0 0
1512 12 63.476126483006915 21.14896014265667 2.8589102237865407 -1 0 0
1516 10 67.85183601145293 21.14896014265667 2.8589102237865416 -1 0 0
1431 11 70.00893996506682 19.03408048510154 0.1287830280247901 -1 0 0
1514 2 68.14002342944211 21.148939922235627 -0.01019005099346829 -1 0 0
1518 4 72.5157329578881 21.148939922235627 -0.010190050993470898 -1 0 0
1519 11 70.00893996506683 23.263867541562547 0.1287830280247898 -1 0 0
1520 12 72.22754553989893 21.14896014265667 2.8589102237865394 -1 0 0
1435 9 74.38464949351282 19.03408048510154 0.12878302802478794 -1 0 0
1439 11 78.76035902195883 19.03408048510154 0.1287830280247866 -1 0 0
1522 2 76.8914424863341 21.148939922235627 -0.010190050993469212 -1 0 0
1523 9 74.38464949351282 23.263867541562547 0.12878302802478858 -1 0 0
1527 11 78.76035902195883 23.263867541562547 0.12878302802478703 -1 0 0
1524 10 76.60325506834494 21.14896014265667 2.8589102237865425 -1 0 0
1443 9 83.13606855040481 19.03408048510154 0.1287830280247901 -1 0 0
1526 4 81.26715201478011 21.148939922235627 -0.010190050993467882 -1 0 0
1531 9 83.13606855040483 23.263867541562547 0.12878302802478975 -1 0 0
1528 12 80.97896459679093 21.14896014265667 2.858910223786542 -1 0 0
1447 11 87.51177807885084 19.03408048510154 0.12878302802478958 -1 0 0
1530 2 85.6428615432261 21.148939922235627 -0.010190050993470541 -1 0 0
1534 4 90.0185710716721 21.148939922235627 -0.010190050993470097 -1 0 0
1535 11 87.51177807885084 23.263867541562547 0.12878302802478936 -1 0 0
1532 10 85.35467412523693 21.14896014265667 2.8589102237865394 -1 0 0
1536 12 89.73038365368294 21.14896014265667 2.8589102237865407 -1 0 0
1455 11 96.26319713574283 19.03408048510154 0.1287830280247901 -1 0 0
1543 11 96.26319713574283 23.263867541562547 0.12878302802479 -1 0 0
1451 9 91.88748760729682 19.03408048510154 0.12878302802478628 -1 0 0
1538 2 94.39428060011811 21.148939922235627 -0.010190050993467656 -1 0 0
1539 9 91.88748760729682 23.263867541562547 0.12878302802478653 -1 0 0
1540 10 94.10609318212893 21.14896014265667 2.8589102237865425 -1 0 0
1630 4 2.5043805027521016 25.37872697869662 -0.010190050993469537 0 0 0
1635 9 4.373297038376818 27.493654598023554 0.12878302802479077 0 0 0
1718 4 2.504380502752102 29.608514035157626 -0.010190050993473733 0 0 0
1632 12 2.216193084762908 25.378747199117672 2.858910223786539 0 0 0
1720 12 2.216193084762907 29.60853425557867 2.858910223786535 0 0 0
1634 2 6.880090031198104 25.37872697869662 -0.010190050993466223 0 0 0
1638 4 11.255799559644107 25.37872697869662 -0.01019005099346655 0 0 0
1639 11 8.749006566822821 27.493654598023554 0.1287830280247855 0 0 0
1722 2 6.880090031198104 29.608514035157626 -0.010190050993469979 0 0 0
1726 4 11.255799559644105 29.608514035157626 -0.010190050993469644 0 0 0
1636 10 6.591902613208907 25.378747199117672 2.858910223786542 0 0 0
1640 12 10.967612141654916 25.378747199117672 2.858910223786543 0 0 0
1724 10 6.591902613208907 29.608534255578675 2.858910223786538 0 0 0
1728 12 10.967612141654914 29.60853425557867 2.858910223786538 0 0 0
1642 2 15.631509088090102 25.37872697869662 -0.010190050993469518 0 0 0
1643 9 13.124716095268816 27.493654598023554 0.12878302802478953 0 0 0
1730 2 15.631509088090102 29.608514035157626 -0.010190050993472696 0 0 0
1644 10 15.343321670100917 25.378747199117672 2.85891022378654 0 0 0
1732 10 15.343321670100917 29.60853425557867 2.858910223786536 0 0 0
1646 4 20.0072186165361 25.37872697869662 -0.01019005099346407 0 0 0
1647 11 17.50042562371481 27.493654598023554 0.12878302802478486 0 0 0