LAMMPS data file via write_data, version 29 Aug 2024, timestep = 0, units = metal

2430 atoms
3 atom types

0 101.203025418954 xlo xhi
0 97.38265661406 ylo yhi
0 17.614936939098 zlo zhi

Masses

1 195.084
2 78.95999999999999
3 78.971

Atoms # atomic

1214 1 0 0 1.309808727897999 0 0 0
1220 1 3.748260200701999 0 1.309808727897999 0 0 0
1226 1 7.496520401403998 0 1.309808727897999 0 0 0
1232 1 11.244780602105998 0 1.309808727897999 0 0 0
1238 1 14.993040802808004 0 1.309808727897999 0 0 0
1244 1 18.741301003509996 0 1.309808727897999 0 0 0
1250 1 22.489561204212002 0 1.309808727897999 0 0 0
1256 1 26.237821404913994 0 1.309808727897999 0 0 0
1262 1 29.986081605616 0 1.309808727897999 0 0 0
1268 1 33.73434180631801 0 1.309808727897999 0 0 0
1274 1 37.48260200702 0 1.309808727897999 0 0 0
1280 1 41.230862207722005 0 1.309808727897999 0 0 0
1286 1 44.979122408424 0 1.309808727897999 0 0 0
1292 1 48.727382609126 0 1.309808727897999 0 0 0
1136 1 52.475642809828 0 1.309808727897999 -1 0 0
1142 1 56.22390301053 0 1.309808727897999 -1 0 0
1148 1 59.972163211232 0 1.309808727897999 -1 0 0
1154 1 63.720423411934 0 1.309808727897999 -1 0 0
1160 1 67.468683612636 0 1.309808727897999 -1 0 0
1166 1 71.21694381333799 0 1.309808727897999 -1 0 0
1172 1 74.96520401404 0 1.309808727897999 -1 0 0
1178 1 78.713464214742 0 1.309808727897999 -1 0 0
1184 1 82.461724415444 0 1.309808727897999 -1 0 0
1190 1 86.209984616146 0 1.309808727897999 -1 0 0
1196 1 89.95824481684801 0 1.309808727897999 -1 0 0
1202 1 93.70650501755 0 1.309808727897999 -1 0 0
1208 1 97.45476521825199 0 1.309808727897999 -1 0 0
1216 3 0 2.164059035868 0 0 0 0
1222 3 3.748260200701999 2.164059035868 0 0 0 0
1381 1 1.8741301003510031 3.2460885538020037 1.309808727897999 0 0 0
1228 3 7.496520401403998 2.164059035868 0 0 0 0
1387 1 5.622390301053002 3.2460885538020037 1.309808727897999 0 0 0
1234 3 11.244780602105998 2.164059035868 0 0 0 0
1393 1 9.370650501755001 3.2460885538020037 1.309808727897999 0 0 0
1399 1 13.118910702457 3.2460885538020037 1.309808727897999 0 0 0
1240 3 14.993040802808004 2.164059035868 0 0 0 0
1405 1 16.867170903159 3.2460885538020037 1.309808727897999 0 0 0
1246 3 18.741301003509996 2.164059035868 0 0 0 0
1411 1 20.615431103861006 3.2460885538020037 1.309808727897999 0 0 0
1252 3 22.489561204212002 2.164059035868 0 0 0 0
1417 1 24.363691304562998 3.2460885538020037 1.309808727897999 0 0 0
1258 3 26.237821404913994 2.164059035868 0 0 0 0
1264 3 29.986081605616 2.164059035868 0 0 0 0
1423 1 28.111951505265004 3.2460885538020037 1.309808727897999 0 0 0
1429 1 31.860211705966996 3.2460885538020037 1.309808727897999 0 0 0
1270 3 33.73434180631801 2.164059035868 0 0 0 0
1276 3 37.48260200702 2.164059035868 0 0 0 0
1435 1 35.608471906669 3.2460885538020037 1.309808727897999 0 0 0
1441 1 39.356732107370995 3.2460885538020037 1.309808727897999 0 0 0
1282 3 41.230862207722005 2.164059035868 0 0 0 0
1288 3 44.979122408424 2.164059035868 0 0 0 0
1447 1 43.104992308073 3.2460885538020037 1.309808727897999 0 0 0
1453 1 46.85325250877501 3.2460885538020037 1.309808727897999 0 0 0
1294 3 48.727382609126 2.164059035868 0 0 0 0
1297 1 50.601512709477 3.2460885538020037 1.309808727897999 -1 0 0
1138 3 52.475642809828 2.164059035868 0 -1 0 0
1303 1 54.349772910179 3.2460885538020037 1.309808727897999 -1 0 0
1144 3 56.22390301053 2.164059035868 0 -1 0 0
1309 1 58.098033110881 3.2460885538020037 1.309808727897999 -1 0 0
1150 3 59.972163211232 2.164059035868 0 -1 0 0
1315 1 61.846293311583 3.2460885538020037 1.309808727897999 -1 0 0
1156 3 63.720423411934 2.164059035868 0 -1 0 0
1162 3 67.468683612636 2.164059035868 0 -1 0 0
1321 1 65.594553512285 3.2460885538020037 1.309808727897999 -1 0 0
1327 1 69.342813712987 3.2460885538020037 1.309808727897999 -1 0 0
1168 3 71.21694381333799 2.164059035868 0 -1 0 0
1174 3 74.96520401404 2.164059035868 0 -1 0 0
1333 1 73.091073913689 3.2460885538020037 1.309808727897999 -1 0 0
1339 1 76.839334114391 3.2460885538020037 1.309808727897999 -1 0 0
1180 3 78.713464214742 2.164059035868 0 -1 0 0
1345 1 80.587594315093 3.2460885538020037 1.309808727897999 -1 0 0
1186 3 82.461724415444 2.164059035868 0 -1 0 0
1351 1 84.335854515795 3.2460885538020037 1.309808727897999 -1 0 0
1192 3 86.209984616146 2.164059035868 0 -1 0 0
1357 1 88.084114716497 3.2460885538020037 1.309808727897999 -1 0 0
1198 3 89.95824481684801 2.164059035868 0 -1 0 0
1363 1 91.83237491719899 3.2460885538020037 1.309808727897999 -1 0 0
1204 3 93.70650501755 2.164059035868 0 -1 0 0
1369 1 95.580635117901 3.2460885538020037 1.309808727897999 -1 0 0
1210 3 97.45476521825199 2.164059035868 0 -1 0 0
1375 1 99.328895318603 3.2460885538020037 1.309808727897999 -1 0 0
1383 3 1.8741301003510031 5.410147589670004 0 0 0 0
1389 3 5.622390301053002 5.410147589670004 0 0 0 0
1395 3 9.370650501755001 5.410147589670004 0 0 0 0
1401 3 13.118910702457 5.410147589670004 0 0 0 0
1407 3 16.867170903159 5.410147589670004 0 0 0 0
1413 3 20.615431103861006 5.410147589670004 0 0 0 0
1419 3 24.363691304562998 5.410147589670004 0 0 0 0
1425 3 28.111951505265004 5.410147589670004 0 0 0 0
1431 3 31.860211705966996 5.410147589670004 0 0 0 0
1437 3 35.608471906669 5.410147589670004 0 0 0 0
1443 3 39.356732107370995 5.410147589670004 0 0 0 0
1449 3 43.104992308073 5.410147589670004 0 0 0 0
1455 3 46.85325250877501 5.410147589670004 0 0 0 0
1299 3 50.601512709477 5.410147589670004 0 -1 0 0
1305 3 54.349772910179 5.410147589670004 0 -1 0 0
1311 3 58.098033110881 5.410147589670004 0 -1 0 0
1317 3 61.846293311583 5.410147589670004 0 -1 0 0
1323 3 65.594553512285 5.410147589670004 0 -1 0 0
1329 3 69.342813712987 5.410147589670004 0 -1 0 0
1335 3 73.091073913689 5.410147589670004 0 -1 0 0
1341 3 76.839334114391 5.410147589670004 0 -1 0 0
1347 3 80.587594315093 5.410147589670004 0 -1 0 0
1353 3 84.335854515795 5.410147589670004 0 -1 0 0
1359 3 88.084114716497 5.410147589670004 0 -1 0 0
1365 3 91.83237491719899 5.410147589670004 0 -1 0 0
1371 3 95.580635117901 5.410147589670004 0 -1 0 0
1377 3 99.328895318603 5.410147589670004 0 -1 0 0
1376 1 0 6.492177107604 1.309808727897999 0 0 0
1382 1 3.748260200701999 6.492177107604 1.309808727897999 0 0 0
1388 1 7.496520401403998 6.492177107604 1.309808727897999 0 0 0
1394 1 11.244780602105998 6.492177107604 1.309808727897999 0 0 0
1400 1 14.993040802808004 6.492177107604 1.309808727897999 0 0 0
1406 1 18.741301003509996 6.492177107604 1.309808727897999 0 0 0
1412 1 22.489561204212002 6.492177107604 1.309808727897999 0 0 0
1418 1 26.237821404913994 6.492177107604 1.309808727897999 0 0 0
1424 1 29.986081605616 6.492177107604 1.309808727897999 0 0 0
1430 1 33.73434180631801 6.492177107604 1.309808727897999 0 0 0
1436 1 37.48260200702 6.492177107604 1.309808727897999 0 0 0
1442 1 41.230862207722005 6.492177107604 1.309808727897999 0 0 0
1448 1 44.979122408424 6.492177107604 1.309808727897999 0 0 0
1454 1 48.727382609126 6.492177107604 1.309808727897999 0 0 0
1298 1 52.475642809828 6.492177107604 1.309808727897999 -1 0 0
1304 1 56.22390301053 6.492177107604 1.309808727897999 -1 0 0
1310 1 59.972163211232 6.492177107604 1.309808727897999 -1 0 0
1316 1 63.720423411934 6.492177107604 1.309808727897999 -1 0 0
1322 1 67.468683612636 6.492177107604 1.309808727897999 -1 0 0
1328 1 71.21694381333799 6.492177107604 1.309808727897999 -1 0 0
1334 1 74.96520401404 6.492177107604 1.309808727897999 -1 0 0
1340 1 78.713464214742 6.492177107604 1.309808727897999 -1 0 0
1346 1 82.461724415444 6.492177107604 1.309808727897999 -1 0 0
1352 1 86.209984616146 6.492177107604 1.309808727897999 -1 0 0
1358 1 89.95824481684801 6.492177107604 1.309808727897999 -1 0 0
1364 1 93.70650501755 6.492177107604 1.309808727897999 -1 0 0
1370 1 97.45476521825199 6.492177107604 1.309808727897999 -1 0 0
1378 3 0 8.656236143472 0 0 0 0
1384 3 3.748260200701999 8.656236143472 0 0 0 0
1390 3 7.496520401403998 8.656236143472 0 0 0 0
1396 3 11.244780602105998 8.656236143472 0 0 0 0
1402 3 14.993040802808004 8.656236143472 0 0 0 0
1408 3 18.741301003509996 8.656236143472 0 0 0 0
1414 3 22.489561204212002 8.656236143472 0 0 0 0
1420 3 26.237821404913994 8.656236143472 0 0 0 0
1426 3 29.986081605616 8.656236143472 0 0 0 0
1432 3 33.73434180631801 8.656236143472 0 0 0 0
1438 3 37.48260200702 8.656236143472 0 0 0 0
1444 3 41.230862207722005 8.656236143472 0 0 0 0
1450 3 44.979122408424 8.656236143472 0 0 0 0
1456 3 48.727382609126 8.656236143472 0 0 0 0
1300 3 52.475642809828 8.656236143472 0 -1 0 0
1306 3 56.22390301053 8.656236143472 0 -1 0 0
1312 3 59.972163211232 8.656236143472 0 -1 0 0
1318 3 63.720423411934 8.656236143472 0 -1 0 0
1324 3 67.468683612636 8.656236143472 0 -1 0 0
1330 3 71.21694381333799 8.656236143472 0 -1 0 0
1336 3 74.96520401404 8.656236143472 0 -1 0 0
1342 3 78.713464214742 8.656236143472 0 -1 0 0
1348 3 82.461724415444 8.656236143472 0 -1 0 0
1354 3 86.209984616146 8.656236143472 0 -1 0 0
1360 3 89.95824481684801 8.656236143472 0 -1 0 0
1366 3 93.70650501755 8.656236143472 0 -1 0 0
1372 3 97.45476521825199 8.656236143472 0 -1 0 0
1543 1 1.8741301003510031 9.738265661406004 1.309808727897999 0 0 0
1549 1 5.622390301053002 9.738265661406004 1.309808727897999 0 0 0
1555 1 9.370650501755001 9.738265661406004 1.309808727897999 0 0 0
1561 1 13.118910702457 9.738265661406004 1.309808727897999 0 0 0
1567 1 16.867170903159 9.738265661406004 1.309808727897999 0 0 0
1573 1 20.615431103861006 9.738265661406004 1.309808727897999 0 0 0
1579 1 24.363691304562998 9.738265661406004 1.309808727897999 0 0 0
1585 1 28.111951505265004 9.738265661406004 1.309808727897999 0 0 0
1591 1 31.860211705966996 9.738265661406004 1.309808727897999 0 0 0
1597 1 35.608471906669 9.738265661406004 1.309808727897999 0 0 0
1603 1 39.356732107370995 9.738265661406004 1.309808727897999 0 0 0
1609 1 43.104992308073 9.738265661406004 1.309808727897999 0 0 0
1615 1 46.85325250877501 9.738265661406004 1.309808727897999 0 0 0
1459 1 50.601512709477 9.738265661406004 1.309808727897999 -1 0 0
1465 1 54.349772910179 9.738265661406004 1.309808727897999 -1 0 0
1471 1 58.098033110881 9.738265661406004 1.309808727897999 -1 0 0
1477 1 61.846293311583 9.738265661406004 1.309808727897999 -1 0 0
1483 1 65.594553512285 9.738265661406004 1.309808727897999 -1 0 0
1489 1 69.342813712987 9.738265661406004 1.309808727897999 -1 0 0
1495 1 73.091073913689 9.738265661406004 1.309808727897999 -1 0 0
1501 1 76.839334114391 9.738265661406004 1.309808727897999 -1 0 0
1507 1 80.587594315093 9.738265661406004 1.309808727897999 -1 0 0
1513 1 84.335854515795 9.738265661406004 1.309808727897999 -1 0 0
1519 1 88.084114716497 9.738265661406004 1.309808727897999 -1 0 0
1525 1 91.83237491719899 9.738265661406004 1.309808727897999 -1 0 0
1531 1 95.580635117901 9.738265661406004 1.309808727897999 -1 0 0
1537 1 99.328895318603 9.738265661406004 1.309808727897999 -1 0 0
1538 1 0 12.984354215208 1.309808727897999 0 0 0
1545 3 1.8741301003510031 11.902324697274004 0 0 0 0
1544 1 3.748260200701999 12.984354215208 1.309808727897999 0 0 0
1551 3 5.622390301053002 11.902324697274004 0 0 0 0
1550 1 7.496520401403998 12.984354215208 1.309808727897999 0 0 0
1557 3 9.370650501755001 11.902324697274004 0 0 0 0
1556 1 11.244780602105998 12.984354215208 1.309808727897999 0 0 0
1563 3 13.118910702457 11.902324697274004 0 0 0 0
1569 3 16.867170903159 11.902324697274004 0 0 0 0
1562 1 14.993040802808004 12.984354215208 1.309808727897999 0 0 0
1568 1 18.741301003509996 12.984354215208 1.309808727897999 0 0 0
1575 3 20.615431103861006 11.902324697274004 0 0 0 0
1581 3 24.363691304562998 11.902324697274004 0 0 0 0
1574 1 22.489561204212002 12.984354215208 1.309808727897999 0 0 0
1580 1 26.237821404913994 12.984354215208 1.309808727897999 0 0 0
1587 3 28.111951505265004 11.902324697274004 0 0 0 0
1586 1 29.986081605616 12.984354215208 1.309808727897999 0 0 0
1593 3 31.860211705966996 11.902324697274004 0 0 0 0
1592 1 33.73434180631801 12.984354215208 1.309808727897999 0 0 0
1599 3 35.608471906669 11.902324697274004 0 0 0 0
1598 1 37.48260200702 12.984354215208 1.309808727897999 0 0 0
1605 3 39.356732107370995 11.902324697274004 0 0 0 0
1604 1 41.230862207722005 12.984354215208 1.309808727897999 0 0 0
1611 3 43.104992308073 11.902324697274004 0 0 0 0
1610 1 44.979122408424 12.984354215208 1.309808727897999 0 0 0
1617 3 46.85325250877501 11.902324697274004 0 0 0 0
1461 3 50.601512709477 11.902324697274004 0 -1 0 0
1616 1 48.727382609126 12.984354215208 1.309808727897999 0 0 0
1467 3 54.349772910179 11.902324697274004 0 -1 0 0
1460 1 52.475642809828 12.984354215208 1.309808727897999 -1 0 0
1466 1 56.22390301053 12.984354215208 1.309808727897999 -1 0 0
1473 3 58.098033110881 11.902324697274004 0 -1 0 0
1472 1 59.972163211232 12.984354215208 1.309808727897999 -1 0 0
1479 3 61.846293311583 11.902324697274004 0 -1 0 0
1478 1 63.720423411934 12.984354215208 1.309808727897999 -1 0 0
1485 3 65.594553512285 11.902324697274004 0 -1 0 0
1484 1 67.468683612636 12.984354215208 1.309808727897999 -1 0 0
1491 3 69.342813712987 11.902324697274004 0 -1 0 0
1490 1 71.21694381333799 12.984354215208 1.309808727897999 -1 0 0
1497 3 73.091073913689 11.902324697274004 0 -1 0 0
1496 1 74.96520401404 12.984354215208 1.309808727897999 -1 0 0
1503 3 76.839334114391 11.902324697274004 0 -1 0 0
1509 3 80.587594315093 11.902324697274004 0 -1 0 0
1502 1 78.713464214742 12.984354215208 1.309808727897999 -1 0 0
1508 1 82.461724415444 12.984354215208 1.309808727897999 -1 0 0
1515 3 84.335854515795 11.902324697274004 0 -1 0 0
1521 3 88.084114716497 11.902324697274004 0 -1 0 0
1514 1 86.209984616146 12.984354215208 1.309808727897999 -1 0 0
1527 3 91.83237491719899 11.902324697274004 0 -1 0 0
1520 1 89.95824481684801 12.984354215208 1.309808727897999 -1 0 0
1526 1 93.70650501755 12.984354215208 1.309808727897999 -1 0 0
1533 3 95.580635117901 11.902324697274004 0 -1 0 0
1532 1 97.45476521825199 12.984354215208 1.309808727897999 -1 0 0
1539 3 99.328895318603 11.902324697274004 0 -1 0 0
1540 3 0 15.148413251076 0 0 0 0
1546 3 3.748260200701999 15.148413251076 0 0 0 0
1705 1 1.8741301003510031 16.230442769010004 1.309808727897999 0 0 0
1552 3 7.496520401403998 15.148413251076 0 0 0 0
1711 1 5.622390301053002 16.230442769010004 1.309808727897999 0 0 0
1558 3 11.244780602105998 15.148413251076 0 0 0 0
1717 1 9.370650501755001 16.230442769010004 1.309808727897999 0 0 0
1723 1 13.118910702457 16.230442769010004 1.309808727897999 0 0 0
1564 3 14.993040802808004 15.148413251076 0 0 0 0
1729 1 16.867170903159 16.230442769010004 1.309808727897999 0 0 0
1570 3 18.741301003509996 15.148413251076 0 0 0 0
1735 1 20.615431103861006 16.230442769010004 1.309808727897999 0 0 0
1576 3 22.489561204212002 15.148413251076 0 0 0 0
1741 1 24.363691304562998 16.230442769010004 1.309808727897999 0 0 0
1582 3 26.237821404913994 15.148413251076 0 0 0 0
1588 3 29.986081605616 15.148413251076 0 0 0 0
1747 1 28.111951505265004 16.230442769010004 1.309808727897999 0 0 0
1753 1 31.860211705966996 16.230442769010004 1.309808727897999 0 0 0
1594 3 33.73434180631801 15.148413251076 0 0 0 0
1600 3 37.48260200702 15.148413251076 0 0 0 0
1759 1 35.608471906669 16.230442769010004 1.309808727897999 0 0 0
1765 1 39.356732107370995 16.230442769010004 1.309808727897999 0 0 0
1606 3 41.230862207722005 15.148413251076 0 0 0 0
1612 3 44.979122408424 15.148413251076 0 0 0 0
1771 1 43.104992308073 16.230442769010004 1.309808727897999 0 0 0
1777 1 46.85325250877501 16.230442769010004 1.309808727897999 0 0 0
1618 3 48.727382609126 15.148413251076 0 0 0 0
1621 1 50.601512709477 16.230442769010004 1.309808727897999 -1 0 0
1462 3 52.475642809828 15.148413251076 0 -1 0 0
1627 1 54.349772910179 16.230442769010004 1.309808727897999 -1 0 0
1468 3 56.22390301053 15.148413251076 0 -1 0 0
1633 1 58.098033110881 16.230442769010004 1.309808727897999 -1 0 0
1474 3 59.972163211232 15.148413251076 0 -1 0 0
1639 1 61.846293311583 16.230442769010004 1.309808727897999 -1 0 0
1480 3 63.720423411934 15.148413251076 0 -1 0 0
1486 3 67.468683612636 15.148413251076 0 -1 0 0
1645 1 65.594553512285 16.230442769010004 1.309808727897999 -1 0 0
1651 1 69.342813712987 16.230442769010004 1.309808727897999 -1 0 0
1492 3 71.21694381333799 15.148413251076 0 -1 0 0
1498 3 74.96520401404 15.148413251076 0 -1 0 0
1657 1 73.091073913689 16.230442769010004 1.309808727897999 -1 0 0
1663 1 76.839334114391 16.230442769010004 1.309808727897999 -1 0 0
1504 3 78.713464214742 15.148413251076 0 -1 0 0
1669 1 80.587594315093 16.230442769010004 1.309808727897999 -1 0 0
1510 3 82.461724415444 15.148413251076 0 -1 0 0
1675 1 84.335854515795 16.230442769010004 1.309808727897999 -1 0 0
1516 3 86.209984616146 15.148413251076 0 -1 0 0
1681 1 88.084114716497 16.230442769010004 1.309808727897999 -1 0 0
1522 3 89.95824481684801 15.148413251076 0 -1 0 0
1687 1 91.83237491719899 16.230442769010004 1.309808727897999 -1 0 0
1528 3 93.70650501755 15.148413251076 0 -1 0 0
1693 1 95.580635117901 16.230442769010004 1.309808727897999 -1 0 0
1534 3 97.45476521825199 15.148413251076 0 -1 0 0
1699 1 99.328895318603 16.230442769010004 1.309808727897999 -1 0 0
1707 3 1.8741301003510031 18.394501804877997 0 0 0 0
1713 3 5.622390301053002 18.394501804877997 0 0 0 0
1719 3 9.370650501755001 18.394501804877997 0 0 0 0
1725 3 13.118910702457 18.394501804877997 0 0 0 0
1731 3 16.867170903159 18.394501804877997 0 0 0 0
1737 3 20.615431103861006 18.394501804877997 0 0 0 0
1743 3 24.363691304562998 18.394501804877997 0 0 0 0
1749 3 28.111951505265004 18.394501804877997 0 0 0 0
1755 3 31.860211705966996 18.394501804877997 0 0 0 0
1761 3 35.608471906669 18.394501804877997 0 0 0 0
1767 3 39.356732107370995 18.394501804877997 0 0 0 0
1773 3 43.104992308073 18.394501804877997 0 0 0 0
1779 3 46.85325250877501 18.394501804877997 0 0 0 0
1623 3 50.601512709477 18.394501804877997 0 -1 0 0
1629 3 54.349772910179 18.394501804877997 0 -1 0 0
1635 3 58.098033110881 18.394501804877997 0 -1 0 0
1641 3 61.846293311583 18.394501804877997 0 -1 0 0
1647 3 65.594553512285 18.394501804877997 0 -1 0 0
1653 3 69.342813712987 18.394501804877997 0 -1 0 0
1659 3 73.091073913689 18.394501804877997 0 -1 0 0
1665 3 76.839334114391 18.394501804877997 0 -1 0 0
1671 3 80.587594315093 18.394501804877997 0 -1 0 0
1677 3 84.335854515795 18.394501804877997 0 -1 0 0
1683 3 88.084114716497 18.394501804877997 0 -1 0 0
1689 3 91.83237491719899 18.394501804877997 0 -1 0 0
1695 3 95.580635117901 18.394501804877997 0 -1 0 0
1701 3 99.328895318603 18.394501804877997 0 -1 0 0
1700 1 0 19.476531322812 1.309808727897999 0 0 0
1706 1 3.748260200701999 19.476531322812 1.309808727897999 0 0 0
1712 1 7.496520401403998 19.476531322812 1.309808727897999 0 0 0
1718 1 11.244780602105998 19.476531322812 1.309808727897999 0 0 0
1724 1 14.993040802808004 19.476531322812 1.309808727897999 0 0 0
1730 1 18.741301003509996 19.476531322812 1.309808727897999 0 0 0
1736 1 22.489561204212002 19.476531322812 1.309808727897999 0 0 0
1742 1 26.237821404913994 19.476531322812 1.309808727897999 0 0 0
1748 1 29.986081605616 19.476531322812 1.309808727897999 0 0 0
1754 1 33.73434180631801 19.476531322812 1.309808727897999 0 0 0
1760 1 37.48260200702 19.476531322812 1.309808727897999 0 0 0
1766 1 41.230862207722005 19.476531322812 1.309808727897999 0 0 0
1772 1 44.979122408424 19.476531322812 1.309808727897999 0 0 0
1778 1 48.727382609126 19.476531322812 1.309808727897999 0 0 0
1622 1 52.475642809828 19.476531322812 1.309808727897999 -1 0 0
1628 1 56.22390301053 19.476531322812 1.309808727897999 -1 0 0
1634 1 59.972163211232 19.476531322812 1.309808727897999 -1 0 0
1640 1 63.720423411934 19.476531322812 1.309808727897999 -1 0 0
1646 1 67.468683612636 19.476531322812 1.309808727897999 -1 0 0
1652 1 71.21694381333799 19.476531322812 1.309808727897999 -1 0 0
1658 1 74.96520401404 19.476531322812 1.309808727897999 -1 0 0
1664 1 78.713464214742 19.476531322812 1.309808727897999 -1 0 0
1670 1 82.461724415444 19.476531322812 1.309808727897999 -1 0 0
1676 1 86.209984616146 19.476531322812 1.309808727897999 -1 0 0
1682 1 89.95824481684801 19.476531322812 1.309808727897999 -1 0 0
1688 1 93.70650501755 19.476531322812 1.309808727897999 -1 0 0
1694 1 97.45476521825199 19.476531322812 1.309808727897999 -1 0 0
1702 3 0 21.640590358680008 0 0 0 0
1708 3 3.748260200701999 21.640590358680008 0 0 0 0
1714 3 7.496520401403998 21.640590358680008 0 0 0 0
1720 3 11.244780602105998 21.640590358680008 0 0 0 0
1726 3 14.993040802808004 21.640590358680008 0 0 0 0
1732 3 18.741301003509996 21.640590358680008 0 0 0 0
1738 3 22.489561204212002 21.640590358680008 0 0 0 0
1744 3 26.237821404913994 21.640590358680008 0 0 0 0
1750 3 29.986081605616 21.640590358680008 0 0 0 0
1756 3 33.73434180631801 21.640590358680008 0 0 0 0
1762 3 37.48260200702 21.640590358680008 0 0 0 0
1768 3 41.230862207722005 21.640590358680008 0 0 0 0
1774 3 44.979122408424 21.640590358680008 0 0 0 0
1780 3 48.727382609126 21.640590358680008 0 0 0 0
1624 3 52.475642809828 21.640590358680008 0 -1 0 0
1630 3 56.22390301053 21.640590358680008 0 -1 0 0
1636 3 59.972163211232 21.640590358680008 0 -1 0 0
1642 3 63.720423411934 21.640590358680008 0 -1 0 0
1648 3 67.468683612636 21.640590358680008 0 -1 0 0
1654 3 71.21694381333799 21.640590358680008 0 -1 0 0
1660 3 74.96520401404 21.640590358680008 0 -1 0 0
1666 3 78.713464214742 21.640590358680008 0 -1 0 0
1672 3 82.461724415444 21.640590358680008 0 -1 0 0
1678 3 86.209984616146 21.640590358680008 0 -1 0 0
1684 3 89.95824481684801 21.640590358680008 0 -1 0 0
1690 3 93.70650501755 21.640590358680008 0 -1 0 0
1696 3 97.45476521825199 21.640590358680008 0 -1 0 0
1867 1 1.8741301003510031 22.722619876613997 1.309808727897999 0 0 0
1873 1 5.622390301053002 22.722619876613997 1.309808727897999 0 0 0
1879 1 9.370650501755001 22.722619876613997 1.309808727897999 0 0 0
1885 1 13.118910702457 22.722619876613997 1.309808727897999 0 0 0
1891 1 16.867170903159 22.722619876613997 1.309808727897999 0 0 0
1897 1 20.615431103861006 22.722619876613997 1.309808727897999 0 0 0
1903 1 24.363691304562998 22.722619876613997 1.309808727897999 0 0 0
1909 1 28.111951505265004 22.722619876613997 1.309808727897999 0 0 0
1915 1 31.860211705966996 22.722619876613997 1.309808727897999 0 0 0
1921 1 35.608471906669 22.722619876613997 1.309808727897999 0 0 0
1927 1 39.356732107370995 22.722619876613997 1.309808727897999 0 0 0
1933 1 43.104992308073 22.722619876613997 1.309808727897999 0 0 0
1939 1 46.85325250877501 22.722619876613997 1.309808727897999 0 0 0
1783 1 50.601512709477 22.722619876613997 1.309808727897999 -1 0 0
1789 1 54.349772910179 22.722619876613997 1.309808727897999 -1 0 0
1795 1 58.098033110881 22.722619876613997 1.309808727897999 -1 0 0
1801 1 61.846293311583 22.722619876613997 1.309808727897999 -1 0 0
1807 1 65.594553512285 22.722619876613997 1.309808727897999 -1 0 0
1813 1 69.342813712987 22.722619876613997 1.309808727897999 -1 0 0
1819 1 73.091073913689 22.722619876613997 1.309808727897999 -1 0 0
1825 1 76.839334114391 22.722619876613997 1.309808727897999 -1 0 0
1831 1 80.587594315093 22.722619876613997 1.309808727897999 -1 0 0
1837 1 84.335854515795 22.722619876613997 1.309808727897999 -1 0 0
1843 1 88.084114716497 22.722619876613997 1.309808727897999 -1 0 0
1849 1 91.83237491719899 22.722619876613997 1.309808727897999 -1 0 0
1855 1 95.580635117901 22.722619876613997 1.309808727897999 -1 0 0
1861 1 99.328895318603 22.722619876613997 1.309808727897999 -1 0 0
1862 1 0 25.968708430416008 1.309808727897999 0 0 0
1869 3 1.8741301003510031 24.886678912482004 0 0 0 0
1868 1 3.748260200701999 25.968708430416008 1.309808727897999 0 0 0
1875 3 5.622390301053002 24.886678912482004 0 0 0 0
1874 1 7.496520401403998 25.968708430416008 1.309808727897999 0 0 0
1881 3 9.370650501755001 24.886678912482004 0 0 0 0
1880 1 11.244780602105998 25.968708430416008 1.309808727897999 0 0 0
1887 3 13.118910702457 24.886678912482004 0 0 0 0
1893 3 16.867170903159 24.886678912482004 0 0 0 0
1886 1 14.993040802808004 25.968708430416008 1.309808727897999 0 0 0
1892 1 18.741301003509996 25.968708430416008 1.309808727897999 0 0 0
1899 3 20.615431103861006 24.886678912482004 0 0 0 0
1905 3 24.363691304562998 24.886678912482004 0 0 0 0
1898 1 22.489561204212002 25.968708430416008 1.309808727897999 0 0 0
1904 1 26.237821404913994 25.968708430416008 1.309808727897999 0 0 0
1911 3 28.111951505265004 24.886678912482004 0 0 0 0
1910 1 29.986081605616 25.968708430416008 1.309808727897999 0 0 0
1917 3 31.860211705966996 24.886678912482004 0 0 0 0
1916 1 33.73434180631801 25.968708430416008 1.309808727897999 0 0 0
1923 3 35.608471906669 24.886678912482004 0 0 0 0
1922 1 37.48260200702 25.968708430416008 1.309808727897999 0 0 0
1929 3 39.356732107370995 24.886678912482004 0 0 0 0
1928 1 41.230862207722005 25.968708430416008 1.309808727897999 0 0 0
1935 3 43.104992308073 24.886678912482004 0 0 0 0
1934 1 44.979122408424 25.968708430416008 1.309808727897999 0 0 0
1941 3 46.85325250877501 24.886678912482004 0 0 0 0
1785 3 50.601512709477 24.886678912482004 0 -1 0 0
1940 1 48.727382609126 25.968708430416008 1.309808727897999 0 0 0
1791 3 54.349772910179 24.886678912482004 0 -1 0 0
1784 1 52.475642809828 25.968708430416008 1.309808727897999 -1 0 0
1790 1 56.22390301053 25.968708430416008 1.309808727897999 -1 0 0
1797 3 58.098033110881 24.886678912482004 0 -1 0 0
1796 1 59.972163211232 25.968708430416008 1.309808727897999 -1 0 0
1803 3 61.846293311583 24.886678912482004 0 -1 0 0
1802 1 63.720423411934 25.968708430416008 1.309808727897999 -1 0 0
1809 3 65.594553512285 24.886678912482004 0 -1 0 0
1808 1 67.468683612636 25.968708430416008 1.309808727897999 -1 0 0
1815 3 69.342813712987 24.886678912482004 0 -1 0 0
1814 1 71.21694381333799 25.968708430416008 1.309808727897999 -1 0 0
1821 3 73.091073913689 24.886678912482004 0 -1 0 0
1820 1 74.96520401404 25.968708430416008 1.309808727897999 -1 0 0
1827 3 76.839334114391 24.886678912482004 0 -1 0 0
1833 3 80.587594315093 24.886678912482004 0 -1 0 0
1826 1 78.713464214742 25.968708430416008 1.309808727897999 -1 0 0
1832 1 82.461724415444 25.968708430416008 1.309808727897999 -1 0 0
1839 3 84.335854515795 24.886678912482004 0 -1 0 0
1845 3 88.084114716497 24.886678912482004 0 -1 0 0
1838 1 86.209984616146 25.968708430416008 1.309808727897999 -1 0 0
1851 3 91.83237491719899 24.886678912482004 0 -1 0 0
1844 1 89.95824481684801 25.968708430416008 1.309808727897999 -1 0 0
1850 1 93.70650501755 25.968708430416008 1.309808727897999 -1 0 0
1857 3 95.580635117901 24.886678912482004 0 -1 0 0
1856 1 97.45476521825199 25.968708430416008 1.309808727897999 -1 0 0
1863 3 99.328895318603 24.886678912482004 0 -1 0 0
1864 3 0 28.132767466284 0 0 0 0
1870 3 3.748260200701999 28.132767466284 0 0 0 0
2029 1 1.8741301003510031 29.214796984218005 1.309808727897999 0 0 0
1876 3 7.496520401403998 28.132767466284 0 0 0 0
2035 1 5.622390301053002 29.214796984218005 1.309808727897999 0 0 0
1882 3 11.244780602105998 28.132767466284 0 0 0 0
2041 1 9.370650501755001 29.214796984218005 1.309808727897999 0 0 0
2047 1 13.118910702457 29.214796984218005 1.309808727897999 0 0 0
1888 3 14.993040802808004 28.132767466284 0 0 0 0
2053 1 16.867170903159 29.214796984218005 1.309808727897999 0 0 0
1894 3 18.741301003509996 28.132767466284 0 0 0 0
2059 1 20.615431103861006 29.214796984218005 1.309808727897999 0 0 0
1900 3 22.489561204212002 28.132767466284 0 0 0 0
2065 1 24.363691304562998 29.214796984218005 1.309808727897999 0 0 0
1906 3 26.237821404913994 28.132767466284 0 0 0 0
1912 3 29.986081605616 28.132767466284 0 0 0 0
2071 1 28.111951505265004 29.214796984218005 1.309808727897999 0 0 0
2077 1 31.860211705966996 29.214796984218005 1.309808727897999 0 0 0
1918 3 33.73434180631801 28.132767466284 0 0 0 0
1924 3 37.48260200702 28.132767466284 0 0 0 0
2083 1 35.608471906669 29.214796984218005 1.309808727897999 0 0 0
2089 1 39.356732107370995 29.214796984218005 1.309808727897999 0 0 0
1930 3 41.230862207722005 28.132767466284 0 0 0 0
1936 3 44.979122408424 28.132767466284 0 0 0 0
2095 1 43.104992308073 29.214796984218005 1.309808727897999 0 0 0
2101 1 46.85325250877501 29.214796984218005 1.309808727897999 0 0 0
1942 3 48.727382609126 28.132767466284 0 0 0 0
1945 1 50.601512709477 29.214796984218005 1.309808727897999 -1 0 0
1786 3 52.475642809828 28.132767466284 0 -1 0 0
1951 1 54.349772910179 29.214796984218005 1.309808727897999 -1 0 0
1792 3 56.22390301053 28.132767466284 0 -1 0 0
1957 1 58.098033110881 29.214796984218005 1.309808727897999 -1 0 0
1798 3 59.972163211232 28.132767466284 0 -1 0 0
1963 1 61.846293311583 29.214796984218005 1.309808727897999 -1 0 0
1804 3 63.720423411934 28.132767466284 0 -1 0 0
1810 3 67.468683612636 28.132767466284 0 -1 0 0
1969 1 65.594553512285 29.214796984218005 1.309808727897999 -1 0 0
1975 1 69.342813712987 29.214796984218005 1.309808727897999 -1 0 0
1816 3 71.21694381333799 28.132767466284 0 -1 0 0
1822 3 74.96520401404 28.132767466284 0 -1 0 0
1981 1 73.091073913689 29.214796984218005 1.309808727897999 -1 0 0
1987 1 76.839334114391 29.214796984218005 1.309808727897999 -1 0 0
1828 3 78.713464214742 28.132767466284 0 -1 0 0
1993 1 80.587594315093 29.214796984218005 1.309808727897999 -1 0 0
1834 3 82.461724415444 28.132767466284 0 -1 0 0
1999 1 84.335854515795 29.214796984218005 1.309808727897999 -1 0 0
1840 3 86.209984616146 28.132767466284 0 -1 0 0
2005 1 88.084114716497 29.214796984218005 1.309808727897999 -1 0 0
1846 3 89.95824481684801 28.132767466284 0 -1 0 0
2011 1 91.83237491719899 29.214796984218005 1.309808727897999 -1 0 0
1852 3 93.70650501755 28.132767466284 0 -1 0 0
2017 1 95.580635117901 29.214796984218005 1.309808727897999 -1 0 0
1858 3 97.45476521825199 28.132767466284 0 -1 0 0
2023 1 99.328895318603 29.214796984218005 1.309808727897999 -1 0 0
2031 3 1.8741301003510031 31.378856020085998 0 0 0 0
2037 3 5.622390301053002 31.378856020085998 0 0 0 0
2043 3 9.370650501755001 31.378856020085998 0 0 0 0
2049 3 13.118910702457 31.378856020085998 0 0 0 0
2055 3 16.867170903159 31.378856020085998 0 0 0 0
2061 3 20.615431103861006 31.378856020085998 0 0 0 0