LAMMPS data file via write_data, version 29 Aug 2024, timestep = 2, units = metal

7290 atoms
9 atom types

0 101.203025418954 xlo xhi
0 97.38265661406 ylo yhi
-50 50 zlo zhi

Masses

1 195.084
2 195.084
3 195.084
4 78.971
5 78.971
6 78.971
7 78.971
8 78.971
9 78.971

Atoms # atomic

1222 5 3.7482496916346513 2.164060604626856 0.07785486825430021 0 0 0
1381 1 1.873374785546827 3.2453100349546946 1.307252567627502 0 0 0
1387 1 5.621634986248826 3.2453100349546946 1.307252567627502 0 0 0
1383 5 1.8741195912836521 5.410149158428856 0.07785486825430055 0 0 0
1389 5 5.622379791985652 5.410149158428856 0.07785486825430057 0 0 0
1224 4 1.8724158096438381 1.0802548567047607 2.5361505282769694 0 0 0
1230 4 5.6206760103458375 1.0802548567047605 2.536150528276969 0 0 0
1385 4 3.746545909994837 4.32634341050676 2.5361505282769707 0 0 0
1228 5 7.49650989233665 2.164060604626856 0.07785486825430002 0 0 0
1234 5 11.244770093038651 2.164060604626856 0.0778548682543005 0 0 0
1393 1 9.369895186950826 3.2453100349546946 1.307252567627502 0 0 0
1395 5 9.37063999268765 5.410149158428856 0.07785486825430057 0 0 0
1236 4 9.368936211047837 1.0802548567047605 2.536150528276969 0 0 0
1391 4 7.494806110696836 4.32634341050676 2.5361505282769707 0 0 0
1397 4 11.243066311398836 4.32634341050676 2.5361505282769703 0 0 0
1399 1 13.118155387652827 3.2453100349546946 1.307252567627502 0 0 0
1240 5 14.99303029374065 2.164060604626856 0.0778548682543003 0 0 0
1405 1 16.866415588354826 3.2453100349546946 1.307252567627502 0 0 0
1401 5 13.118900193389651 5.410149158428857 0.07785486825430112 0 0 0
1407 5 16.867160394091652 5.410149158428856 0.07785486825430032 0 0 0
1242 4 13.117196411749838 1.08025485670476 2.5361505282769685 0 0 0
1248 4 16.865456612451837 1.080254856704761 2.5361505282769694 0 0 0
1403 4 14.991326512100837 4.32634341050676 2.5361505282769703 0 0 0
1246 5 18.74129049444265 2.1640606046268562 0.07785486825430069 0 0 0
1411 1 20.61467578905683 3.2453100349546946 1.3072525676275017 0 0 0
1252 5 22.48955069514465 2.1640606046268553 0.07785486825429934 0 0 0
1413 5 20.61542059479365 5.410149158428857 0.0778548682543013 0 0 0
1254 4 20.613716813153836 1.08025485670476 2.536150528276968 0 0 0
1409 4 18.73958671280284 4.326343410506759 2.53615052827697 0 0 0
1415 4 22.48784691350484 4.326343410506761 2.536150528276971 0 0 0
1417 1 24.362935989758824 3.2453100349546946 1.3072525676275017 0 0 0
1258 5 26.23781089584665 2.1640606046268562 0.07785486825430074 0 0 0
1423 1 28.111196190460827 3.2453100349546946 1.307252567627502 0 0 0
1419 5 24.36368079549565 5.4101491584288555 0.07785486825429969 0 0 0
1425 5 28.11194099619765 5.410149158428857 0.07785486825430127 0 0 0
1260 4 24.361977013855835 1.0802548567047614 2.5361505282769703 0 0 0
1266 4 28.110237214557834 1.08025485670476 2.5361505282769685 0 0 0
1421 4 26.23610711420684 4.326343410506759 2.53615052827697 0 0 0
1264 5 29.98607109654865 2.164060604626856 0.07785486825430013 0 0 0
1429 1 31.85945639116283 3.2453100349546946 1.307252567627502 0 0 0
1270 5 33.734331297250655 2.1640606046268562 0.0778548682543007 0 0 0
1435 1 35.60771659186483 3.2453100349546946 1.307252567627502 0 0 0
1431 5 31.860201196899652 5.410149158428857 0.07785486825430087 0 0 0
1437 5 35.60846139760165 5.410149158428856 0.0778548682543001 0 0 0
1272 4 31.858497415259837 1.0802548567047603 2.536150528276969 0 0 0
1278 4 35.60675761596183 1.080254856704761 2.53615052827697 0 0 0
1427 4 29.984367314908837 4.32634341050676 2.5361505282769707 0 0 0
1433 4 33.73262751561084 4.326343410506759 2.53615052827697 0 0 0
1276 5 37.482591497952654 2.164060604626855 0.07785486825429896 0 0 0
1441 1 39.35597679256683 3.2453100349546946 1.307252567627502 0 0 0
1282 5 41.230851698654654 2.1640606046268562 0.07785486825430106 0 0 0
1443 5 39.35672159830365 5.410149158428857 0.07785486825430096 0 0 0
1284 4 39.35501781666383 1.0802548567047603 2.536150528276969 0 0 0
1439 4 37.480887716312836 4.326343410506761 2.5361505282769716 0 0 0
1445 4 41.229147917014835 4.326343410506759 2.5361505282769694 0 0 0
1288 5 44.97911189935665 2.164060604626856 0.07785486825430032 0 0 0
1447 1 43.10423699326883 3.2453100349546946 1.3072525676275017 0 0 0
1453 1 46.85249719397083 3.2453100349546937 1.307252567627501 0 0 0
1449 5 43.10498179900565 5.410149158428856 0.0778548682543006 0 0 0
1455 5 46.853241999707656 5.410149158428857 0.07785486825430162 0 0 0
1290 4 43.10327801736584 1.0802548567047607 2.5361505282769694 0 0 0
1296 4 46.85153821806784 1.0802548567047598 2.536150528276968 0 0 0
1451 4 44.977408117716834 4.326343410506759 2.5361505282769703 0 0 0
1294 5 48.72737210005865 2.164060604626856 0.07785486825430034 0 0 0
1297 1 50.600757394672826 3.2453100349546946 1.3072525676275029 -1 0 0
1138 5 52.47563230076065 2.164060604626856 0.0778548682543002 -1 0 0
1299 5 50.601502200409655 5.4101491584288555 0.07785486825429987 -1 0 0
1140 4 50.599798418769836 1.080254856704761 2.53615052827697 -1 0 0
1457 4 48.72566831841884 4.32634341050676 2.5361505282769703 0 0 0
1301 4 52.47392851912084 4.32634341050676 2.5361505282769707 -1 0 0
1303 1 54.349017595374825 3.2453100349546946 1.307252567627502 -1 0 0
1144 5 56.22389250146265 2.164060604626856 0.07785486825430014 -1 0 0
1309 1 58.097277796076824 3.2453100349546946 1.307252567627502 -1 0 0
1305 5 54.34976240111165 5.410149158428856 0.07785486825430057 -1 0 0
1311 5 58.098022601813646 5.410149158428856 0.07785486825430057 -1 0 0
1146 4 54.348058619471836 1.0802548567047605 2.5361505282769694 -1 0 0
1152 4 58.096318820173835 1.0802548567047605 2.5361505282769694 -1 0 0
1307 4 56.22218871982284 4.32634341050676 2.5361505282769707 -1 0 0
1150 5 59.97215270216465 2.164060604626856 0.07785486825430009 -1 0 0
1315 1 61.84553799677883 3.2453100349546946 1.307252567627502 -1 0 0
1156 5 63.720412902866656 2.1640606046268567 0.07785486825430121 -1 0 0
1317 5 61.84628280251565 5.410149158428857 0.07785486825430112 -1 0 0
1158 4 61.844579020875834 1.08025485670476 2.536150528276969 -1 0 0
1313 4 59.97044892052484 4.32634341050676 2.5361505282769707 -1 0 0
1319 4 63.71870912122684 4.326343410506759 2.5361505282769694 -1 0 0
1162 5 67.46867310356865 2.1640606046268545 0.07785486825429845 -1 0 0
1321 1 65.59379819748082 3.245310034954695 1.3072525676275026 -1 0 0
1327 1 69.34205839818283 3.2453100349546937 1.3072525676275006 -1 0 0
1168 5 71.21693330427065 2.1640606046268562 0.07785486825430035 -1 0 0
1323 5 65.59454300321765 5.410149158428856 0.07785486825430062 -1 0 0
1329 5 69.34280320391964 5.410149158428856 0.07785486825430007 -1 0 0
1164 4 65.59283922157785 1.0802548567047605 2.5361505282769694 -1 0 0
1170 4 69.34109942227984 1.0802548567047612 2.5361505282769694 -1 0 0
1325 4 67.46696932192884 4.326343410506761 2.536150528276972 -1 0 0
1331 4 71.21522952263084 4.32634341050676 2.5361505282769703 -1 0 0
1174 5 74.96519350497265 2.1640606046268562 0.07785486825430082 -1 0 0
1333 1 73.09031859888482 3.2453100349546955 1.3072525676275035 -1 0 0
1339 1 76.83857879958683 3.2453100349546937 1.3072525676275006 -1 0 0
1335 5 73.09106340462165 5.410149158428857 0.07785486825430088 -1 0 0
1341 5 76.83932360532366 5.410149158428857 0.07785486825430088 -1 0 0
1176 4 73.08935962298183 1.0802548567047603 2.536150528276969 -1 0 0
1182 4 76.83761982368384 1.0802548567047605 2.536150528276969 -1 0 0
1337 4 74.96348972333284 4.32634341050676 2.53615052827697 -1 0 0
1180 5 78.71345370567465 2.164060604626856 0.07785486825430032 -1 0 0
1345 1 80.58683900028882 3.2453100349546946 1.307252567627502 -1 0 0
1186 5 82.46171390637666 2.1640606046268562 0.07785486825430032 -1 0 0
1347 5 80.58758380602565 5.410149158428857 0.07785486825430124 -1 0 0
1188 4 80.58588002438584 1.0802548567047603 2.5361505282769685 -1 0 0
1343 4 78.71174992403483 4.326343410506759 2.5361505282769703 -1 0 0
1349 4 82.46001012473684 4.326343410506759 2.5361505282769703 -1 0 0
1351 1 84.33509920099083 3.245310034954695 1.3072525676275033 -1 0 0
1192 5 86.20997410707865 2.1640606046268562 0.07785486825430085 -1 0 0
1357 1 88.08335940169283 3.2453100349546937 1.3072525676275004 -1 0 0
1353 5 84.33584400672765 5.410149158428857 0.07785486825430088 -1 0 0
1359 5 88.08410420742965 5.410149158428856 0.07785486825429964 -1 0 0
1194 4 84.33414022508784 1.0802548567047603 2.536150528276969 -1 0 0
1200 4 88.08240042578984 1.0802548567047612 2.5361505282769703 -1 0 0
1355 4 86.20827032543885 4.326343410506759 2.5361505282769694 -1 0 0
1198 5 89.95823430778066 2.1640606046268545 0.07785486825429827 -1 0 0
1363 1 91.83161960239482 3.2453100349546946 1.3072525676275017 -1 0 0
1204 5 93.70649450848265 2.1640606046268562 0.07785486825430071 -1 0 0
1365 5 91.83236440813164 5.410149158428856 0.07785486825430027 -1 0 0
1206 4 91.83066062649183 1.080254856704761 2.5361505282769694 -1 0 0
1361 4 89.95653052614084 4.326343410506761 2.536150528276972 -1 0 0
1367 4 93.70479072684283 4.32634341050676 2.53615052827697 -1 0 0
1216 5 101.20301490988665 2.1640606046268567 0.07785486825430132 -1 0 0
1379 4 101.20131112824683 4.326343410506759 2.53615052827697 -1 0 0
1369 1 95.57987980309682 3.2453100349546946 1.3072525676275017 -1 0 0
1210 5 97.45475470918466 2.164060604626856 0.07785486825430021 -1 0 0
1375 1 99.32814000379882 3.245310034954694 1.307252567627502 -1 0 0
1371 5 95.58062460883365 5.410149158428857 0.07785486825430128 -1 0 0
1377 5 99.32888480953565 5.410149158428857 0.07785486825430081 -1 0 0
1212 4 95.57892082719384 1.0802548567047603 2.5361505282769685 -1 0 0
1218 4 99.32718102789583 1.0802548567047598 2.5361505282769685 -1 0 0
1373 4 97.45305092754484 4.326343410506759 2.5361505282769703 -1 0 0
1382 1 3.747504885897828 6.491398588756694 1.3072525676275029 0 0 0
1384 5 3.7482496916346513 8.656237712230856 0.07785486825430094 0 0 0
1543 1 1.8733747855468268 9.737487142558695 1.307252567627502 0 0 0
1549 1 5.621634986248826 9.737487142558695 1.307252567627502 0 0 0
1386 4 1.8724158096438381 7.572431964308762 2.5361505282769703 0 0 0
1392 4 5.6206760103458375 7.572431964308761 2.53615052827697 0 0 0
1547 4 3.746545909994837 10.818520518110759 2.5361505282769707 0 0 0
1388 1 7.495765086599827 6.491398588756694 1.307252567627503 0 0 0
1394 1 11.244025287301827 6.491398588756694 1.3072525676275033 0 0 0
1390 5 7.49650989233665 8.656237712230856 0.07785486825430082 0 0 0
1396 5 11.244770093038651 8.656237712230855 0.0778548682543014 0 0 0
1555 1 9.369895186950826 9.737487142558695 1.307252567627502 0 0 0
1398 4 9.368936211047837 7.572431964308761 2.53615052827697 0 0 0
1553 4 7.494806110696836 10.818520518110759 2.5361505282769707 0 0 0
1559 4 11.243066311398836 10.818520518110759 2.5361505282769703 0 0 0
1400 1 14.992285488003827 6.491398588756694 1.3072525676275033 0 0 0
1402 5 14.99303029374065 8.656237712230856 0.0778548682543011 0 0 0
1561 1 13.118155387652827 9.737487142558695 1.3072525676275017 0 0 0
1567 1 16.866415588354826 9.737487142558695 1.307252567627502 0 0 0
1404 4 13.117196411749838 7.572431964308761 2.5361505282769694 0 0 0
1410 4 16.865456612451837 7.572431964308762 2.5361505282769703 0 0 0
1565 4 14.991326512100837 10.818520518110759 2.5361505282769703 0 0 0
1406 1 18.740545688705826 6.491398588756693 1.3072525676275029 0 0 0
1412 1 22.48880588940783 6.491398588756694 1.307252567627503 0 0 0
1408 5 18.74129049444265 8.656237712230856 0.07785486825430168 0 0 0
1414 5 22.48955069514465 8.656237712230855 0.07785486825430021 0 0 0
1573 1 20.61467578905683 9.737487142558695 1.307252567627502 0 0 0
1416 4 20.613716813153836 7.572431964308761 2.5361505282769694 0 0 0
1571 4 18.73958671280284 10.818520518110759 2.53615052827697 0 0 0
1577 4 22.48784691350484 10.81852051811076 2.536150528276971 0 0 0
1418 1 26.237066090109828 6.491398588756694 1.3072525676275033 0 0 0
1420 5 26.23781089584665 8.656237712230856 0.07785486825430174 0 0 0
1579 1 24.362935989758824 9.737487142558695 1.3072525676275017 0 0 0
1585 1 28.111196190460827 9.737487142558695 1.307252567627502 0 0 0
1422 4 24.361977013855835 7.572431964308762 2.5361505282769707 0 0 0
1428 4 28.110237214557834 7.572431964308761 2.5361505282769694 0 0 0
1583 4 26.23610711420684 10.818520518110759 2.53615052827697 0 0 0
1424 1 29.985326290811827 6.491398588756694 1.3072525676275035 0 0 0
1430 1 33.733586491513826 6.491398588756693 1.3072525676275024 0 0 0
1426 5 29.98607109654865 8.656237712230856 0.07785486825430106 0 0 0
1432 5 33.734331297250655 8.656237712230856 0.07785486825430171 0 0 0
1591 1 31.85945639116283 9.737487142558695 1.307252567627502 0 0 0
1597 1 35.60771659186483 9.737487142558695 1.3072525676275017 0 0 0
1434 4 31.858497415259837 7.572431964308761 2.53615052827697 0 0 0
1440 4 35.60675761596183 7.572431964308762 2.5361505282769703 0 0 0
1589 4 29.984367314908837 10.818520518110759 2.5361505282769707 0 0 0
1595 4 33.73262751561084 10.818520518110759 2.53615052827697 0 0 0
1436 1 37.481846692215825 6.491398588756694 1.307252567627503 0 0 0
1442 1 41.230106892917824 6.491398588756694 1.3072525676275033 0 0 0
1438 5 37.482591497952654 8.656237712230855 0.07785486825429985 0 0 0
1444 5 41.230851698654654 8.656237712230856 0.07785486825430202 0 0 0
1603 1 39.35597679256683 9.737487142558695 1.307252567627502 0 0 0
1446 4 39.35501781666383 7.572431964308761 2.53615052827697 0 0 0
1601 4 37.480887716312836 10.81852051811076 2.5361505282769716 0 0 0
1607 4 41.229147917014835 10.818520518110759 2.53615052827697 0 0 0
1448 1 44.97836709361983 6.491398588756694 1.307252567627504 0 0 0
1450 5 44.97911189935665 8.656237712230856 0.07785486825430127 0 0 0
1609 1 43.10423699326883 9.737487142558695 1.307252567627502 0 0 0
1615 1 46.85249719397083 9.737487142558695 1.307252567627501 0 0 0
1452 4 43.10327801736584 7.572431964308762 2.5361505282769703 0 0 0
1458 4 46.85153821806784 7.572431964308761 2.536150528276969 0 0 0
1613 4 44.977408117716834 10.81852051811076 2.5361505282769703 0 0 0
1454 1 48.72662729432183 6.491398588756694 1.307252567627503 0 0 0
1298 1 52.47488749502383 6.491398588756694 1.307252567627503 -1 0 0
1456 5 48.72737210005865 8.656237712230856 0.0778548682543012 0 0 0
1300 5 52.47563230076065 8.656237712230856 0.07785486825430092 -1 0 0
1459 1 50.600757394672826 9.737487142558695 1.3072525676275026 -1 0 0
1302 4 50.599798418769836 7.572431964308762 2.5361505282769707 -1 0 0
1619 4 48.72566831841884 10.818520518110759 2.5361505282769703 0 0 0
1463 4 52.47392851912084 10.818520518110759 2.5361505282769707 -1 0 0
1304 1 56.22314769572583 6.491398588756694 1.307252567627503 -1 0 0
1306 5 56.22389250146265 8.656237712230856 0.07785486825430087 -1 0 0
1465 1 54.349017595374825 9.737487142558695 1.307252567627502 -1 0 0
1471 1 58.097277796076824 9.737487142558695 1.307252567627502 -1 0 0
1308 4 54.348058619471836 7.572431964308761 2.5361505282769703 -1 0 0
1314 4 58.096318820173835 7.572431964308762 2.5361505282769703 -1 0 0
1469 4 56.22218871982284 10.818520518110759 2.5361505282769707 -1 0 0
1310 1 59.97140789642783 6.491398588756694 1.307252567627503 -1 0 0
1316 1 63.719668097129826 6.491398588756694 1.307252567627504 -1 0 0
1312 5 59.97215270216465 8.656237712230856 0.07785486825430081 -1 0 0
1318 5 63.720412902866656 8.656237712230856 0.07785486825430216 -1 0 0
1477 1 61.84553799677883 9.737487142558695 1.307252567627502 -1 0 0
1320 4 61.844579020875834 7.572431964308761 2.5361505282769694 -1 0 0
1475 4 59.97044892052484 10.818520518110759 2.5361505282769707 -1 0 0
1481 4 63.71870912122684 10.818520518110759 2.53615052827697 -1 0 0
1322 1 67.46792829783183 6.491398588756694 1.307252567627503 -1 0 0
1328 1 71.21618849853382 6.491398588756693 1.3072525676275017 -1 0 0
1324 5 67.46867310356865 8.656237712230855 0.07785486825429931 -1 0 0
1330 5 71.21693330427065 8.656237712230856 0.0778548682543013 -1 0 0
1483 1 65.59379819748082 9.737487142558695 1.3072525676275026 -1 0 0
1489 1 69.34205839818283 9.737487142558694 1.3072525676275004 -1 0 0
1326 4 65.59283922157785 7.572431964308761 2.5361505282769703 -1 0 0
1332 4 69.34109942227984 7.572431964308762 2.5361505282769703 -1 0 0
1487 4 67.46696932192884 10.81852051811076 2.5361505282769725 -1 0 0
1493 4 71.21522952263084 10.81852051811076 2.5361505282769703 -1 0 0
1334 1 74.96444869923582 6.491398588756694 1.307252567627503 -1 0 0
1336 5 74.96519350497265 8.656237712230856 0.07785486825430175 -1 0 0
1495 1 73.09031859888482 9.737487142558695 1.3072525676275033 -1 0 0
1501 1 76.83857879958683 9.737487142558694 1.3072525676275006 -1 0 0
1338 4 73.08935962298183 7.572431964308761 2.53615052827697 -1 0 0
1344 4 76.83761982368384 7.572431964308761 2.53615052827697 -1 0 0
1499 4 74.96348972333284 10.818520518110759 2.53615052827697 -1 0 0
1340 1 78.71270889993782 6.491398588756695 1.3072525676275046 -1 0 0
1346 1 82.46096910063983 6.491398588756693 1.3072525676275017 -1 0 0
1342 5 78.71345370567465 8.656237712230856 0.07785486825430128 -1 0 0
1348 5 82.46171390637666 8.656237712230856 0.07785486825430127 -1 0 0
1507 1 80.58683900028882 9.737487142558695 1.307252567627502 -1 0 0
1350 4 80.58588002438584 7.572431964308761 2.5361505282769694 -1 0 0
1505 4 78.71174992403483 10.81852051811076 2.5361505282769703 -1 0 0
1511 4 82.46001012473684 10.81852051811076 2.5361505282769703 -1 0 0
1352 1 86.20922930134182 6.491398588756694 1.307252567627503 -1 0 0
1354 5 86.20997410707865 8.656237712230856 0.07785486825430178 -1 0 0
1513 1 84.33509920099083 9.737487142558695 1.3072525676275033 -1 0 0
1519 1 88.08335940169283 9.737487142558694 1.3072525676275004 -1 0 0
1356 4 84.33414022508784 7.572431964308761 2.53615052827697 -1 0 0
1362 4 88.08240042578984 7.572431964308762 2.536150528276971 -1 0 0
1517 4 86.20827032543885 10.818520518110759 2.53615052827697 -1 0 0
1358 1 89.95748950204383 6.491398588756695 1.3072525676275046 -1 0 0
1364 1 93.70574970274582 6.491398588756694 1.3072525676275033 -1 0 0
1360 5 89.95823430778066 8.656237712230855 0.07785486825429912 -1 0 0
1366 5 93.70649450848265 8.656237712230856 0.07785486825430157 -1 0 0
1525 1 91.83161960239482 9.737487142558695 1.3072525676275017 -1 0 0
1368 4 91.83066062649183 7.572431964308762 2.5361505282769703 -1 0 0
1523 4 89.95653052614084 10.81852051811076 2.5361505282769725 -1 0 0
1529 4 93.70479072684283 10.81852051811076 2.53615052827697 -1 0 0
1376 1 101.20227010414983 6.491398588756694 1.3072525676275042 -1 0 0
1378 5 101.20301490988665 8.656237712230856 0.07785486825430223 -1 0 0
1541 4 101.20131112824683 10.818520518110759 2.5361505282769703 -1 0 0
1370 1 97.45400990344783 6.491398588756693 1.3072525676275017 -1 0 0
1372 5 97.45475470918466 8.656237712230856 0.07785486825430117 -1 0 0
1531 1 95.57987980309682 9.737487142558695 1.307252567627502 -1 0 0
1537 1 99.32814000379882 9.737487142558695 1.307252567627502 -1 0 0
1374 4 95.57892082719384 7.572431964308761 2.5361505282769694 -1 0 0
1380 4 99.32718102789583 7.572431964308761 2.5361505282769694 -1 0 0
1535 4 97.45305092754484 10.81852051811076 2.5361505282769703 -1 0 0
1545 5 1.8741195912836521 11.902326266032857 0.07785486825430042 0 0 0
1544 1 3.747504885897828 12.983575696360694 1.3072525676275035 0 0 0
1551 5 5.622379791985652 11.902326266032857 0.0778548682543004 0 0 0
1546 5 3.7482496916346513 15.148414819834855 0.07785486825430192 0 0 0
1705 1 1.873374785546827 16.229664250162696 1.307252567627503 0 0 0
1711 1 5.621634986248826 16.229664250162696 1.307252567627503 0 0 0
1548 4 1.8724158096438381 14.064609071912761 2.5361505282769707 0 0 0
1554 4 5.6206760103458375 14.064609071912761 2.5361505282769707 0 0 0
1550 1 7.495765086599827 12.983575696360694 1.3072525676275033 0 0 0
1557 5 9.37063999268765 11.902326266032857 0.07785486825430048 0 0 0
1556 1 11.244025287301827 12.983575696360694 1.3072525676275033 0 0 0
1552 5 7.49650989233665 15.148414819834855 0.07785486825430173 0 0 0
1558 5 11.244770093038651 15.148414819834855 0.07785486825430217 0 0 0
1717 1 9.369895186950826 16.229664250162696 1.307252567627503 0 0 0
1560 4 9.368936211047837 14.064609071912761 2.5361505282769707 0 0 0
1563 5 13.118900193389651 11.902326266032857 0.07785486825430092 0 0 0
1569 5 16.867160394091652 11.902326266032857 0.07785486825430021 0 0 0
1562 1 14.992285488003827 12.983575696360694 1.3072525676275035 0 0 0
1723 1 13.118155387652827 16.229664250162696 1.3072525676275035 0 0 0
1564 5 14.99303029374065 15.148414819834855 0.077854868254302 0 0 0
1729 1 16.866415588354826 16.229664250162696 1.3072525676275037 0 0 0
1566 4 13.117196411749838 14.064609071912761 2.5361505282769703 0 0 0
1572 4 16.865456612451837 14.064609071912761 2.536150528276971 0 0 0
1568 1 18.74054568870583 12.983575696360694 1.3072525676275026 0 0 0
1575 5 20.61542059479365 11.902326266032857 0.07785486825430127 0 0 0
1574 1 22.48880588940783 12.983575696360694 1.3072525676275029 0 0 0
1570 5 18.74129049444265 15.148414819834857 0.07785486825430238 0 0 0
1735 1 20.61467578905683 16.229664250162696 1.3072525676275037 0 0 0
1576 5 22.48955069514465 15.148414819834855 0.07785486825430102 0 0 0
1578 4 20.613716813153836 14.064609071912761 2.53615052827697 0 0 0
1581 5 24.36368079549565 11.902326266032857 0.07785486825429959 0 0 0
1580 1 26.237066090109828 12.983575696360694 1.3072525676275029 0 0 0
1587 5 28.11194099619765 11.902326266032857 0.07785486825430124 0 0 0
1741 1 24.362935989758824 16.229664250162696 1.307252567627504 0 0 0
1582 5 26.23781089584665 15.148414819834857 0.0778548682543024 0 0 0
1747 1 28.111196190460827 16.229664250162696 1.3072525676275037 0 0 0
1584 4 24.361977013855835 14.064609071912761 2.5361505282769716 0 0 0
1590 4 28.110237214557834 14.064609071912761 2.5361505282769703 0 0 0
1586 1 29.985326290811827 12.983575696360694 1.3072525676275033 0 0 0
1593 5 31.860201196899652 11.902326266032857 0.07785486825430082 0 0 0
1592 1 33.733586491513826 12.983575696360694 1.3072525676275022 0 0 0
1599 5 35.60846139760165 11.902326266032857 0.07785486825429998 0 0 0
1588 5 29.98607109654865 15.148414819834857 0.07785486825430184 0 0 0
1753 1 31.85945639116283 16.229664250162696 1.3072525676275035 0 0 0
1594 5 33.734331297250655 15.148414819834857 0.07785486825430243 0 0 0
1759 1 35.60771659186483 16.229664250162696 1.307252567627504 0 0 0
1596 4 31.858497415259837 14.064609071912761 2.5361505282769707 0 0 0
1602 4 35.60675761596183 14.064609071912761 2.536150528276971 0 0 0
1598 1 37.481846692215825 12.983575696360694 1.307252567627503 0 0 0
1605 5 39.35672159830365 11.902326266032857 0.07785486825430085 0 0 0
1604 1 41.230106892917824 12.983575696360695 1.307252567627503 0 0 0
1600 5 37.482591497952654 15.148414819834855 0.07785486825430071 0 0 0
1765 1 39.35597679256683 16.229664250162696 1.3072525676275035 0 0 0
1606 5 41.230851698654654 15.148414819834857 0.07785486825430275 0 0 0
1608 4 39.35501781666383 14.064609071912761 2.5361505282769707 0 0 0
1611 5 43.10498179900565 11.902326266032857 0.07785486825430048 0 0 0
1610 1 44.97836709361983 12.983575696360695 1.3072525676275037 0 0 0
1617 5 46.853241999707656 11.902326266032857 0.07785486825430157 0 0 0
1612 5 44.97911189935665 15.148414819834857 0.07785486825430206 0 0 0
1771 1 43.10423699326883 16.229664250162696 1.3072525676275035 0 0 0
1777 1 46.85249719397083 16.229664250162696 1.307252567627503 0 0 0
1614 4 43.10327801736584 14.064609071912761 2.5361505282769707 0 0 0
1620 4 46.85153821806784 14.06460907191276 2.53615052827697 0 0 0
1461 5 50.601502200409655 11.902326266032857 0.0778548682542998 -1 0 0
1616 1 48.72662729432183 12.983575696360695 1.307252567627503 0 0 0
1460 1 52.47488749502383 12.983575696360694 1.3072525676275033 -1 0 0
1618 5 48.72737210005865 15.148414819834857 0.07785486825430202 0 0 0
1621 1 50.600757394672826 16.229664250162696 1.307252567627504 -1 0 0
1462 5 52.47563230076065 15.148414819834855 0.0778548682543019 -1 0 0
1464 4 50.599798418769836 14.064609071912761 2.5361505282769716 -1 0 0
1467 5 54.34976240111165 11.902326266032857 0.07785486825430045 -1 0 0
1466 1 56.22314769572583 12.983575696360694 1.3072525676275033 -1 0 0
1473 5 58.098022601813646 11.902326266032857 0.07785486825430045 -1 0 0
1627 1 54.349017595374825 16.229664250162696 1.307252567627503 -1 0 0
1468 5 56.22389250146265 15.148414819834855 0.07785486825430185 -1 0 0
1633 1 58.097277796076824 16.229664250162696 1.307252567627503 -1 0 0
1470 4 54.348058619471836 14.064609071912761 2.5361505282769707 -1 0 0
1476 4 58.096318820173835 14.064609071912761 2.5361505282769707 -1 0 0
1472 1 59.97140789642783 12.983575696360694 1.3072525676275033 -1 0 0
1479 5 61.84628280251565 11.902326266032858 0.07785486825430099 -1 0 0
1478 1 63.719668097129826 12.983575696360695 1.3072525676275037 -1 0 0
1474 5 59.97215270216465 15.148414819834855 0.0778548682543018 -1 0 0
1639 1 61.84553799677882 16.229664250162696 1.3072525676275024 -1 0 0
1480 5 63.720412902866656 15.148414819834857 0.07785486825430299 -1 0 0
1482 4 61.844579020875834 14.064609071912761 2.5361505282769703 -1 0 0
1485 5 65.59454300321765 11.902326266032857 0.07785486825430055 -1 0 0
1484 1 67.46792829783183 12.983575696360695 1.307252567627503 -1 0 0
1491 5 69.34280320391964 11.902326266032857 0.07785486825429996 -1 0 0
1490 1 71.21618849853382 12.983575696360694 1.3072525676275015 -1 0 0
1486 5 67.46867310356865 15.148414819834855 0.07785486825430006 -1 0 0
1645 1 65.59379819748082 16.229664250162696 1.3072525676275049 -1 0 0
1651 1 69.34205839818283 16.229664250162692 1.3072525676275024 -1 0 0
1492 5 71.21693330427065 15.148414819834857 0.07785486825430209 -1 0 0
1488 4 65.59283922157785 14.064609071912761 2.5361505282769707 -1 0 0
1494 4 69.34109942227984 14.064609071912761 2.536150528276971 -1 0 0
1497 5 73.09106340462165 11.902326266032857 0.07785486825430085 -1 0 0
1496 1 74.96444869923582 12.983575696360694 1.307252567627503 -1 0 0
1503 5 76.83932360532366 11.902326266032857 0.07785486825430078 -1 0 0
1498 5 74.96519350497265 15.148414819834857 0.07785486825430254 -1 0 0
1657 1 73.09031859888482 16.229664250162696 1.3072525676275053 -1 0 0
1663 1 76.83857879958683 16.229664250162696 1.3072525676275022 -1 0 0
1500 4 73.08935962298183 14.064609071912761 2.5361505282769707 -1 0 0
1506 4 76.83761982368384 14.064609071912761 2.5361505282769707 -1 0 0
1509 5 80.58758380602565 11.902326266032858 0.07785486825430112 -1 0 0
1502 1 78.71270889993782 12.983575696360695 1.3072525676275046 -1 0 0
1508 1 82.46096910063983 12.983575696360694 1.3072525676275015 -1 0 0
1504 5 78.71345370567465 15.148414819834857 0.07785486825430206 -1 0 0
1669 1 80.58683900028882 16.229664250162696 1.3072525676275035 -1 0 0
1510 5 82.46171390637666 15.148414819834857 0.07785486825430206 -1 0 0
1512 4 80.58588002438584 14.064609071912761 2.5361505282769703 -1 0 0
1515 5 84.33584400672765 11.902326266032857 0.07785486825430085 -1 0 0
1521 5 88.08410420742965 11.902326266032857 0.07785486825429956 -1 0 0
1514 1 86.20922930134182 12.983575696360694 1.307252567627503 -1 0 0
1675 1 84.33509920099083 16.229664250162696 1.307252567627505 -1 0 0
1516 5 86.20997410707865 15.148414819834857 0.07785486825430259 -1 0 0
1681 1 88.08335940169283 16.229664250162696 1.3072525676275022 -1 0 0
1518 4 84.33414022508784 14.064609071912761 2.5361505282769703 -1 0 0
1524 4 88.08240042578984 14.064609071912761 2.536150528276972 -1 0 0
1527 5 91.83236440813164 11.902326266032857 0.07785486825430013 -1 0 0
1520 1 89.95748950204383 12.983575696360695 1.3072525676275044 -1 0 0
1526 1 93.70574970274582 12.983575696360694 1.307252567627503 -1 0 0
1522 5 89.95823430778066 15.148414819834855 0.0778548682543 -1 0 0
1687 1 91.83161960239482 16.229664250162696 1.3072525676275037 -1 0 0
1528 5 93.70649450848265 15.148414819834857 0.07785486825430231 -1 0 0
1530 4 91.83066062649183 14.064609071912761 2.536150528276971 -1 0 0
1538 1 101.20227010414983 12.983575696360695 1.3072525676275042 -1 0 0
1540 5 101.20301490988665 15.148414819834857 0.07785486825430304 -1 0 0
1533 5 95.58062460883365 11.902326266032858 0.07785486825430114 -1 0 0
1532 1 97.45400990344783 12.983575696360694 1.3072525676275017 -1 0 0
1539 5 99.32888480953565 11.902326266032857 0.07785486825430075 -1 0 0
1693 1 95.57987980309682 16.229664250162696 1.3072525676275033 -1 0 0
1534 5 97.45475470918466 15.148414819834857 0.07785486825430196 -1 0 0
1699 1 99.32814000379882 16.229664250162696 1.3072525676275035 -1 0 0
1536 4 95.57892082719384 14.064609071912761 2.53615052827697 -1 0 0
1542 4 99.32718102789583 14.06460907191276 2.5361505282769703 -1 0 0
1707 5 1.8741195912836521 18.394503373636855 0.07785486825430006 0 0 0
1713 5 5.622379791985652 18.394503373636855 0.07785486825430003 0 0 0
1706 1 3.747504885897828 19.475752803964696 1.3072525676275009 0 0 0
1708 5 3.7482496916346513 21.64059192743886 0.07785486825429991 0 0 0
1867 1 1.8733747855468268 22.721841357766696 1.3072525676275017 0 0 0
1873 1 5.621634986248826 22.721841357766696 1.3072525676275017 0 0 0
1709 4 3.746545909994837 17.310697625714763 2.53615052827697 0 0 0
1710 4 1.8724158096438381 20.55678617951676 2.53615052827697 0 0 0
1716 4 5.6206760103458375 20.55678617951676 2.53615052827697 0 0 0
1719 5 9.37063999268765 18.394503373636855 0.07785486825430012 0 0 0
1712 1 7.495765086599827 19.475752803964696 1.3072525676275009 0 0 0
1718 1 11.244025287301827 19.475752803964696 1.3072525676275009 0 0 0
1714 5 7.49650989233665 21.64059192743886 0.07785486825429973 0 0 0
1720 5 11.244770093038651 21.64059192743886 0.07785486825430023 0 0 0
1879 1 9.369895186950826 22.721841357766696 1.3072525676275017 0 0 0
1715 4 7.494806110696836 17.310697625714763 2.53615052827697 0 0 0
1721 4 11.243066311398836 17.31069762571476 2.5361505282769694 0 0 0
1722 4 9.368936211047837 20.55678617951676 2.53615052827697 0 0 0
1725 5 13.118900193389651 18.394503373636855 0.07785486825430069 0 0 0
1731 5 16.867160394091652 18.394503373636855 0.0778548682542999 0 0 0
1724 1 14.992285488003827 19.475752803964696 1.307252567627501 0 0 0
1726 5 14.99303029374065 21.64059192743886 0.07785486825429992 0 0 0
1885 1 13.118155387652827 22.721841357766696 1.307252567627502 0 0 0
1891 1 16.866415588354826 22.721841357766696 1.307252567627502 0 0 0