LAMMPS data file via write_data, version 29 Aug 2024, timestep = 2, units = metal

4860 atoms
6 atom types

0 101.203025418954 xlo xhi
0 97.38265661406 ylo yhi
-50 50 zlo zhi

Masses

1 195.084
2 195.084
3 78.971
4 78.971
5 78.971
6 78.971

Atoms # atomic

1222 4 3.7482496443838214 2.164060657379853 0.07837604693413218 0 0 0
1381 1 1.8733883452584177 3.245324277096274 1.3072995602972852 0 0 0
1387 1 5.621648545960417 3.245324277096274 1.3072995602972854 0 0 0
1383 4 1.8741195440328222 5.410149211181854 0.07837604693413264 0 0 0
1389 4 5.622379744734822 5.410149211181854 0.07837604693413258 0 0 0
1224 3 1.8723914929048036 1.0802303891038005 2.5354723914682507 0 0 0
1230 3 5.620651693606803 1.0802303891038005 2.5354723914682507 0 0 0
1385 3 3.7465215932558027 4.3263189429058 2.535472391468252 0 0 0
1228 4 7.4965098450858205 2.164060657379853 0.07837604693413219 0 0 0
1234 4 11.24477004578782 2.1640606573798533 0.07837604693413258 0 0 0
1393 1 9.369908746662416 3.2453242770962736 1.3072995602972852 0 0 0
1395 4 9.370639945436821 5.410149211181854 0.0783760469341325 0 0 0
1236 3 9.368911894308802 1.0802303891038005 2.5354723914682507 0 0 0
1391 3 7.494781793957802 4.3263189429058 2.535472391468252 0 0 0
1397 3 11.243041994659801 4.326318942905799 2.5354723914682515 0 0 0
1399 1 13.118168947364417 3.245324277096274 1.3072995602972852 0 0 0
1240 4 14.993030246489822 2.164060657379853 0.07837604693413212 0 0 0
1405 1 16.866429148066416 3.2453242770962736 1.307299560297285 0 0 0
1401 4 13.118900146138822 5.410149211181854 0.0783760469341334 0 0 0
1407 4 16.867160346840823 5.410149211181853 0.07837604693413218 0 0 0
1242 3 13.117172095010803 1.0802303891037999 2.53547239146825 0 0 0
1248 3 16.865432295712804 1.0802303891038012 2.535472391468251 0 0 0
1403 3 14.991302195361802 4.3263189429058 2.535472391468252 0 0 0
1246 4 18.741290447191822 2.1640606573798533 0.0783760469341329 0 0 0
1411 1 20.61468934876842 3.245324277096274 1.307299560297285 0 0 0
1252 4 22.48955064789382 2.1640606573798524 0.07837604693413139 0 0 0
1413 4 20.615420547542822 5.410149211181854 0.07837604693413341 0 0 0
1254 3 20.613692496414803 1.0802303891037999 2.5354723914682498 0 0 0
1409 3 18.739562396063803 4.326318942905799 2.5354723914682515 0 0 0
1415 3 22.487822596765803 4.3263189429058 2.535472391468253 0 0 0
1417 1 24.362949549470414 3.245324277096274 1.3072995602972852 0 0 0
1258 4 26.23781084859582 2.1640606573798533 0.07837604693413294 0 0 0
1423 1 28.111209750172417 3.245324277096274 1.3072995602972852 0 0 0
1419 4 24.36368074824482 5.410149211181853 0.07837604693413174 0 0 0
1425 4 28.11194094894682 5.410149211181854 0.07837604693413333 0 0 0
1260 3 24.361952697116802 1.0802303891038014 2.5354723914682515 0 0 0
1266 3 28.1102128978188 1.0802303891038 2.53547239146825 0 0 0
1421 3 26.2360827974678 4.326318942905799 2.5354723914682515 0 0 0
1264 4 29.98607104929782 2.164060657379853 0.07837604693413223 0 0 0
1429 1 31.85946995087442 3.245324277096274 1.3072995602972857 0 0 0
1270 4 33.73433124999982 2.1640606573798533 0.07837604693413258 0 0 0
1435 1 35.60773015157642 3.245324277096274 1.3072995602972852 0 0 0
1431 4 31.860201149648823 5.410149211181854 0.07837604693413336 0 0 0
1437 4 35.60846135035082 5.410149211181853 0.0783760469341321 0 0 0
1272 3 31.858473098520804 1.0802303891038 2.53547239146825 0 0 0
1278 3 35.6067332992228 1.0802303891038012 2.535472391468251 0 0 0
1427 3 29.9843429981698 4.3263189429058 2.535472391468252 0 0 0
1433 3 33.73260319887181 4.326318942905799 2.5354723914682515 0 0 0
1276 4 37.48259145070182 2.1640606573798524 0.07837604693413178 0 0 0
1441 1 39.35599035227842 3.2453242770962736 1.307299560297285 0 0 0
1282 4 41.23085165140382 2.1640606573798538 0.07837604693413319 0 0 0
1443 4 39.35672155105282 5.410149211181854 0.07837604693413311 0 0 0
1284 3 39.3549934999248 1.0802303891038003 2.53547239146825 0 0 0
1439 3 37.480863399573806 4.3263189429058 2.5354723914682524 0 0 0
1445 3 41.229123600275805 4.326318942905798 2.535472391468251 0 0 0
1288 4 44.979111852105824 2.1640606573798533 0.07837604693413254 0 0 0
1447 1 43.10425055298042 3.245324277096273 1.3072995602972843 0 0 0
1453 1 46.85251075368242 3.245324277096274 1.307299560297286 0 0 0
1449 4 43.10498175175482 5.410149211181854 0.0783760469341325 0 0 0
1455 4 46.85324195245682 5.410149211181854 0.07837604693413312 0 0 0
1290 3 43.10325370062681 1.0802303891038008 2.535472391468251 0 0 0
1296 3 46.85151390132881 1.0802303891038 2.5354723914682507 0 0 0
1451 3 44.977383800977805 4.326318942905799 2.535472391468252 0 0 0
1294 4 48.72737205280782 2.1640606573798524 0.07837604693413167 0 0 0
1297 1 50.60077095438442 3.2453242770962736 1.3072995602972846 -1 0 0
1138 4 52.47563225350982 2.164060657379853 0.0783760469341322 -1 0 0
1299 4 50.60150215315882 5.410149211181854 0.07837604693413275 -1 0 0
1140 3 50.59977410203081 1.0802303891038005 2.5354723914682507 -1 0 0
1457 3 48.725644001679804 4.3263189429058 2.5354723914682524 0 0 0
1301 3 52.4739042023818 4.3263189429058 2.535472391468252 -1 0 0
1303 1 54.349031155086415 3.245324277096274 1.3072995602972852 -1 0 0
1144 4 56.22389245421182 2.164060657379853 0.07837604693413219 -1 0 0
1309 1 58.097291355788414 3.245324277096274 1.3072995602972852 -1 0 0
1305 4 54.34976235386082 5.410149211181854 0.07837604693413265 -1 0 0
1311 4 58.09802255456282 5.410149211181854 0.07837604693413265 -1 0 0
1146 3 54.348034302732806 1.0802303891038005 2.5354723914682507 -1 0 0
1152 3 58.096294503434805 1.0802303891038005 2.535472391468251 -1 0 0
1307 3 56.2221644030838 4.3263189429058 2.535472391468252 -1 0 0
1150 4 59.97215265491382 2.164060657379853 0.07837604693413218 -1 0 0
1315 1 61.84555155649041 3.245324277096274 1.307299560297286 -1 0 0
1156 4 63.72041285561582 2.1640606573798538 0.0783760469341333 -1 0 0
1317 4 61.846282755264816 5.410149211181854 0.07837604693413318 -1 0 0
1158 3 61.844554704136804 1.0802303891038 2.53547239146825 -1 0 0
1313 3 59.9704246037858 4.3263189429058 2.5354723914682524 -1 0 0
1319 3 63.71868480448781 4.326318942905798 2.535472391468251 -1 0 0
1162 4 67.46867305631783 2.1640606573798515 0.07837604693413057 -1 0 0
1321 1 65.59381175719241 3.245324277096273 1.3072995602972846 -1 0 0
1327 1 69.3420719578944 3.2453242770962745 1.3072995602972866 -1 0 0
1168 4 71.21693325701982 2.1640606573798533 0.07837604693413257 -1 0 0
1323 4 65.59454295596682 5.410149211181854 0.078376046934132 -1 0 0
1329 4 69.34280315666882 5.410149211181853 0.07837604693413212 -1 0 0
1164 3 65.5928149048388 1.080230389103801 2.5354723914682515 -1 0 0
1170 3 69.3410751055408 1.080230389103801 2.535472391468251 -1 0 0
1325 3 67.4669450051898 4.326318942905801 2.5354723914682538 -1 0 0
1331 3 71.2152052058918 4.326318942905799 2.535472391468252 -1 0 0
1174 4 74.96519345772181 2.164060657379853 0.07837604693413291 -1 0 0
1333 1 73.09033215859641 3.245324277096273 1.307299560297284 -1 0 0
1339 1 76.83859235929842 3.245324277096274 1.3072995602972852 -1 0 0
1335 4 73.09106335737081 5.410149211181854 0.07837604693413305 -1 0 0
1341 4 76.83932355807282 5.410149211181854 0.07837604693413304 -1 0 0
1176 3 73.0893353062428 1.0802303891038005 2.5354723914682507 -1 0 0
1182 3 76.83759550694481 1.0802303891038 2.5354723914682507 -1 0 0
1337 3 74.9634654065938 4.326318942905799 2.5354723914682515 -1 0 0
1180 4 78.71345365842382 2.1640606573798533 0.07837604693413255 -1 0 0
1345 1 80.58685256000042 3.2453242770962745 1.3072995602972866 -1 0 0
1186 4 82.46171385912582 2.1640606573798533 0.07837604693413254 -1 0 0
1347 4 80.58758375877483 5.410149211181854 0.07837604693413316 -1 0 0
1188 3 80.5858557076468 1.0802303891038003 2.53547239146825 -1 0 0
1343 3 78.7117256072958 4.326318942905799 2.5354723914682515 -1 0 0
1349 3 82.45998580799781 4.326318942905799 2.5354723914682515 -1 0 0
1351 1 84.33511276070242 3.245324277096273 1.307299560297284 -1 0 0
1192 4 86.20997405982781 2.164060657379853 0.07837604693413303 -1 0 0
1357 1 88.08337296140442 3.245324277096275 1.3072995602972866 -1 0 0
1353 4 84.33584395947682 5.410149211181854 0.07837604693413305 -1 0 0
1359 4 88.08410416017882 5.410149211181855 0.07837604693413328 -1 0 0
1194 3 84.3341159083488 1.0802303891038003 2.5354723914682507 -1 0 0
1200 3 88.08237610905081 1.0802303891038 2.53547239146825 -1 0 0
1355 3 86.2082460086998 4.326318942905799 2.5354723914682515 -1 0 0
1198 4 89.95823426052982 2.1640606573798524 0.07837604693413172 -1 0 0
1363 1 91.83163316210641 3.245324277096273 1.3072995602972837 -1 0 0
1204 4 93.70649446123183 2.1640606573798524 0.07837604693413151 -1 0 0
1365 4 91.83236436088082 5.410149211181852 0.07837604693413071 -1 0 0
1206 3 91.8306363097528 1.0802303891038016 2.5354723914682524 -1 0 0
1361 3 89.95650620940181 4.3263189429058 2.5354723914682524 -1 0 0
1367 3 93.7047664101038 4.3263189429058 2.535472391468253 -1 0 0
1216 4 101.20301486263583 2.1640606573798533 0.07837604693413296 -1 0 0
1379 3 101.2012868115078 4.326318942905799 2.5354723914682515 -1 0 0
1369 1 95.57989336280842 3.2453242770962745 1.3072995602972866 -1 0 0
1210 4 97.45475466193382 2.1640606573798533 0.07837604693413253 -1 0 0
1375 1 99.32815356351041 3.245324277096273 1.307299560297284 -1 0 0
1371 4 95.58062456158282 5.410149211181854 0.07837604693413328 -1 0 0
1377 4 99.32888476228483 5.410149211181855 0.07837604693413419 -1 0 0
1212 3 95.5788965104548 1.0802303891038003 2.5354723914682498 -1 0 0
1218 3 99.3271567111568 1.0802303891037999 2.5354723914682498 -1 0 0
1373 3 97.45302661080581 4.326318942905799 2.5354723914682515 -1 0 0
1382 1 3.7475184456094186 6.491412830898274 1.3072995602972866 0 0 0
1384 4 3.7482496443838214 8.656237764983853 0.07837604693413293 0 0 0
1543 1 1.8733883452584177 9.737501384700273 1.3072995602972852 0 0 0
1549 1 5.621648545960417 9.737501384700273 1.3072995602972852 0 0 0
1386 3 1.8723914929048036 7.572407496707801 2.535472391468252 0 0 0
1392 3 5.620651693606803 7.572407496707801 2.5354723914682515 0 0 0
1547 3 3.7465215932558027 10.818496050509799 2.535472391468252 0 0 0
1388 1 7.495778646311418 6.491412830898274 1.3072995602972863 0 0 0
1394 1 11.244038847013417 6.491412830898273 1.3072995602972863 0 0 0
1390 4 7.4965098450858205 8.656237764983853 0.07837604693413293 0 0 0
1396 4 11.24477004578782 8.656237764983853 0.07837604693413336 0 0 0
1555 1 9.369908746662416 9.737501384700273 1.3072995602972852 0 0 0
1398 3 9.368911894308802 7.572407496707801 2.535472391468252 0 0 0
1553 3 7.494781793957802 10.818496050509799 2.535472391468252 0 0 0
1559 3 11.243041994659801 10.8184960505098 2.5354723914682515 0 0 0
1400 1 14.992299047715418 6.491412830898273 1.3072995602972863 0 0 0
1402 4 14.993030246489822 8.656237764983853 0.07837604693413289 0 0 0
1561 1 13.118168947364417 9.737501384700275 1.3072995602972852 0 0 0
1567 1 16.866429148066416 9.737501384700273 1.307299560297285 0 0 0
1404 3 13.117172095010803 7.5724074967078 2.535472391468251 0 0 0
1410 3 16.865432295712804 7.572407496707801 2.5354723914682524 0 0 0
1565 3 14.991302195361802 10.818496050509799 2.535472391468252 0 0 0
1406 1 18.74055924841742 6.491412830898273 1.3072995602972868 0 0 0
1412 1 22.48881944911942 6.491412830898273 1.3072995602972861 0 0 0
1408 4 18.741290447191822 8.656237764983853 0.0783760469341336 0 0 0
1414 4 22.48955064789382 8.656237764983851 0.0783760469341321 0 0 0
1573 1 20.61468934876842 9.737501384700273 1.3072995602972852 0 0 0
1416 3 20.613692496414803 7.5724074967078 2.535472391468251 0 0 0
1571 3 18.739562396063803 10.8184960505098 2.535472391468251 0 0 0
1577 3 22.487822596765803 10.8184960505098 2.5354723914682524 0 0 0
1418 1 26.237079649821418 6.491412830898273 1.3072995602972868 0 0 0
1420 4 26.23781084859582 8.656237764983853 0.07837604693413364 0 0 0
1579 1 24.362949549470418 9.737501384700273 1.3072995602972852 0 0 0
1585 1 28.111209750172417 9.737501384700273 1.3072995602972852 0 0 0
1422 3 24.361952697116802 7.572407496707802 2.5354723914682524 0 0 0
1428 3 28.1102128978188 7.5724074967078 2.535472391468251 0 0 0
1583 3 26.2360827974678 10.8184960505098 2.535472391468251 0 0 0
1424 1 29.985339850523417 6.491412830898273 1.3072995602972861 0 0 0
1430 1 33.733600051225416 6.491412830898273 1.307299560297287 0 0 0
1426 4 29.98607104929782 8.656237764983853 0.07837604693413293 0 0 0
1432 4 33.73433124999982 8.656237764983853 0.07837604693413332 0 0 0
1591 1 31.85946995087442 9.737501384700275 1.3072995602972854 0 0 0
1597 1 35.60773015157642 9.737501384700273 1.3072995602972852 0 0 0
1434 3 31.858473098520804 7.5724074967078 2.535472391468251 0 0 0
1440 3 35.6067332992228 7.572407496707801 2.535472391468252 0 0 0
1589 3 29.9843429981698 10.8184960505098 2.535472391468252 0 0 0
1595 3 33.73260319887181 10.8184960505098 2.5354723914682515 0 0 0
1436 1 37.481860251927415 6.491412830898273 1.3072995602972857 0 0 0
1442 1 41.230120452629414 6.491412830898274 1.3072995602972872 0 0 0
1438 4 37.48259145070182 8.656237764983851 0.07837604693413243 0 0 0
1444 4 41.23085165140382 8.656237764983853 0.07837604693413391 0 0 0
1603 1 39.35599035227842 9.737501384700273 1.307299560297285 0 0 0
1446 3 39.3549934999248 7.5724074967078 2.5354723914682515 0 0 0
1601 3 37.480863399573806 10.8184960505098 2.5354723914682524 0 0 0
1607 3 41.229123600275805 10.818496050509799 2.535472391468251 0 0 0
1448 1 44.97838065333142 6.491412830898273 1.3072995602972866 0 0 0
1450 4 44.979111852105824 8.656237764983853 0.07837604693413323 0 0 0
1609 1 43.10425055298042 9.737501384700273 1.3072995602972843 0 0 0
1615 1 46.85251075368242 9.737501384700275 1.3072995602972857 0 0 0
1452 3 43.10325370062681 7.572407496707801 2.535472391468252 0 0 0
1458 3 46.85151390132881 7.5724074967078 2.5354723914682515 0 0 0
1613 3 44.977383800977805 10.8184960505098 2.5354723914682515 0 0 0
1454 1 48.72664085403342 6.491412830898273 1.3072995602972863 0 0 0
1298 1 52.47490105473542 6.491412830898273 1.3072995602972863 -1 0 0
1456 4 48.72737205280782 8.656237764983851 0.07837604693413233 0 0 0
1300 4 52.47563225350982 8.656237764983853 0.07837604693413296 -1 0 0
1459 1 50.600770954384416 9.737501384700273 1.3072995602972846 -1 0 0
1302 3 50.59977410203081 7.572407496707801 2.5354723914682515 -1 0 0
1619 3 48.725644001679804 10.8184960505098 2.5354723914682524 0 0 0
1463 3 52.4739042023818 10.818496050509799 2.535472391468252 -1 0 0
1304 1 56.22316125543742 6.491412830898273 1.3072995602972863 -1 0 0
1306 4 56.22389245421182 8.656237764983853 0.07837604693413293 -1 0 0
1465 1 54.349031155086415 9.737501384700273 1.3072995602972852 -1 0 0
1471 1 58.097291355788414 9.737501384700273 1.3072995602972852 -1 0 0
1308 3 54.348034302732806 7.572407496707801 2.535472391468252 -1 0 0
1314 3 58.096294503434805 7.572407496707801 2.535472391468252 -1 0 0
1469 3 56.2221644030838 10.818496050509799 2.5354723914682524 -1 0 0
1310 1 59.97142145613942 6.491412830898273 1.3072995602972863 -1 0 0
1316 1 63.719681656841416 6.491412830898273 1.3072995602972857 -1 0 0
1312 4 59.97215265491382 8.656237764983853 0.07837604693413291 -1 0 0
1318 4 63.72041285561582 8.656237764983855 0.07837604693413404 -1 0 0
1477 1 61.84555155649042 9.737501384700275 1.307299560297286 -1 0 0
1320 3 61.844554704136804 7.5724074967078 2.535472391468251 -1 0 0
1475 3 59.9704246037858 10.818496050509799 2.5354723914682524 -1 0 0
1481 3 63.71868480448781 10.818496050509799 2.535472391468251 -1 0 0
1322 1 67.46794185754341 6.491412830898273 1.3072995602972866 -1 0 0
1328 1 71.21620205824541 6.491412830898273 1.3072995602972863 -1 0 0
1324 4 67.46867305631781 8.656237764983851 0.0783760469341312 -1 0 0
1330 4 71.21693325701982 8.656237764983853 0.07837604693413326 -1 0 0
1483 1 65.59381175719241 9.737501384700273 1.3072995602972846 -1 0 0
1489 1 69.3420719578944 9.737501384700275 1.3072995602972866 -1 0 0
1326 3 65.5928149048388 7.572407496707801 2.5354723914682524 -1 0 0
1332 3 69.3410751055408 7.572407496707801 2.5354723914682524 -1 0 0
1487 3 67.4669450051898 10.8184960505098 2.5354723914682538 -1 0 0
1493 3 71.2152052058918 10.8184960505098 2.5354723914682515 -1 0 0
1334 1 74.96446225894742 6.491412830898275 1.3072995602972877 -1 0 0
1336 4 74.96519345772181 8.656237764983853 0.0783760469341336 -1 0 0
1495 1 73.09033215859641 9.737501384700273 1.3072995602972837 -1 0 0
1501 1 76.83859235929842 9.737501384700273 1.3072995602972852 -1 0 0
1338 3 73.0893353062428 7.572407496707801 2.5354723914682515 -1 0 0
1344 3 76.83759550694481 7.5724074967078 2.5354723914682515 -1 0 0
1499 3 74.9634654065938 10.818496050509799 2.5354723914682515 -1 0 0
1340 1 78.71272245964941 6.491412830898272 1.3072995602972852 -1 0 0
1346 1 82.46098266035142 6.491412830898273 1.3072995602972866 -1 0 0
1342 4 78.71345365842382 8.656237764983853 0.07837604693413325 -1 0 0
1348 4 82.46171385912582 8.656237764983853 0.07837604693413325 -1 0 0
1507 1 80.58685256000042 9.737501384700275 1.3072995602972866 -1 0 0
1350 3 80.5858557076468 7.5724074967078 2.535472391468251 -1 0 0
1505 3 78.7117256072958 10.8184960505098 2.5354723914682515 -1 0 0
1511 3 82.45998580799781 10.8184960505098 2.5354723914682515 -1 0 0
1352 1 86.20924286105343 6.491412830898275 1.3072995602972877 -1 0 0
1354 4 86.20997405982781 8.656237764983853 0.0783760469341337 -1 0 0
1513 1 84.33511276070242 9.737501384700273 1.3072995602972837 -1 0 0
1519 1 88.08337296140442 9.737501384700275 1.3072995602972866 -1 0 0
1356 3 84.3341159083488 7.572407496707801 2.5354723914682515 -1 0 0
1362 3 88.08237610905081 7.5724074967078 2.5354723914682515 -1 0 0
1517 3 86.2082460086998 10.818496050509799 2.535472391468251 -1 0 0
1358 1 89.95750306175542 6.491412830898272 1.3072995602972852 -1 0 0
1364 1 93.70576326245741 6.491412830898274 1.3072995602972863 -1 0 0
1360 4 89.95823426052982 8.656237764983853 0.07837604693413235 -1 0 0
1366 4 93.70649446123183 8.656237764983853 0.07837604693413214 -1 0 0
1525 1 91.83163316210641 9.737501384700273 1.3072995602972837 -1 0 0
1368 3 91.8306363097528 7.572407496707802 2.5354723914682533 -1 0 0
1523 3 89.95650620940181 10.8184960505098 2.5354723914682524 -1 0 0
1529 3 93.7047664101038 10.8184960505098 2.535472391468253 -1 0 0
1376 1 101.20228366386142 6.491412830898273 1.3072995602972861 -1 0 0
1378 4 101.20301486263583 8.656237764983853 0.07837604693413368 -1 0 0
1541 3 101.2012868115078 10.818496050509799 2.5354723914682515 -1 0 0
1370 1 97.45402346315942 6.491412830898273 1.3072995602972866 -1 0 0
1372 4 97.45475466193382 8.656237764983853 0.0783760469341332 -1 0 0
1531 1 95.57989336280842 9.737501384700275 1.3072995602972866 -1 0 0
1537 1 99.32815356351041 9.737501384700273 1.3072995602972837 -1 0 0
1374 3 95.5788965104548 7.5724074967078 2.535472391468251 -1 0 0
1380 3 99.3271567111568 7.5724074967078 2.5354723914682507 -1 0 0
1535 3 97.45302661080581 10.8184960505098 2.5354723914682515 -1 0 0
1545 4 1.8741195440328222 11.902326318785853 0.07837604693413276 0 0 0
1544 1 3.747518445609419 12.983589938502273 1.3072995602972866 0 0 0
1551 4 5.622379744734822 11.902326318785853 0.07837604693413272 0 0 0
1546 4 3.7482496443838214 15.148414872587853 0.07837604693413414 0 0 0
1705 1 1.8733883452584175 16.229678492304274 1.3072995602972868 0 0 0
1711 1 5.621648545960417 16.229678492304274 1.3072995602972868 0 0 0
1548 3 1.8723914929048033 14.064584604311802 2.535472391468252 0 0 0
1554 3 5.620651693606803 14.064584604311802 2.535472391468252 0 0 0
1550 1 7.495778646311418 12.983589938502273 1.3072995602972866 0 0 0
1557 4 9.370639945436821 11.902326318785853 0.07837604693413262 0 0 0
1556 1 11.244038847013417 12.983589938502273 1.3072995602972863 0 0 0
1552 4 7.4965098450858205 15.148414872587853 0.07837604693413414 0 0 0
1558 4 11.24477004578782 15.148414872587853 0.07837604693413458 0 0 0
1717 1 9.369908746662416 16.229678492304274 1.3072995602972868 0 0 0
1560 3 9.368911894308802 14.064584604311802 2.535472391468252 0 0 0
1563 4 13.118900146138822 11.902326318785855 0.07837604693413346 0 0 0
1569 4 16.867160346840823 11.902326318785853 0.07837604693413228 0 0 0
1562 1 14.992299047715418 12.983589938502273 1.3072995602972863 0 0 0
1723 1 13.118168947364417 16.229678492304274 1.3072995602972872 0 0 0
1564 4 14.993030246489822 15.148414872587853 0.07837604693413412 0 0 0
1729 1 16.866429148066416 16.229678492304274 1.307299560297287 0 0 0
1566 3 13.117172095010803 14.0645846043118 2.5354723914682515 0 0 0
1572 3 16.865432295712804 14.0645846043118 2.5354723914682524 0 0 0
1568 1 18.74055924841742 12.983589938502273 1.3072995602972868 0 0 0
1575 4 20.615420547542822 11.902326318785855 0.0783760469341335 0 0 0
1574 1 22.48881944911942 12.983589938502273 1.3072995602972861 0 0 0
1570 4 18.741290447191822 15.148414872587853 0.07837604693413473 0 0 0
1735 1 20.61468934876842 16.229678492304274 1.307299560297287 0 0 0
1576 4 22.48955064789382 15.148414872587853 0.07837604693413329 0 0 0
1578 3 20.613692496414803 14.0645846043118 2.5354723914682515 0 0 0
1581 4 24.36368074824482 11.902326318785853 0.07837604693413185 0 0 0
1580 1 26.237079649821418 12.983589938502273 1.3072995602972868 0 0 0
1587 4 28.11194094894682 11.902326318785855 0.07837604693413343 0 0 0
1741 1 24.362949549470414 16.229678492304274 1.307299560297287 0 0 0
1582 4 26.23781084859582 15.148414872587853 0.07837604693413475 0 0 0
1747 1 28.111209750172417 16.229678492304274 1.307299560297287 0 0 0
1584 3 24.361952697116802 14.0645846043118 2.535472391468253 0 0 0
1590 3 28.1102128978188 14.0645846043118 2.5354723914682515 0 0 0
1586 1 29.985339850523417 12.983589938502273 1.3072995602972861 0 0 0
1593 4 31.860201149648823 11.902326318785855 0.07837604693413341 0 0 0
1592 1 33.733600051225416 12.983589938502273 1.3072995602972868 0 0 0
1599 4 35.60846135035082 11.902326318785853 0.07837604693413219 0 0 0
1588 4 29.98607104929782 15.148414872587853 0.07837604693413408 0 0 0
1753 1 31.85946995087442 16.229678492304274 1.3072995602972872 0 0 0
1594 4 33.73433124999982 15.148414872587853 0.07837604693413451 0 0 0
1759 1 35.60773015157642 16.229678492304274 1.3072995602972868 0 0 0
1596 3 31.858473098520804 14.0645846043118 2.5354723914682515 0 0 0
1602 3 35.6067332992228 14.0645846043118 2.5354723914682524 0 0 0
1598 1 37.481860251927415 12.983589938502273 1.307299560297286 0 0 0
1605 4 39.35672155105282 11.902326318785855 0.07837604693413316 0 0 0
1604 1 41.230120452629414 12.983589938502275 1.3072995602972872 0 0 0
1600 4 37.48259145070182 15.148414872587853 0.07837604693413361 0 0 0
1765 1 39.35599035227842 16.229678492304274 1.307299560297287 0 0 0
1606 4 41.23085165140382 15.148414872587853 0.07837604693413512 0 0 0
1608 3 39.3549934999248 14.0645846043118 2.535472391468252 0 0 0
1611 4 43.10498175175482 11.902326318785853 0.07837604693413258 0 0 0
1610 1 44.97838065333142 12.983589938502273 1.3072995602972866 0 0 0
1617 4 46.85324195245682 11.902326318785855 0.07837604693413315 0 0 0
1612 4 44.979111852105824 15.148414872587853 0.07837604693413441 0 0 0
1771 1 43.10425055298042 16.229678492304274 1.3072995602972861 0 0 0
1777 1 46.85251075368242 16.229678492304274 1.3072995602972877 0 0 0
1614 3 43.10325370062681 14.064584604311802 2.535472391468252 0 0 0
1620 3 46.85151390132881 14.0645846043118 2.535472391468252 0 0 0
1461 4 50.60150215315882 11.902326318785853 0.07837604693413286 -1 0 0
1616 1 48.72664085403342 12.983589938502273 1.3072995602972866 0 0 0
1460 1 52.47490105473542 12.983589938502273 1.3072995602972866 -1 0 0
1618 4 48.72737205280782 15.148414872587853 0.0783760469341336 0 0 0
1621 1 50.600770954384416 16.229678492304274 1.3072995602972861 -1 0 0
1462 4 52.47563225350982 15.148414872587853 0.07837604693413416 -1 0 0
1464 3 50.59977410203081 14.064584604311802 2.535472391468252 -1 0 0
1467 4 54.34976235386082 11.902326318785853 0.07837604693413276 -1 0 0
1466 1 56.22316125543742 12.983589938502273 1.3072995602972866 -1 0 0
1473 4 58.09802255456282 11.902326318785853 0.07837604693413276 -1 0 0
1627 1 54.349031155086415 16.229678492304274 1.3072995602972868 -1 0 0
1468 4 56.22389245421182 15.148414872587853 0.07837604693413415 -1 0 0
1633 1 58.097291355788414 16.229678492304274 1.3072995602972868 -1 0 0
1470 3 54.348034302732806 14.064584604311802 2.535472391468252 -1 0 0
1476 3 58.096294503434805 14.064584604311802 2.535472391468252 -1 0 0
1472 1 59.97142145613942 12.983589938502273 1.3072995602972866 -1 0 0
1479 4 61.846282755264816 11.902326318785855 0.0783760469341333 -1 0 0
1478 1 63.719681656841416 12.983589938502273 1.307299560297286 -1 0 0
1474 4 59.97215265491382 15.148414872587853 0.07837604693413414 -1 0 0
1639 1 61.84555155649042 16.229678492304274 1.3072995602972874 -1 0 0
1480 4 63.72041285561582 15.148414872587853 0.07837604693413514 -1 0 0
1482 3 61.844554704136804 14.0645846043118 2.535472391468252 -1 0 0
1485 4 65.59454295596682 11.902326318785853 0.07837604693413212 -1 0 0
1484 1 67.46794185754341 12.983589938502273 1.3072995602972866 -1 0 0
1491 4 69.34280315666882 11.902326318785853 0.07837604693413223 -1 0 0
1490 1 71.21620205824541 12.983589938502273 1.3072995602972866 -1 0 0
1486 4 67.46867305631781 15.148414872587852 0.07837604693413246 -1 0 0
1645 1 65.59381175719241 16.229678492304274 1.3072995602972861 -1 0 0
1651 1 69.3420719578944 16.229678492304277 1.3072995602972883 -1 0 0
1492 4 71.21693325701982 15.148414872587853 0.07837604693413444 -1 0 0
1488 3 65.5928149048388 14.064584604311802 2.535472391468253 -1 0 0
1494 3 69.3410751055408 14.0645846043118 2.535472391468253 -1 0 0
1497 4 73.09106335737081 11.902326318785855 0.0783760469341331 -1 0 0
1496 1 74.96446225894742 12.983589938502275 1.307299560297288 -1 0 0
1503 4 76.83932355807282 11.902326318785855 0.07837604693413308 -1 0 0
1498 4 74.96519345772182 15.148414872587853 0.07837604693413476 -1 0 0
1657 1 73.09033215859641 16.229678492304274 1.3072995602972857 -1 0 0
1663 1 76.83859235929842 16.229678492304274 1.307299560297287 -1 0 0
1500 3 73.0893353062428 14.0645846043118 2.535472391468252 -1 0 0
1506 3 76.83759550694481 14.0645846043118 2.535472391468252 -1 0 0
1509 4 80.58758375877483 11.902326318785853 0.07837604693413326 -1 0 0
1502 1 78.71272245964941 12.983589938502273 1.3072995602972854 -1 0 0
1508 1 82.46098266035142 12.983589938502273 1.3072995602972866 -1 0 0
1504 4 78.71345365842382 15.148414872587853 0.07837604693413444 -1 0 0
1669 1 80.58685256000042 16.229678492304274 1.307299560297288 -1 0 0
1510 4 82.46171385912582 15.148414872587853 0.07837604693413443 -1 0 0
1512 3 80.5858557076468 14.0645846043118 2.5354723914682515 -1 0 0
1515 4 84.33584395947682 11.902326318785855 0.07837604693413311 -1 0 0
1521 4 88.08410416017882 11.902326318785855 0.07837604693413339 -1 0 0
1514 1 86.20924286105343 12.983589938502275 1.3072995602972879 -1 0 0
1675 1 84.33511276070242 16.229678492304274 1.3072995602972857 -1 0 0
1516 4 86.20997405982781 15.148414872587853 0.07837604693413487 -1 0 0
1681 1 88.08337296140442 16.229678492304274 1.307299560297287 -1 0 0
1518 3 84.3341159083488 14.0645846043118 2.5354723914682515 -1 0 0
1524 3 88.08237610905081 14.0645846043118 2.5354723914682515 -1 0 0
1527 4 91.83236436088082 11.902326318785853 0.07837604693413083 -1 0 0
1520 1 89.95750306175542 12.983589938502273 1.307299560297285 -1 0 0
1526 1 93.70576326245741 12.983589938502273 1.3072995602972863 -1 0 0
1522 4 89.95823426052982 15.148414872587853 0.07837604693413357 -1 0 0
1687 1 91.83163316210641 16.229678492304274 1.307299560297287 -1 0 0
1528 4 93.70649446123183 15.148414872587853 0.07837604693413326 -1 0 0
1530 3 91.8306363097528 14.064584604311802 2.5354723914682538 -1 0 0
1538 1 101.20228366386142 12.983589938502273 1.3072995602972863 -1 0 0
1540 4 101.20301486263583 15.148414872587853 0.07837604693413487 -1 0 0
1533 4 95.58062456158282 11.902326318785853 0.07837604693413339 -1 0 0
1532 1 97.45402346315942 12.983589938502273 1.3072995602972866 -1 0 0
1539 4 99.32888476228483 11.902326318785855 0.07837604693413425 -1 0 0
1693 1 95.57989336280842 16.229678492304274 1.307299560297288 -1 0 0
1534 4 97.45475466193382 15.148414872587853 0.0783760469341344 -1 0 0
1699 1 99.32815356351041 16.229678492304274 1.3072995602972857 -1 0 0
1536 3 95.5788965104548 14.0645846043118 2.5354723914682515 -1 0 0
1542 3 99.3271567111568 14.0645846043118 2.535472391468251 -1 0 0
1707 4 1.8741195440328224 18.394503426389853 0.07837604693413211 0 0 0
1713 4 5.622379744734822 18.394503426389853 0.07837604693413211 0 0 0
1706 1 3.747518445609419 19.475767046106274 1.3072995602972841 0 0 0
1708 4 3.7482496443838214 21.640591980191854 0.07837604693413149 0 0 0
1867 1 1.8733883452584177 22.721855599908274 1.3072995602972852 0 0 0
1873 1 5.621648545960417 22.721855599908274 1.3072995602972854 0 0 0
1709 3 3.7465215932558027 17.3106731581138 2.5354723914682515 0 0 0
1710 3 1.8723914929048036 20.5567617119158 2.5354723914682515 0 0 0
1716 3 5.620651693606803 20.5567617119158 2.5354723914682515 0 0 0
1719 4 9.37063994543682 18.394503426389853 0.07837604693413205 0 0 0
1712 1 7.495778646311418 19.475767046106274 1.3072995602972841 0 0 0
1718 1 11.244038847013417 19.475767046106274 1.307299560297284 0 0 0
1714 4 7.4965098450858205 21.640591980191854 0.07837604693413142 0 0 0
1720 4 11.24477004578782 21.640591980191854 0.07837604693413186 0 0 0
1879 1 9.369908746662416 22.721855599908274 1.3072995602972852 0 0 0
1715 3 7.494781793957802 17.3106731581138 2.5354723914682515 0 0 0
1721 3 11.243041994659801 17.3106731581138 2.535472391468251 0 0 0
1722 3 9.368911894308802 20.5567617119158 2.5354723914682515 0 0 0
1725 4 13.118900146138822 18.394503426389853 0.07837604693413289 0 0 0
1731 4 16.867160346840823 18.394503426389853 0.07837604693413182 0 0 0
1724 1 14.992299047715418 19.475767046106274 1.3072995602972841 0 0 0
1726 4 14.993030246489822 21.640591980191854 0.07837604693413142 0 0 0
1885 1 13.118168947364417 22.721855599908274 1.3072995602972854 0 0 0
1891 1 16.866429148066416 22.721855599908274 1.307299560297285 0 0 0
1727 3 14.991302195361802 17.3106731581138 2.5354723914682515 0 0 0
1728 3 13.117172095010803 20.5567617119158 2.535472391468251 0 0 0