LAMMPS data file via write_data, version 29 Aug 2024, timestep = 2, units = metal

7020 atoms
9 atom types

0 98.368880854296 xlo xhi
0 98.29609587882 ylo yhi
-50 50 zlo zhi

Masses

1 58.6934
2 58.6934
3 58.6934
4 127.6
5 127.6
6 127.6
7 127.6
8 127.6
9 127.6

Atoms # atomic

1176 5 1.891709247198002 2.184337649894159 0.03872059789098525 0 0 0
1327 1 4.379372915730494e-15 3.275055868687046 1.3534429721756072 0 0 0
1333 1 3.7834184943960025 3.2750558686870463 1.3534429721756076 0 0 0
1182 5 5.675127741594003 2.184337649894159 0.0387205978909852 0 0 0
1331 5 5.45447491211166e-16 5.460874179188159 0.038720597890984636 0 0 0
1337 5 3.7834184943960025 5.46087417918816 0.03872059789098478 0 0 0
1174 4 8.830826343986676e-16 1.087629618392743 2.6674895829022574 0 0 0
1180 4 3.7834184943960025 1.0876296183927423 2.667489582902257 0 0 0
1329 4 1.891709247198002 4.364166147686743 2.667489582902257 0 0 0
1335 4 5.675127741594003 4.364166147686743 2.667489582902257 0 0 0
1339 1 7.566836988792002 3.2750558686870463 1.3534429721756076 0 0 0
1188 5 9.458546235990001 2.1843376498941587 0.03872059789098464 0 0 0
1345 1 11.350255483188 3.2750558686870463 1.3534429721756076 0 0 0
1343 5 7.566836988792003 5.460874179188159 0.03872059789098382 0 0 0
1349 5 11.350255483188 5.46087417918816 0.03872059789098458 0 0 0
1186 4 7.566836988792003 1.0876296183927432 2.6674895829022582 0 0 0
1192 4 11.350255483188 1.0876296183927425 2.6674895829022574 0 0 0
1341 4 9.458546235990001 4.364166147686744 2.667489582902258 0 0 0
1194 5 13.241964730386002 2.184337649894159 0.0387205978909853 0 0 0
1351 1 15.133673977584001 3.2750558686870463 1.3534429721756074 0 0 0
1200 5 17.025383224782 2.184337649894159 0.03872059789098541 0 0 0
1355 5 15.133673977584001 5.460874179188159 0.03872059789098395 0 0 0
1198 4 15.133673977584001 1.087629618392743 2.667489582902258 0 0 0
1347 4 13.241964730386002 4.364166147686743 2.667489582902257 0 0 0
1353 4 17.025383224782 4.364166147686742 2.667489582902257 0 0 0
1357 1 18.917092471980002 3.2750558686870463 1.3534429721756074 0 0 0
1206 5 20.808801719178003 2.1843376498941596 0.03872059789098564 0 0 0
1363 1 22.700510966376005 3.2750558686870463 1.3534429721756076 0 0 0
1361 5 18.917092471980002 5.46087417918816 0.038720597890984844 0 0 0
1367 5 22.700510966376005 5.460874179188159 0.03872059789098453 0 0 0
1204 4 18.917092471980002 1.0876296183927423 2.667489582902257 0 0 0
1210 4 22.700510966376005 1.0876296183927425 2.6674895829022574 0 0 0
1359 4 20.808801719178003 4.364166147686743 2.6674895829022565 0 0 0
1212 5 24.592220213574002 2.1843376498941582 0.03872059789098402 0 0 0
1369 1 26.483929460772 3.2750558686870463 1.3534429721756076 0 0 0
1218 5 28.37563870797 2.1843376498941596 0.03872059789098567 0 0 0
1373 5 26.483929460772 5.460874179188159 0.03872059789098451 0 0 0
1216 4 26.483929460772 1.0876296183927427 2.6674895829022574 0 0 0
1365 4 24.592220213574002 4.364166147686744 2.6674895829022582 0 0 0
1371 4 28.37563870797 4.364166147686743 2.6674895829022565 0 0 0
1375 1 30.267347955168002 3.2750558686870463 1.3534429721756076 0 0 0
1224 5 32.159057202366 2.184337649894159 0.038720597890985226 0 0 0
1381 1 34.050766449564 3.2750558686870463 1.3534429721756076 0 0 0
1379 5 30.267347955168002 5.46087417918816 0.03872059789098489 0 0 0
1385 5 34.050766449564 5.460874179188158 0.03872059789098331 0 0 0
1222 4 30.267347955168002 1.0876296183927423 2.667489582902257 0 0 0
1228 4 34.050766449564 1.0876296183927436 2.6674895829022587 0 0 0
1377 4 32.159057202366 4.364166147686743 2.667489582902257 0 0 0
1230 5 35.942475696762 2.184337649894159 0.03872059789098523 0 0 0
1387 1 37.834184943960004 3.2750558686870463 1.3534429721756076 0 0 0
1236 5 39.725894191158005 2.1843376498941596 0.038720597890985586 0 0 0
1391 5 37.83418494396 5.46087417918816 0.03872059789098489 0 0 0
1234 4 37.83418494396 1.0876296183927423 2.667489582902257 0 0 0
1383 4 35.942475696762 4.364166147686743 2.667489582902257 0 0 0
1389 4 39.725894191158005 4.364166147686743 2.6674895829022565 0 0 0
1393 1 41.61760343835601 3.2750558686870463 1.3534429721756074 0 0 0
1242 5 43.50931268555401 2.1843376498941596 0.03872059789098566 0 0 0
1399 1 45.401021932752 3.2750558686870463 1.3534429721756076 0 0 0
1397 5 41.617603438356 5.46087417918816 0.03872059789098481 0 0 0
1403 5 45.401021932752 5.460874179188159 0.0387205978909845 0 0 0
1240 4 41.617603438356 1.0876296183927423 2.667489582902257 0 0 0
1246 4 45.401021932752 1.0876296183927427 2.6674895829022574 0 0 0
1395 4 43.50931268555401 4.364166147686743 2.6674895829022565 0 0 0
1248 5 47.29273117995 2.1843376498941582 0.03872059789098421 0 0 0
1249 1 49.184440427148004 3.2750558686870463 1.3534429721756076 -1 0 0
1098 5 51.076149674346 2.184337649894159 0.03872059789098502 -1 0 0
1253 5 49.184440427148 5.460874179188159 0.038720597890983637 -1 0 0
1096 4 49.184440427148 1.0876296183927432 2.6674895829022582 -1 0 0
1401 4 47.29273117995 4.364166147686744 2.6674895829022582 0 0 0
1251 4 51.076149674346 4.364166147686743 2.667489582902257 -1 0 0
1255 1 52.967858921544 3.2750558686870463 1.3534429721756076 -1 0 0
1104 5 54.859568168742 2.1843376498941587 0.03872059789098492 -1 0 0
1261 1 56.75127741594 3.2750558686870463 1.3534429721756076 -1 0 0
1259 5 52.967858921544 5.460874179188159 0.038720597890984275 -1 0 0
1265 5 56.751277415939995 5.460874179188159 0.03872059789098414 -1 0 0
1102 4 52.967858921544 1.0876296183927427 2.6674895829022574 -1 0 0
1108 4 56.751277415939995 1.087629618392743 2.667489582902258 -1 0 0
1257 4 54.859568168742 4.364166147686744 2.6674895829022574 -1 0 0
1110 5 58.642986663138 2.184337649894159 0.038720597890985 -1 0 0
1267 1 60.534695910336 3.2750558686870463 1.3534429721756076 -1 0 0
1116 5 62.426405157534 2.1843376498941596 0.03872059789098555 -1 0 0
1271 5 60.534695910336 5.46087417918816 0.03872059789098474 -1 0 0
1114 4 60.534695910336 1.0876296183927423 2.667489582902257 -1 0 0
1263 4 58.642986663138 4.364166147686743 2.667489582902257 -1 0 0
1269 4 62.426405157534 4.364166147686743 2.6674895829022565 -1 0 0
1273 1 64.318114404732 3.2750558686870463 1.3534429721756076 -1 0 0
1122 5 66.20982365193 2.184337649894158 0.03872059789098419 -1 0 0
1279 1 68.101532899128 3.2750558686870463 1.3534429721756076 -1 0 0
1277 5 64.318114404732 5.460874179188159 0.0387205978909837 -1 0 0
1283 5 68.10153289912799 5.46087417918816 0.038720597890984816 -1 0 0
1120 4 64.318114404732 1.0876296183927432 2.6674895829022582 -1 0 0
1126 4 68.10153289912799 1.0876296183927423 2.667489582902257 -1 0 0
1275 4 66.20982365193 4.364166147686744 2.6674895829022582 -1 0 0
1128 5 69.993242146326 2.18433764989416 0.03872059789098593 -1 0 0
1285 1 71.88495139352399 3.2750558686870463 1.3534429721756076 -1 0 0
1134 5 73.776660640722 2.1843376498941587 0.038720597890985205 -1 0 0
1289 5 71.884951393524 5.46087417918816 0.038720597890984816 -1 0 0
1132 4 71.884951393524 1.0876296183927423 2.667489582902257 -1 0 0
1281 4 69.993242146326 4.364166147686742 2.6674895829022565 -1 0 0
1287 4 73.776660640722 4.364166147686744 2.667489582902257 -1 0 0
1291 1 75.66836988792001 3.2750558686870463 1.3534429721756076 -1 0 0
1140 5 77.560079135118 2.184337649894159 0.03872059789098471 -1 0 0
1297 1 79.451788382316 3.2750558686870463 1.3534429721756074 -1 0 0
1295 5 75.66836988792 5.460874179188159 0.03872059789098398 -1 0 0
1301 5 79.451788382316 5.460874179188159 0.03872059789098443 -1 0 0
1138 4 75.66836988792 1.0876296183927427 2.6674895829022582 -1 0 0
1144 4 79.451788382316 1.0876296183927432 2.667489582902257 -1 0 0
1293 4 77.560079135118 4.364166147686743 2.667489582902258 -1 0 0
1146 5 81.34349762951399 2.1843376498941596 0.038720597890985725 -1 0 0
1303 1 83.235206876712 3.2750558686870463 1.3534429721756076 -1 0 0
1152 5 85.12691612391 2.1843376498941582 0.03872059789098373 -1 0 0
1307 5 83.235206876712 5.46087417918816 0.03872059789098556 -1 0 0
1150 4 83.235206876712 1.0876296183927416 2.6674895829022565 -1 0 0
1299 4 81.34349762951399 4.364166147686743 2.667489582902257 -1 0 0
1305 4 85.12691612391 4.364166147686744 2.6674895829022582 -1 0 0
1309 1 87.018625371108 3.2750558686870463 1.3534429721756076 -1 0 0
1158 5 88.910334618306 2.1843376498941605 0.0387205978909863 -1 0 0
1315 1 90.80204386550399 3.2750558686870463 1.3534429721756076 -1 0 0
1313 5 87.018625371108 5.460874179188158 0.038720597890983074 -1 0 0
1319 5 90.802043865504 5.46087417918816 0.038720597890984955 -1 0 0
1156 4 87.018625371108 1.0876296183927436 2.6674895829022587 -1 0 0
1162 4 90.802043865504 1.0876296183927423 2.667489582902257 -1 0 0
1311 4 88.910334618306 4.364166147686741 2.667489582902256 -1 0 0
1164 5 92.693753112702 2.1843376498941587 0.03872059789098521 -1 0 0
1321 1 94.5854623599 3.2750558686870463 1.3534429721756076 -1 0 0
1170 5 96.477171607098 2.184337649894159 0.03872059789098495 -1 0 0
1325 5 94.58546235989999 5.460874179188159 0.03872059789098394 -1 0 0
1168 4 94.58546235989999 1.0876296183927427 2.6674895829022582 -1 0 0
1317 4 92.693753112702 4.364166147686744 2.667489582902257 -1 0 0
1323 4 96.477171607098 4.364166147686743 2.667489582902258 -1 0 0
1328 1 1.8917092471980015 6.551592397981047 1.3534429721756074 0 0 0
1334 1 5.675127741594004 6.551592397981047 1.3534429721756074 0 0 0
1332 5 1.891709247198002 8.73741070848216 0.03872059789098518 0 0 0
1338 5 5.675127741594003 8.73741070848216 0.038720597890985135 0 0 0
1483 1 4.382937092645977e-15 9.828128927275046 1.3534429721756076 0 0 0
1489 1 3.7834184943960025 9.828128927275046 1.3534429721756078 0 0 0
1330 4 7.820962085591871e-16 7.640702676980744 2.6674895829022565 0 0 0
1336 4 3.7834184943960025 7.640702676980743 2.667489582902256 0 0 0
1485 4 1.891709247198002 10.917239206274742 2.667489582902257 0 0 0
1491 4 5.675127741594003 10.917239206274742 2.6674895829022565 0 0 0
1340 1 9.458546235990003 6.551592397981046 1.3534429721756074 0 0 0
1344 5 9.458546235990001 8.737410708482159 0.038720597890984434 0 0 0
1495 1 7.566836988792002 9.828128927275046 1.3534429721756078 0 0 0
1501 1 11.350255483188 9.828128927275046 1.353442972175608 0 0 0
1342 4 7.566836988792003 7.640702676980744 2.667489582902257 0 0 0
1348 4 11.350255483188 7.640702676980743 2.6674895829022565 0 0 0
1497 4 9.458546235990001 10.917239206274743 2.6674895829022574 0 0 0
1346 1 13.241964730386002 6.551592397981047 1.3534429721756074 0 0 0
1352 1 17.025383224782 6.551592397981046 1.3534429721756076 0 0 0
1350 5 13.241964730386002 8.73741070848216 0.03872059789098518 0 0 0
1356 5 17.025383224782 8.73741070848216 0.03872059789098517 0 0 0
1507 1 15.133673977584001 9.828128927275046 1.3534429721756078 0 0 0
1354 4 15.133673977584001 7.640702676980744 2.6674895829022574 0 0 0
1503 4 13.241964730386002 10.917239206274742 2.6674895829022565 0 0 0
1509 4 17.025383224782 10.917239206274742 2.6674895829022565 0 0 0
1358 1 20.808801719178003 6.551592397981046 1.3534429721756074 0 0 0
1362 5 20.808801719178003 8.737410708482159 0.038720597890985455 0 0 0
1513 1 18.917092471980002 9.828128927275046 1.3534429721756076 0 0 0
1519 1 22.700510966376005 9.828128927275046 1.3534429721756076 0 0 0
1360 4 18.917092471980002 7.640702676980743 2.667489582902256 0 0 0
1366 4 22.700510966376005 7.640702676980743 2.6674895829022565 0 0 0
1515 4 20.808801719178003 10.917239206274742 2.6674895829022565 0 0 0
1364 1 24.592220213574002 6.551592397981046 1.3534429721756074 0 0 0
1370 1 28.37563870797 6.551592397981046 1.3534429721756074 0 0 0
1368 5 24.592220213574002 8.737410708482159 0.03872059789098387 0 0 0
1374 5 28.37563870797 8.737410708482159 0.03872059789098549 0 0 0
1525 1 26.483929460772 9.828128927275046 1.3534429721756078 0 0 0
1372 4 26.483929460772 7.640702676980743 2.6674895829022565 0 0 0
1521 4 24.592220213574002 10.917239206274743 2.667489582902258 0 0 0
1527 4 28.37563870797 10.917239206274742 2.6674895829022565 0 0 0
1376 1 32.159057202366 6.551592397981046 1.3534429721756074 0 0 0
1380 5 32.159057202366 8.73741070848216 0.03872059789098501 0 0 0
1531 1 30.267347955168002 9.828128927275046 1.3534429721756078 0 0 0
1537 1 34.050766449564 9.828128927275046 1.3534429721756078 0 0 0
1378 4 30.267347955168002 7.640702676980743 2.667489582902256 0 0 0
1384 4 34.050766449564 7.640702676980744 2.6674895829022574 0 0 0
1533 4 32.159057202366 10.917239206274742 2.667489582902257 0 0 0
1382 1 35.942475696762 6.551592397981046 1.3534429721756074 0 0 0
1388 1 39.725894191158005 6.551592397981046 1.3534429721756076 0 0 0
1386 5 35.942475696762 8.73741070848216 0.03872059789098501 0 0 0
1392 5 39.725894191158005 8.737410708482159 0.038720597890985406 0 0 0
1543 1 37.834184943960004 9.828128927275046 1.3534429721756078 0 0 0
1390 4 37.83418494396 7.640702676980743 2.667489582902256 0 0 0
1539 4 35.942475696762 10.917239206274743 2.667489582902257 0 0 0
1545 4 39.725894191158005 10.917239206274742 2.6674895829022565 0 0 0
1394 1 43.509312685554 6.551592397981046 1.3534429721756074 0 0 0
1398 5 43.50931268555401 8.737410708482159 0.038720597890985475 0 0 0
1549 1 41.617603438356 9.828128927275046 1.3534429721756076 0 0 0
1555 1 45.401021932752 9.828128927275046 1.3534429721756078 0 0 0
1396 4 41.617603438356 7.640702676980743 2.667489582902256 0 0 0
1402 4 45.401021932752 7.640702676980743 2.6674895829022565 0 0 0
1551 4 43.50931268555401 10.917239206274742 2.6674895829022565 0 0 0
1400 1 47.29273117995 6.551592397981046 1.3534429721756074 0 0 0
1250 1 51.076149674346 6.551592397981046 1.3534429721756074 -1 0 0
1404 5 47.29273117995 8.737410708482159 0.0387205978909839 0 0 0
1254 5 51.076149674346 8.73741070848216 0.038720597890984906 -1 0 0
1405 1 49.184440427148004 9.828128927275046 1.353442972175608 -1 0 0
1252 4 49.184440427148 7.640702676980744 2.6674895829022574 -1 0 0
1557 4 47.29273117995 10.917239206274743 2.667489582902258 0 0 0
1407 4 51.076149674346 10.917239206274742 2.667489582902257 -1 0 0
1256 1 54.859568168741994 6.551592397981046 1.3534429721756074 -1 0 0
1260 5 54.859568168742 8.737410708482159 0.03872059789098464 -1 0 0
1411 1 52.967858921544 9.828128927275046 1.353442972175608 -1 0 0
1417 1 56.75127741594 9.828128927275046 1.353442972175608 -1 0 0
1258 4 52.967858921544 7.640702676980743 2.667489582902257 -1 0 0
1264 4 56.751277415939995 7.640702676980744 2.667489582902257 -1 0 0
1413 4 54.859568168742 10.917239206274743 2.667489582902257 -1 0 0
1262 1 58.642986663138 6.551592397981047 1.3534429721756074 -1 0 0
1268 1 62.426405157534 6.551592397981046 1.3534429721756074 -1 0 0
1266 5 58.642986663138 8.73741070848216 0.03872059789098488 -1 0 0
1272 5 62.426405157534 8.73741070848216 0.0387205978909855 -1 0 0
1423 1 60.534695910336 9.828128927275046 1.3534429721756078 -1 0 0
1270 4 60.534695910336 7.640702676980743 2.667489582902256 -1 0 0
1419 4 58.642986663138 10.917239206274742 2.667489582902257 -1 0 0
1425 4 62.426405157534 10.917239206274742 2.6674895829022565 -1 0 0
1274 1 66.20982365193 6.551592397981046 1.3534429721756076 -1 0 0
1278 5 66.20982365193 8.737410708482157 0.03872059789098393 -1 0 0
1429 1 64.318114404732 9.828128927275046 1.3534429721756078 -1 0 0
1435 1 68.101532899128 9.828128927275046 1.3534429721756078 -1 0 0
1276 4 64.318114404732 7.640702676980744 2.6674895829022574 -1 0 0
1282 4 68.10153289912799 7.640702676980743 2.667489582902256 -1 0 0
1431 4 66.20982365193 10.917239206274743 2.667489582902258 -1 0 0
1280 1 69.993242146326 6.551592397981047 1.3534429721756074 -1 0 0
1286 1 73.776660640722 6.551592397981046 1.3534429721756076 -1 0 0
1284 5 69.993242146326 8.73741070848216 0.03872059789098583 -1 0 0
1290 5 73.776660640722 8.737410708482159 0.03872059789098496 -1 0 0
1441 1 71.88495139352399 9.828128927275046 1.3534429721756078 -1 0 0
1288 4 71.884951393524 7.640702676980743 2.667489582902256 -1 0 0
1437 4 69.993242146326 10.917239206274742 2.667489582902256 -1 0 0
1443 4 73.776660640722 10.917239206274743 2.6674895829022565 -1 0 0
1292 1 77.56007913511799 6.551592397981046 1.3534429721756074 -1 0 0
1296 5 77.560079135118 8.73741070848216 0.03872059789098449 -1 0 0
1447 1 75.66836988792001 9.828128927275046 1.3534429721756078 -1 0 0
1453 1 79.451788382316 9.828128927275046 1.3534429721756078 -1 0 0
1294 4 75.66836988792 7.640702676980743 2.667489582902257 -1 0 0
1300 4 79.451788382316 7.640702676980744 2.6674895829022565 -1 0 0
1449 4 77.560079135118 10.917239206274743 2.6674895829022574 -1 0 0
1298 1 81.343497629514 6.551592397981046 1.3534429721756074 -1 0 0
1304 1 85.12691612391 6.551592397981046 1.3534429721756076 -1 0 0
1302 5 81.34349762951399 8.737410708482159 0.03872059789098553 -1 0 0
1308 5 85.12691612391 8.737410708482157 0.03872059789098361 -1 0 0
1459 1 83.235206876712 9.828128927275046 1.3534429721756078 -1 0 0
1306 4 83.235206876712 7.640702676980742 2.6674895829022556 -1 0 0
1455 4 81.34349762951399 10.917239206274742 2.6674895829022565 -1 0 0
1461 4 85.12691612391 10.917239206274743 2.6674895829022582 -1 0 0
1310 1 88.910334618306 6.551592397981046 1.3534429721756074 -1 0 0
1314 5 88.910334618306 8.73741070848216 0.03872059789098618 -1 0 0
1465 1 87.018625371108 9.828128927275046 1.3534429721756076 -1 0 0
1471 1 90.80204386550399 9.828128927275046 1.3534429721756078 -1 0 0
1312 4 87.018625371108 7.640702676980744 2.667489582902258 -1 0 0
1318 4 90.802043865504 7.640702676980743 2.667489582902256 -1 0 0
1467 4 88.910334618306 10.917239206274742 2.6674895829022556 -1 0 0
1316 1 92.693753112702 6.551592397981046 1.3534429721756076 -1 0 0
1322 1 96.47717160709799 6.551592397981046 1.3534429721756074 -1 0 0
1320 5 92.693753112702 8.737410708482159 0.03872059789098495 -1 0 0
1326 5 96.477171607098 8.73741070848216 0.0387205978909847 -1 0 0
1477 1 94.5854623599 9.828128927275046 1.3534429721756078 -1 0 0
1324 4 94.58546235989999 7.640702676980743 2.667489582902257 -1 0 0
1473 4 92.693753112702 10.917239206274743 2.667489582902257 -1 0 0
1479 4 96.477171607098 10.917239206274743 2.6674895829022574 -1 0 0
1487 5 5.778690987762896e-16 12.01394723777616 0.03872059789098457 0 0 0
1484 1 1.8917092471980015 13.104665456569045 1.353442972175608 0 0 0
1493 5 3.7834184943960025 12.01394723777616 0.038720597890984726 0 0 0
1490 1 5.675127741594004 13.104665456569045 1.353442972175608 0 0 0
1488 5 1.891709247198002 15.290483767070159 0.038720597890984476 0 0 0
1494 5 5.675127741594003 15.290483767070159 0.03872059789098438 0 0 0
1639 1 4.569491800027747e-15 16.381201985863047 1.353442972175607 0 0 0
1645 1 3.7834184943960025 16.381201985863047 1.3534429721756074 0 0 0
1486 4 8.835292103444622e-16 14.19377573556874 2.667489582902257 0 0 0
1492 4 3.7834184943960025 14.193775735568742 2.667489582902257 0 0 0
1499 5 7.566836988792003 12.013947237776158 0.03872059789098366 0 0 0
1496 1 9.458546235990001 13.104665456569045 1.353442972175608 0 0 0
1505 5 11.350255483188 12.01394723777616 0.03872059789098448 0 0 0
1500 5 9.458546235990001 15.290483767070159 0.03872059789098383 0 0 0
1651 1 7.566836988792002 16.381201985863047 1.3534429721756072 0 0 0
1657 1 11.350255483188 16.381201985863047 1.3534429721756074 0 0 0
1498 4 7.566836988792003 14.193775735568742 2.667489582902258 0 0 0
1504 4 11.350255483188 14.193775735568742 2.667489582902257 0 0 0
1502 1 13.241964730386002 13.104665456569045 1.353442972175608 0 0 0
1511 5 15.133673977584001 12.013947237776158 0.03872059789098395 0 0 0
1508 1 17.025383224782 13.104665456569045 1.3534429721756078 0 0 0
1506 5 13.241964730386002 15.290483767070159 0.038720597890984476 0 0 0
1512 5 17.025383224782 15.290483767070159 0.03872059789098457 0 0 0
1663 1 15.133673977584001 16.381201985863047 1.3534429721756074 0 0 0
1510 4 15.133673977584001 14.193775735568742 2.667489582902258 0 0 0
1517 5 18.917092471980002 12.01394723777616 0.0387205978909847 0 0 0
1514 1 20.808801719178003 13.104665456569045 1.353442972175608 0 0 0
1523 5 22.700510966376005 12.01394723777616 0.03872059789098435 0 0 0
1518 5 20.808801719178003 15.290483767070159 0.03872059789098441 0 0 0
1669 1 18.917092471980002 16.381201985863047 1.3534429721756074 0 0 0
1675 1 22.700510966376 16.381201985863047 1.3534429721756072 0 0 0
1516 4 18.917092471980002 14.193775735568742 2.667489582902257 0 0 0
1522 4 22.700510966376005 14.193775735568742 2.667489582902257 0 0 0
1520 1 24.592220213574002 13.104665456569045 1.353442972175608 0 0 0
1529 5 26.483929460772 12.01394723777616 0.03872059789098433 0 0 0
1526 1 28.37563870797 13.104665456569045 1.353442972175608 0 0 0
1524 5 24.592220213574002 15.290483767070159 0.0387205978909838 0 0 0
1530 5 28.37563870797 15.290483767070159 0.03872059789098444 0 0 0
1681 1 26.483929460772003 16.381201985863047 1.3534429721756072 0 0 0
1528 4 26.483929460772 14.193775735568742 2.667489582902257 0 0 0
1535 5 30.267347955168002 12.01394723777616 0.03872059789098475 0 0 0
1532 1 32.159057202366 13.104665456569045 1.353442972175608 0 0 0
1541 5 34.050766449564 12.013947237776158 0.03872059789098318 0 0 0
1536 5 32.159057202366 15.290483767070159 0.03872059789098432 0 0 0
1687 1 30.267347955168002 16.381201985863047 1.3534429721756074 0 0 0
1693 1 34.050766449564 16.381201985863047 1.353442972175607 0 0 0
1534 4 30.267347955168002 14.193775735568742 2.667489582902257 0 0 0
1540 4 34.050766449564 14.193775735568742 2.6674895829022582 0 0 0
1538 1 35.942475696762 13.104665456569045 1.353442972175608 0 0 0
1547 5 37.83418494396 12.01394723777616 0.03872059789098474 0 0 0
1544 1 39.725894191158005 13.104665456569045 1.353442972175608 0 0 0
1542 5 35.942475696762 15.290483767070159 0.038720597890984323 0 0 0
1548 5 39.725894191158005 15.290483767070159 0.038720597890984726 0 0 0
1699 1 37.834184943960004 16.381201985863047 1.3534429721756074 0 0 0
1546 4 37.83418494396 14.19377573556874 2.667489582902257 0 0 0
1553 5 41.617603438356 12.01394723777616 0.03872059789098465 0 0 0
1550 1 43.509312685554 13.104665456569045 1.353442972175608 0 0 0
1559 5 45.401021932752 12.01394723777616 0.038720597890984386 0 0 0
1554 5 43.50931268555401 15.29048376707016 0.038720597890984795 0 0 0
1705 1 41.61760343835601 16.381201985863047 1.3534429721756074 0 0 0
1711 1 45.401021932752 16.381201985863047 1.3534429721756072 0 0 0
1552 4 41.617603438356 14.193775735568742 2.667489582902257 0 0 0
1558 4 45.401021932752 14.193775735568742 2.667489582902257 0 0 0
1556 1 47.29273117995 13.104665456569045 1.353442972175608 0 0 0
1409 5 49.184440427148 12.01394723777616 0.03872059789098351 -1 0 0
1406 1 51.076149674346 13.104665456569045 1.353442972175608 -1 0 0
1560 5 47.29273117995 15.290483767070159 0.03872059789098328 0 0 0
1410 5 51.076149674346 15.290483767070159 0.03872059789098421 -1 0 0
1561 1 49.184440427148004 16.381201985863047 1.3534429721756072 -1 0 0
1408 4 49.184440427148 14.193775735568742 2.667489582902258 -1 0 0
1415 5 52.967858921544 12.01394723777616 0.03872059789098416 -1 0 0
1412 1 54.859568168741994 13.104665456569045 1.353442972175608 -1 0 0
1421 5 56.751277415939995 12.013947237776158 0.038720597890984 -1 0 0
1416 5 54.859568168742 15.290483767070159 0.038720597890984074 -1 0 0
1567 1 52.967858921544 16.381201985863047 1.3534429721756074 -1 0 0
1573 1 56.75127741594 16.381201985863047 1.3534429721756072 -1 0 0
1414 4 52.967858921544 14.193775735568742 2.6674895829022574 -1 0 0
1420 4 56.751277415939995 14.193775735568742 2.6674895829022574 -1 0 0
1418 1 58.642986663138 13.104665456569045 1.353442972175608 -1 0 0
1427 5 60.534695910336 12.01394723777616 0.038720597890984684 -1 0 0
1424 1 62.426405157534 13.104665456569045 1.353442972175608 -1 0 0
1422 5 58.642986663138 15.290483767070159 0.03872059789098417 -1 0 0
1428 5 62.426405157534 15.29048376707016 0.0387205978909848 -1 0 0
1579 1 60.534695910336 16.381201985863047 1.3534429721756074 -1 0 0
1426 4 60.534695910336 14.193775735568742 2.667489582902257 -1 0 0
1433 5 64.318114404732 12.01394723777616 0.038720597890983546 -1 0 0
1430 1 66.20982365193 13.104665456569045 1.353442972175608 -1 0 0
1439 5 68.10153289912799 12.01394723777616 0.038720597890984663 -1 0 0
1434 5 66.20982365193 15.290483767070159 0.0387205978909833 -1 0 0
1585 1 64.318114404732 16.381201985863047 1.3534429721756072 -1 0 0
1591 1 68.101532899128 16.381201985863047 1.3534429721756072 -1 0 0
1432 4 64.318114404732 14.193775735568742 2.667489582902258 -1 0 0
1438 4 68.10153289912799 14.193775735568742 2.667489582902257 -1 0 0
1436 1 69.993242146326 13.104665456569045 1.353442972175608 -1 0 0
1445 5 71.884951393524 12.01394723777616 0.03872059789098466 -1 0 0
1442 1 73.776660640722 13.104665456569045 1.353442972175608 -1 0 0
1440 5 69.993242146326 15.29048376707016 0.038720597890985205 -1 0 0
1446 5 73.776660640722 15.290483767070159 0.03872059789098428 -1 0 0
1597 1 71.88495139352399 16.381201985863047 1.3534429721756072 -1 0 0
1444 4 71.884951393524 14.193775735568742 2.667489582902257 -1 0 0
1451 5 75.66836988792 12.01394723777616 0.03872059789098382 -1 0 0
1448 1 77.56007913511799 13.104665456569045 1.353442972175608 -1 0 0
1457 5 79.451788382316 12.01394723777616 0.03872059789098437 -1 0 0
1452 5 77.560079135118 15.290483767070159 0.038720597890983796 -1 0 0
1603 1 75.66836988792001 16.381201985863047 1.3534429721756074 -1 0 0
1609 1 79.451788382316 16.381201985863047 1.353442972175607 -1 0 0
1450 4 75.66836988792 14.193775735568742 2.6674895829022574 -1 0 0
1456 4 79.451788382316 14.193775735568742 2.667489582902257 -1 0 0
1454 1 81.343497629514 13.104665456569045 1.353442972175608 -1 0 0
1463 5 83.235206876712 12.01394723777616 0.03872059789098548 -1 0 0
1460 1 85.12691612391 13.104665456569045 1.3534429721756078 -1 0 0
1458 5 81.34349762951399 15.29048376707016 0.038720597890984844 -1 0 0
1464 5 85.12691612391 15.290483767070159 0.03872059789098298 -1 0 0
1615 1 83.235206876712 16.381201985863047 1.3534429721756072 -1 0 0
1462 4 83.235206876712 14.19377573556874 2.6674895829022565 -1 0 0
1469 5 87.018625371108 12.013947237776158 0.03872059789098295 -1 0 0
1466 1 88.910334618306 13.104665456569045 1.353442972175608 -1 0 0
1475 5 90.802043865504 12.01394723777616 0.03872059789098478 -1 0 0
1470 5 88.910334618306 15.29048376707016 0.03872059789098537 -1 0 0
1621 1 87.018625371108 16.381201985863047 1.353442972175607 -1 0 0
1627 1 90.80204386550399 16.381201985863047 1.3534429721756072 -1 0 0
1468 4 87.018625371108 14.193775735568742 2.6674895829022587 -1 0 0
1474 4 90.802043865504 14.19377573556874 2.6674895829022565 -1 0 0
1472 1 92.693753112702 13.104665456569045 1.353442972175608 -1 0 0
1481 5 94.58546235989999 12.01394723777616 0.03872059789098378 -1 0 0
1478 1 96.47717160709799 13.104665456569045 1.3534429721756078 -1 0 0
1476 5 92.693753112702 15.290483767070159 0.03872059789098428 -1 0 0
1482 5 96.477171607098 15.290483767070159 0.03872059789098407 -1 0 0
1633 1 94.5854623599 16.381201985863047 1.3534429721756074 -1 0 0
1480 4 94.58546235989999 14.193775735568742 2.667489582902258 -1 0 0
1643 5 6.38408305373768e-16 18.56702029636416 0.038720597890985184 0 0 0
1649 5 3.7834184943960025 18.56702029636416 0.03872059789098535 0 0 0
1640 1 1.8917092471980015 19.657738515157046 1.3534429721756076 0 0 0
1646 1 5.675127741594004 19.657738515157046 1.3534429721756076 0 0 0
1644 5 1.891709247198002 21.84355682565816 0.038720597890985205 0 0 0
1795 1 4.3878283514225304e-15 22.934275044451045 1.3534429721756078 0 0 0
1801 1 3.7834184943960025 22.934275044451045 1.3534429721756076 0 0 0
1650 5 5.675127741594003 21.84355682565816 0.038720597890985135 0 0 0
1641 4 1.891709247198002 17.470312264862745 2.6674895829022565 0 0 0
1647 4 5.675127741594003 17.470312264862745 2.6674895829022565 0 0 0
1642 4 8.691726067827545e-16 20.746848794156744 2.6674895829022565 0 0 0
1648 4 3.7834184943960025 20.746848794156744 2.6674895829022565 0 0 0
1655 5 7.566836988792003 18.56702029636416 0.038720597890984414 0 0 0
1661 5 11.350255483188 18.56702029636416 0.038720597890985115 0 0 0
1652 1 9.458546235990003 19.657738515157046 1.3534429721756076 0 0 0
1807 1 7.566836988792002 22.934275044451045 1.353442972175608 0 0 0
1656 5 9.458546235990001 21.84355682565816 0.038720597890984476 0 0 0
1813 1 11.350255483188 22.934275044451045 1.3534429721756078 0 0 0
1653 4 9.458546235990001 17.470312264862745 2.6674895829022574 0 0 0
1654 4 7.566836988792003 20.746848794156744 2.667489582902257 0 0 0
1660 4 11.350255483188 20.746848794156744 2.667489582902256 0 0 0
1667 5 15.133673977584001 18.56702029636416 0.03872059789098459 0 0 0
1658 1 13.241964730386002 19.657738515157046 1.3534429721756076 0 0 0
1664 1 17.025383224782 19.657738515157046 1.3534429721756076 0 0 0
1662 5 13.241964730386002 21.84355682565816 0.038720597890985226 0 0 0
1819 1 15.133673977584001 22.934275044451045 1.353442972175608 0 0 0
1668 5 17.025383224782 21.84355682565816 0.03872059789098525 0 0 0
1659 4 13.241964730386002 17.470312264862745 2.6674895829022565 0 0 0
1665 4 17.025383224782 17.470312264862745 2.6674895829022565 0 0 0
1666 4 15.133673977584001 20.746848794156744 2.667489582902257 0 0 0
1673 5 18.917092471980002 18.56702029636416 0.03872059789098545 0 0 0
1679 5 22.700510966376005 18.56702029636416 0.03872059789098499 0 0 0
1670 1 20.808801719178003 19.657738515157046 1.3534429721756076 0 0 0
1825 1 18.917092471980002 22.934275044451045 1.3534429721756078 0 0 0
1674 5 20.808801719178003 21.84355682565816 0.03872059789098513 0 0 0
1831 1 22.700510966376 22.934275044451045 1.3534429721756078 0 0 0
1671 4 20.808801719178003 17.470312264862745 2.6674895829022565 0 0 0
1672 4 18.917092471980002 20.746848794156744 2.667489582902256 0 0 0
1678 4 22.700510966376005 20.746848794156744 2.6674895829022565 0 0 0
1685 5 26.483929460772 18.56702029636416 0.03872059789098499 0 0 0
1676 1 24.592220213574002 19.657738515157046 1.3534429721756076 0 0 0
1682 1 28.37563870797 19.657738515157046 1.3534429721756076 0 0 0
1680 5 24.592220213574002 21.84355682565816 0.03872059789098432 0 0 0
1837 1 26.483929460772003 22.934275044451045 1.3534429721756078 0 0 0
1686 5 28.37563870797 21.84355682565816 0.03872059789098517 0 0 0
1677 4 24.592220213574002 17.47031226486274 2.6674895829022574 0 0 0