LAMMPS data file via write_data, version 29 Aug 2024, timestep = 2, units = metal

4680 atoms
6 atom types

0 98.368880854296 xlo xhi
0 98.29609587882 ylo yhi
-50 50 zlo zhi

Masses

1 58.6934
2 58.6934
3 127.6
4 127.6
5 127.6
6 127.6

Atoms # atomic

1176 4 1.891709247198002 2.1843374875798025 0.039243015247561915 0 0 0
1327 1 4.344390930579895e-15 3.275055154371872 1.3534476332493452 0 0 0
1333 1 3.7834184943960025 3.2750551543718722 1.3534476332493457 0 0 0
1182 4 5.675127741594003 2.1843374875798025 0.03924301524756193 0 0 0
1331 4 6.164451005346429e-16 5.460874016873802 0.03924301524756104 0 0 0
1337 4 3.7834184943960025 5.460874016873802 0.0392430152475613 0 0 0
1174 3 9.399622021242133e-16 1.0875496585589859 2.6667547697323735 0 0 0
1180 3 3.7834184943960025 1.0875496585589854 2.666754769732373 0 0 0
1329 3 1.891709247198002 4.364086187852985 2.666754769732373 0 0 0
1335 3 5.675127741594003 4.364086187852985 2.666754769732373 0 0 0
1339 1 7.566836988792002 3.2750551543718722 1.3534476332493455 0 0 0
1188 4 9.458546235990001 2.184337487579802 0.039243015247561325 0 0 0
1345 1 11.350255483188 3.275055154371872 1.3534476332493457 0 0 0
1343 4 7.566836988792003 5.4608740168738015 0.03924301524756023 0 0 0
1349 4 11.350255483188 5.460874016873802 0.03924301524756105 0 0 0
1186 3 7.566836988792003 1.0875496585589859 2.6667547697323744 0 0 0
1192 3 11.350255483188 1.0875496585589854 2.6667547697323735 0 0 0
1341 3 9.458546235990001 4.364086187852986 2.666754769732374 0 0 0
1194 4 13.241964730386002 2.1843374875798025 0.03924301524756202 0 0 0
1351 1 15.133673977584001 3.2750551543718722 1.3534476332493457 0 0 0
1200 4 17.025383224782 2.1843374875798025 0.0392430152475621 0 0 0
1355 4 15.133673977584001 5.460874016873802 0.03924301524756043 0 0 0
1198 3 15.133673977584001 1.087549658558986 2.6667547697323744 0 0 0
1347 3 13.241964730386002 4.364086187852985 2.666754769732373 0 0 0
1353 3 17.025383224782 4.364086187852985 2.666754769732373 0 0 0
1357 1 18.917092471980002 3.2750551543718722 1.3534476332493457 0 0 0
1206 4 20.808801719178003 2.1843374875798025 0.03924301524756202 0 0 0
1363 1 22.700510966376 3.2750551543718722 1.3534476332493455 0 0 0
1361 4 18.917092471980002 5.460874016873802 0.03924301524756128 0 0 0
1367 4 22.700510966376005 5.460874016873803 0.03924301524756099 0 0 0
1204 3 18.917092471980002 1.0875496585589852 2.666754769732373 0 0 0
1210 3 22.700510966376005 1.0875496585589854 2.6667547697323735 0 0 0
1359 3 20.808801719178003 4.364086187852985 2.666754769732373 0 0 0
1212 4 24.592220213574002 2.1843374875798016 0.03924301524756125 0 0 0
1369 1 26.483929460772003 3.2750551543718722 1.3534476332493455 0 0 0
1218 4 28.37563870797 2.1843374875798025 0.03924301524756204 0 0 0
1373 4 26.483929460772 5.460874016873803 0.03924301524756098 0 0 0
1216 3 26.483929460772 1.0875496585589854 2.6667547697323735 0 0 0
1365 3 24.592220213574002 4.364086187852986 2.666754769732374 0 0 0
1371 3 28.37563870797 4.364086187852985 2.666754769732373 0 0 0
1375 1 30.267347955168002 3.275055154371872 1.3534476332493457 0 0 0
1224 4 32.159057202366 2.1843374875798025 0.03924301524756189 0 0 0
1381 1 34.050766449564 3.2750551543718722 1.3534476332493457 0 0 0
1379 4 30.267347955168002 5.460874016873802 0.03924301524756133 0 0 0
1385 4 34.050766449564 5.4608740168738015 0.0392430152475596 0 0 0
1222 3 30.267347955168002 1.0875496585589852 2.666754769732373 0 0 0
1228 3 34.050766449564 1.0875496585589866 2.666754769732375 0 0 0
1377 3 32.159057202366 4.364086187852985 2.666754769732373 0 0 0
1230 4 35.942475696762 2.1843374875798025 0.03924301524756189 0 0 0
1387 1 37.83418494396 3.2750551543718722 1.3534476332493457 0 0 0
1236 4 39.725894191158005 2.184337487579803 0.03924301524756222 0 0 0
1391 4 37.83418494396 5.460874016873802 0.03924301524756133 0 0 0
1234 3 37.83418494396 1.0875496585589852 2.666754769732373 0 0 0
1383 3 35.942475696762 4.364086187852985 2.6667547697323735 0 0 0
1389 3 39.725894191158005 4.364086187852985 2.6667547697323726 0 0 0
1393 1 41.617603438356 3.2750551543718722 1.3534476332493457 0 0 0
1242 4 43.50931268555401 2.184337487579803 0.03924301524756228 0 0 0
1399 1 45.401021932752 3.2750551543718722 1.3534476332493457 0 0 0
1397 4 41.617603438356 5.460874016873802 0.03924301524756126 0 0 0
1403 4 45.401021932752 5.460874016873803 0.039243015247561075 0 0 0
1240 3 41.617603438356 1.0875496585589852 2.666754769732373 0 0 0
1246 3 45.401021932752 1.0875496585589854 2.6667547697323735 0 0 0
1395 3 43.50931268555401 4.364086187852985 2.6667547697323726 0 0 0
1248 4 47.29273117995 2.1843374875798016 0.0392430152475608 0 0 0
1249 1 49.184440427148004 3.2750551543718722 1.3534476332493457 -1 0 0
1098 4 51.076149674346 2.1843374875798025 0.039243015247561755 -1 0 0
1253 4 49.184440427148 5.4608740168738015 0.039243015247560166 -1 0 0
1096 3 49.184440427148 1.087549658558986 2.6667547697323744 -1 0 0
1401 3 47.29273117995 4.364086187852986 2.6667547697323744 0 0 0
1251 3 51.076149674346 4.364086187852985 2.6667547697323735 -1 0 0
1255 1 52.967858921544 3.275055154371872 1.3534476332493457 -1 0 0
1104 4 54.859568168742 2.184337487579802 0.03924301524756152 -1 0 0
1261 1 56.75127741594 3.2750551543718722 1.3534476332493457 -1 0 0
1259 4 52.967858921544 5.460874016873802 0.03924301524756074 -1 0 0
1265 4 56.751277415939995 5.460874016873802 0.039243015247560645 -1 0 0
1102 3 52.967858921544 1.0875496585589854 2.666754769732374 -1 0 0
1108 3 56.751277415939995 1.0875496585589859 2.666754769732374 -1 0 0
1257 3 54.859568168742 4.364086187852986 2.6667547697323735 -1 0 0
1110 4 58.642986663138 2.1843374875798025 0.039243015247561734 -1 0 0
1267 1 60.534695910336 3.275055154371872 1.3534476332493457 -1 0 0
1116 4 62.426405157534 2.184337487579803 0.03924301524756228 -1 0 0
1271 4 60.534695910336 5.460874016873802 0.03924301524756132 -1 0 0
1114 3 60.534695910336 1.0875496585589854 2.6667547697323735 -1 0 0
1263 3 58.642986663138 4.364086187852985 2.666754769732373 -1 0 0
1269 3 62.426405157534 4.364086187852985 2.6667547697323726 -1 0 0
1273 1 64.318114404732 3.2750551543718722 1.3534476332493457 -1 0 0
1122 4 66.20982365193 2.184337487579801 0.03924301524756077 -1 0 0
1279 1 68.101532899128 3.2750551543718722 1.3534476332493457 -1 0 0
1277 4 64.318114404732 5.4608740168738015 0.039243015247560235 -1 0 0
1283 4 68.10153289912799 5.460874016873802 0.03924301524756127 -1 0 0
1120 3 64.318114404732 1.087549658558986 2.6667547697323744 -1 0 0
1126 3 68.10153289912799 1.0875496585589852 2.666754769732373 -1 0 0
1275 3 66.20982365193 4.364086187852987 2.6667547697323744 -1 0 0
1128 4 69.993242146326 2.1843374875798034 0.03924301524756267 -1 0 0
1285 1 71.88495139352399 3.275055154371872 1.3534476332493457 -1 0 0
1134 4 73.776660640722 2.1843374875798016 0.039243015247561804 -1 0 0
1289 4 71.884951393524 5.460874016873802 0.03924301524756127 -1 0 0
1132 3 71.884951393524 1.0875496585589852 2.666754769732373 -1 0 0
1281 3 69.993242146326 4.364086187852984 2.6667547697323726 -1 0 0
1287 3 73.776660640722 4.364086187852986 2.666754769732373 -1 0 0
1291 1 75.66836988792001 3.2750551543718722 1.3534476332493455 -1 0 0
1140 4 77.560079135118 2.1843374875798025 0.03924301524756142 -1 0 0
1297 1 79.451788382316 3.2750551543718722 1.3534476332493457 -1 0 0
1295 4 75.66836988792 5.460874016873802 0.039243015247560534 -1 0 0
1301 4 79.451788382316 5.4608740168738015 0.03924301524756089 -1 0 0
1138 3 75.66836988792 1.0875496585589857 2.666754769732374 -1 0 0
1144 3 79.451788382316 1.087549658558986 2.6667547697323735 -1 0 0
1293 3 77.560079135118 4.364086187852986 2.666754769732374 -1 0 0
1146 4 81.34349762951399 2.184337487579803 0.03924301524756236 -1 0 0
1303 1 83.235206876712 3.2750551543718722 1.3534476332493455 -1 0 0
1152 4 85.12691612391 2.184337487579801 0.03924301524756019 -1 0 0
1307 4 83.235206876712 5.460874016873804 0.039243015247562074 -1 0 0
1150 3 83.235206876712 1.0875496585589846 2.6667547697323726 -1 0 0
1299 3 81.34349762951399 4.364086187852985 2.6667547697323726 -1 0 0
1305 3 85.12691612391 4.364086187852986 2.6667547697323744 -1 0 0
1309 1 87.018625371108 3.2750551543718722 1.3534476332493457 -1 0 0
1158 4 88.910334618306 2.1843374875798034 0.039243015247562865 -1 0 0
1315 1 90.80204386550399 3.275055154371872 1.3534476332493457 -1 0 0
1313 4 87.018625371108 5.4608740168738015 0.03924301524755943 -1 0 0
1319 4 90.802043865504 5.460874016873802 0.039243015247561394 -1 0 0
1156 3 87.018625371108 1.0875496585589866 2.6667547697323752 -1 0 0
1162 3 90.802043865504 1.0875496585589852 2.666754769732373 -1 0 0
1311 3 88.910334618306 4.364086187852984 2.666754769732372 -1 0 0
1164 4 92.693753112702 2.1843374875798016 0.03924301524756181 -1 0 0
1321 1 94.5854623599 3.2750551543718722 1.3534476332493455 -1 0 0
1170 4 96.477171607098 2.1843374875798025 0.03924301524756156 -1 0 0
1325 4 94.58546235989999 5.460874016873802 0.039243015247560506 -1 0 0
1168 3 94.58546235989999 1.0875496585589857 2.666754769732374 -1 0 0
1317 3 92.693753112702 4.364086187852986 2.666754769732373 -1 0 0
1323 3 96.477171607098 4.364086187852986 2.666754769732374 -1 0 0
1328 1 1.8917092471980015 6.551591683665872 1.3534476332493457 0 0 0
1334 1 5.675127741594004 6.551591683665872 1.3534476332493455 0 0 0
1332 4 1.891709247198002 8.737410546167803 0.03924301524756184 0 0 0
1338 4 5.675127741594003 8.737410546167803 0.039243015247561776 0 0 0
1483 1 4.3793564139026125e-15 9.828128212959871 1.3534476332493455 0 0 0
1489 1 3.7834184943960025 9.828128212959871 1.3534476332493457 0 0 0
1330 3 9.532888436618278e-16 7.640622717146986 2.666754769732372 0 0 0
1336 3 3.7834184943960025 7.640622717146986 2.666754769732372 0 0 0
1485 3 1.891709247198002 10.917159246440985 2.6667547697323726 0 0 0
1491 3 5.675127741594003 10.917159246440985 2.6667547697323726 0 0 0
1340 1 9.458546235990003 6.551591683665872 1.3534476332493455 0 0 0
1344 4 9.458546235990001 8.737410546167803 0.039243015247561054 0 0 0
1495 1 7.566836988792002 9.828128212959871 1.353447633249346 0 0 0
1501 1 11.350255483188 9.828128212959871 1.353447633249346 0 0 0
1342 3 7.566836988792003 7.640622717146986 2.666754769732373 0 0 0
1348 3 11.350255483188 7.640622717146986 2.666754769732372 0 0 0
1497 3 9.458546235990001 10.917159246440987 2.6667547697323735 0 0 0
1346 1 13.241964730386002 6.551591683665872 1.3534476332493455 0 0 0
1352 1 17.025383224782 6.551591683665872 1.3534476332493455 0 0 0
1350 4 13.241964730386002 8.737410546167803 0.03924301524756181 0 0 0
1356 4 17.025383224782 8.737410546167803 0.039243015247561915 0 0 0
1507 1 15.133673977584001 9.828128212959871 1.353447633249346 0 0 0
1354 3 15.133673977584001 7.640622717146986 2.666754769732373 0 0 0
1503 3 13.241964730386002 10.917159246440985 2.6667547697323726 0 0 0
1509 3 17.025383224782 10.917159246440987 2.666754769732373 0 0 0
1358 1 20.808801719178003 6.551591683665872 1.3534476332493457 0 0 0
1362 4 20.808801719178003 8.737410546167803 0.03924301524756187 0 0 0
1513 1 18.917092471980002 9.828128212959871 1.353447633249346 0 0 0
1519 1 22.700510966376 9.828128212959871 1.353447633249346 0 0 0
1360 3 18.917092471980002 7.640622717146985 2.6667547697323717 0 0 0
1366 3 22.700510966376005 7.640622717146986 2.6667547697323726 0 0 0
1515 3 20.808801719178003 10.917159246440985 2.666754769732373 0 0 0
1364 1 24.592220213574002 6.551591683665872 1.3534476332493457 0 0 0
1370 1 28.37563870797 6.551591683665872 1.3534476332493457 0 0 0
1368 4 24.592220213574002 8.737410546167801 0.03924301524756104 0 0 0
1374 4 28.37563870797 8.737410546167803 0.0392430152475619 0 0 0
1525 1 26.483929460772003 9.828128212959871 1.353447633249346 0 0 0
1372 3 26.483929460772 7.640622717146986 2.6667547697323726 0 0 0
1521 3 24.592220213574002 10.917159246440987 2.6667547697323735 0 0 0
1527 3 28.37563870797 10.917159246440985 2.666754769732373 0 0 0
1376 1 32.159057202366 6.551591683665872 1.3534476332493457 0 0 0
1380 4 32.159057202366 8.737410546167803 0.03924301524756166 0 0 0
1531 1 30.267347955168002 9.828128212959871 1.353447633249346 0 0 0
1537 1 34.050766449564 9.828128212959871 1.3534476332493457 0 0 0
1378 3 30.267347955168002 7.640622717146986 2.666754769732372 0 0 0
1384 3 34.050766449564 7.640622717146987 2.666754769732374 0 0 0
1533 3 32.159057202366 10.917159246440987 2.666754769732373 0 0 0
1382 1 35.942475696762 6.551591683665872 1.3534476332493457 0 0 0
1388 1 39.725894191158005 6.551591683665872 1.3534476332493457 0 0 0
1386 4 35.942475696762 8.737410546167803 0.03924301524756166 0 0 0
1392 4 39.725894191158005 8.737410546167803 0.03924301524756212 0 0 0
1543 1 37.834184943960004 9.828128212959871 1.353447633249346 0 0 0
1390 3 37.83418494396 7.640622717146986 2.666754769732372 0 0 0
1539 3 35.942475696762 10.917159246440987 2.666754769732373 0 0 0
1545 3 39.725894191158005 10.917159246440985 2.6667547697323726 0 0 0
1394 1 43.509312685554 6.551591683665872 1.3534476332493457 0 0 0
1398 4 43.50931268555401 8.737410546167803 0.039243015247562206 0 0 0
1549 1 41.617603438356 9.828128212959871 1.353447633249346 0 0 0
1555 1 45.401021932752 9.828128212959871 1.353447633249346 0 0 0
1396 3 41.617603438356 7.640622717146986 2.666754769732372 0 0 0
1402 3 45.401021932752 7.640622717146986 2.6667547697323726 0 0 0
1551 3 43.50931268555401 10.917159246440985 2.6667547697323726 0 0 0
1400 1 47.29273117995 6.551591683665872 1.3534476332493457 0 0 0
1250 1 51.076149674346 6.551591683665872 1.3534476332493455 -1 0 0
1404 4 47.29273117995 8.737410546167801 0.039243015247560485 0 0 0
1254 4 51.076149674346 8.737410546167803 0.039243015247561554 -1 0 0
1405 1 49.184440427148004 9.828128212959871 1.353447633249346 -1 0 0
1252 3 49.184440427148 7.640622717146987 2.6667547697323735 -1 0 0
1557 3 47.29273117995 10.917159246440987 2.666754769732374 0 0 0
1407 3 51.076149674346 10.917159246440987 2.666754769732373 -1 0 0
1256 1 54.859568168741994 6.551591683665872 1.3534476332493455 -1 0 0
1260 4 54.859568168742 8.737410546167803 0.039243015247561276 -1 0 0
1411 1 52.967858921544 9.828128212959871 1.353447633249346 -1 0 0
1417 1 56.75127741594 9.828128212959871 1.3534476332493461 -1 0 0
1258 3 52.967858921544 7.640622717146986 2.666754769732373 -1 0 0
1264 3 56.751277415939995 7.640622717146986 2.6667547697323726 -1 0 0
1413 3 54.859568168742 10.917159246440987 2.666754769732373 -1 0 0
1262 1 58.642986663138 6.551591683665872 1.3534476332493455 -1 0 0
1268 1 62.426405157534 6.551591683665872 1.3534476332493455 -1 0 0
1266 4 58.642986663138 8.737410546167803 0.03924301524756152 -1 0 0
1272 4 62.426405157534 8.737410546167803 0.039243015247562144 -1 0 0
1423 1 60.534695910336 9.828128212959871 1.3534476332493457 -1 0 0
1270 3 60.534695910336 7.640622717146986 2.666754769732372 -1 0 0
1419 3 58.642986663138 10.917159246440987 2.666754769732373 -1 0 0
1425 3 62.426405157534 10.917159246440985 2.6667547697323726 -1 0 0
1274 1 66.20982365193 6.551591683665872 1.3534476332493457 -1 0 0
1278 4 66.20982365193 8.737410546167801 0.039243015247560575 -1 0 0
1429 1 64.318114404732 9.828128212959871 1.353447633249346 -1 0 0
1435 1 68.101532899128 9.828128212959871 1.3534476332493461 -1 0 0
1276 3 64.318114404732 7.640622717146987 2.6667547697323735 -1 0 0
1282 3 68.10153289912799 7.640622717146986 2.666754769732372 -1 0 0
1431 3 66.20982365193 10.917159246440987 2.6667547697323744 -1 0 0
1280 1 69.993242146326 6.551591683665872 1.3534476332493457 -1 0 0
1286 1 73.776660640722 6.551591683665872 1.3534476332493457 -1 0 0
1284 4 69.993242146326 8.737410546167803 0.039243015247562435 -1 0 0
1290 4 73.776660640722 8.737410546167801 0.03924301524756163 -1 0 0
1441 1 71.88495139352399 9.828128212959871 1.3534476332493461 -1 0 0
1288 3 71.884951393524 7.640622717146986 2.666754769732372 -1 0 0
1437 3 69.993242146326 10.917159246440985 2.6667547697323726 -1 0 0
1443 3 73.776660640722 10.917159246440987 2.666754769732373 -1 0 0
1292 1 77.56007913511799 6.551591683665872 1.3534476332493457 -1 0 0
1296 4 77.560079135118 8.737410546167803 0.03924301524756115 -1 0 0
1447 1 75.66836988792001 9.828128212959871 1.353447633249346 -1 0 0
1453 1 79.451788382316 9.828128212959871 1.353447633249346 -1 0 0
1294 3 75.66836988792 7.640622717146986 2.666754769732373 -1 0 0
1300 3 79.451788382316 7.640622717146986 2.6667547697323726 -1 0 0
1449 3 77.560079135118 10.917159246440987 2.6667547697323735 -1 0 0
1298 1 81.343497629514 6.551591683665872 1.3534476332493455 -1 0 0
1304 1 85.12691612391 6.551591683665872 1.3534476332493457 -1 0 0
1302 4 81.34349762951399 8.737410546167803 0.039243015247562185 -1 0 0
1308 4 85.12691612391 8.737410546167801 0.0392430152475602 -1 0 0
1459 1 83.235206876712 9.828128212959871 1.353447633249346 -1 0 0
1306 3 83.235206876712 7.640622717146985 2.6667547697323712 -1 0 0
1455 3 81.34349762951399 10.917159246440985 2.6667547697323726 -1 0 0
1461 3 85.12691612391 10.917159246440987 2.6667547697323744 -1 0 0
1310 1 88.910334618306 6.551591683665872 1.3534476332493457 -1 0 0
1314 4 88.910334618306 8.737410546167803 0.039243015247562796 -1 0 0
1465 1 87.018625371108 9.828128212959871 1.3534476332493461 -1 0 0
1471 1 90.80204386550399 9.828128212959871 1.353447633249346 -1 0 0
1312 3 87.018625371108 7.640622717146988 2.666754769732374 -1 0 0
1318 3 90.802043865504 7.640622717146985 2.666754769732372 -1 0 0
1467 3 88.910334618306 10.917159246440985 2.666754769732372 -1 0 0
1316 1 92.693753112702 6.551591683665872 1.3534476332493457 -1 0 0
1322 1 96.47717160709799 6.551591683665872 1.3534476332493455 -1 0 0
1320 4 92.693753112702 8.737410546167801 0.03924301524756162 -1 0 0
1326 4 96.477171607098 8.737410546167803 0.03924301524756146 -1 0 0
1477 1 94.5854623599 9.828128212959871 1.353447633249346 -1 0 0
1324 3 94.58546235989999 7.640622717146986 2.666754769732373 -1 0 0
1473 3 92.693753112702 10.917159246440987 2.666754769732373 -1 0 0
1479 3 96.477171607098 10.917159246440987 2.6667547697323735 -1 0 0
1487 4 7.394257754092414e-16 12.013947075461802 0.03924301524756097 0 0 0
1484 1 1.8917092471980013 13.10466474225387 1.3534476332493461 0 0 0
1493 4 3.7834184943960025 12.013947075461804 0.03924301524756118 0 0 0
1490 1 5.675127741594004 13.10466474225387 1.3534476332493461 0 0 0
1488 4 1.891709247198002 15.290483604755801 0.03924301524756074 0 0 0
1494 4 5.675127741594003 15.290483604755801 0.03924301524756067 0 0 0
1639 1 4.4819853079865005e-15 16.38120127154787 1.3534476332493448 0 0 0
1645 1 3.7834184943960025 16.38120127154787 1.3534476332493452 0 0 0
1486 3 9.575927962877891e-16 14.193695775734984 2.6667547697323735 0 0 0
1492 3 3.7834184943960025 14.193695775734984 2.666754769732373 0 0 0
1499 4 7.566836988792003 12.013947075461802 0.03924301524756009 0 0 0
1496 1 9.458546235990003 13.10466474225387 1.353447633249346 0 0 0
1505 4 11.350255483188 12.013947075461804 0.039243015247561026 0 0 0
1500 4 9.458546235990001 15.290483604755801 0.039243015247560055 0 0 0
1651 1 7.566836988792002 16.381201271547873 1.3534476332493455 0 0 0
1657 1 11.350255483188 16.381201271547873 1.353447633249345 0 0 0
1498 3 7.566836988792003 14.193695775734986 2.6667547697323744 0 0 0
1504 3 11.350255483188 14.193695775734986 2.6667547697323735 0 0 0
1502 1 13.241964730386002 13.10466474225387 1.3534476332493461 0 0 0
1511 4 15.133673977584001 12.013947075461802 0.03924301524756036 0 0 0
1508 1 17.025383224782 13.10466474225387 1.3534476332493461 0 0 0
1506 4 13.241964730386002 15.290483604755801 0.039243015247560714 0 0 0
1512 4 17.025383224782 15.290483604755801 0.03924301524756084 0 0 0
1663 1 15.133673977584001 16.38120127154787 1.3534476332493452 0 0 0
1510 3 15.133673977584001 14.193695775734984 2.666754769732374 0 0 0
1517 4 18.917092471980002 12.013947075461804 0.039243015247561325 0 0 0
1514 1 20.808801719178003 13.10466474225387 1.3534476332493461 0 0 0
1523 4 22.700510966376005 12.013947075461804 0.03924301524756096 0 0 0
1518 4 20.808801719178003 15.290483604755801 0.03924301524756072 0 0 0
1669 1 18.917092471980002 16.381201271547873 1.353447633249345 0 0 0
1675 1 22.700510966376 16.381201271547873 1.3534476332493452 0 0 0
1516 3 18.917092471980002 14.193695775734984 2.666754769732373 0 0 0
1522 3 22.700510966376005 14.193695775734986 2.6667547697323735 0 0 0
1520 1 24.592220213574002 13.10466474225387 1.3534476332493464 0 0 0
1529 4 26.483929460772 12.013947075461804 0.03924301524756087 0 0 0
1526 1 28.37563870797 13.10466474225387 1.3534476332493461 0 0 0
1524 4 24.592220213574002 15.290483604755801 0.03924301524755986 0 0 0
1530 4 28.37563870797 15.290483604755801 0.03924301524756074 0 0 0
1681 1 26.483929460772003 16.381201271547873 1.3534476332493452 0 0 0
1528 3 26.483929460772 14.193695775734986 2.6667547697323735 0 0 0
1535 4 30.267347955168002 12.013947075461804 0.03924301524756136 0 0 0
1532 1 32.159057202366 13.10466474225387 1.3534476332493464 0 0 0
1541 4 34.050766449564 12.013947075461802 0.039243015247559514 0 0 0
1536 4 32.159057202366 15.290483604755801 0.03924301524756061 0 0 0
1687 1 30.267347955168002 16.381201271547873 1.353447633249345 0 0 0
1693 1 34.050766449564 16.381201271547873 1.353447633249345 0 0 0
1534 3 30.267347955168002 14.193695775734984 2.666754769732373 0 0 0
1540 3 34.050766449564 14.193695775734986 2.666754769732375 0 0 0
1538 1 35.942475696762 13.10466474225387 1.3534476332493464 0 0 0
1547 4 37.83418494396 12.013947075461804 0.03924301524756129 0 0 0
1544 1 39.725894191158005 13.10466474225387 1.3534476332493461 0 0 0
1542 4 35.942475696762 15.290483604755801 0.03924301524756062 0 0 0
1548 4 39.725894191158005 15.290483604755801 0.03924301524756096 0 0 0
1699 1 37.834184943960004 16.381201271547873 1.353447633249345 0 0 0
1546 3 37.83418494396 14.193695775734984 2.666754769732373 0 0 0
1553 4 41.617603438356 12.013947075461804 0.03924301524756121 0 0 0
1550 1 43.509312685554 13.10466474225387 1.3534476332493461 0 0 0
1559 4 45.401021932752 12.013947075461804 0.039243015247560915 0 0 0
1554 4 43.50931268555401 15.290483604755801 0.039243015247561026 0 0 0
1705 1 41.617603438356 16.381201271547873 1.353447633249345 0 0 0
1711 1 45.401021932752 16.381201271547873 1.353447633249345 0 0 0
1552 3 41.617603438356 14.193695775734984 2.666754769732373 0 0 0
1558 3 45.401021932752 14.193695775734986 2.6667547697323735 0 0 0
1556 1 47.29273117995 13.10466474225387 1.3534476332493461 0 0 0
1409 4 49.184440427148 12.013947075461802 0.039243015247559944 -1 0 0
1406 1 51.076149674346 13.10466474225387 1.3534476332493461 -1 0 0
1560 4 47.29273117995 15.290483604755801 0.039243015247559555 0 0 0
1410 4 51.076149674346 15.290483604755801 0.03924301524756044 -1 0 0
1561 1 49.184440427148004 16.38120127154787 1.3534476332493452 -1 0 0
1408 3 49.184440427148 14.193695775734986 2.6667547697323744 -1 0 0
1415 4 52.967858921544 12.013947075461804 0.039243015247560714 -1 0 0
1412 1 54.859568168741994 13.10466474225387 1.353447633249346 -1 0 0
1421 4 56.751277415939995 12.013947075461802 0.03924301524756042 -1 0 0
1416 4 54.859568168742 15.290483604755801 0.039243015247560215 -1 0 0
1567 1 52.967858921544 16.381201271547873 1.353447633249345 -1 0 0
1573 1 56.75127741594 16.381201271547873 1.3534476332493455 -1 0 0
1414 3 52.967858921544 14.193695775734986 2.666754769732374 -1 0 0
1420 3 56.751277415939995 14.193695775734986 2.666754769732374 -1 0 0
1418 1 58.642986663138 13.10466474225387 1.3534476332493461 -1 0 0
1427 4 60.534695910336 12.013947075461804 0.0392430152475612 -1 0 0
1424 1 62.426405157534 13.10466474225387 1.3534476332493461 -1 0 0
1422 4 58.642986663138 15.290483604755801 0.03924301524756042 -1 0 0
1428 4 62.426405157534 15.290483604755801 0.03924301524756104 -1 0 0
1579 1 60.534695910336 16.38120127154787 1.3534476332493452 -1 0 0
1426 3 60.534695910336 14.193695775734984 2.666754769732373 -1 0 0
1433 4 64.318114404732 12.013947075461802 0.03924301524756 -1 0 0
1430 1 66.20982365193 13.10466474225387 1.3534476332493461 -1 0 0
1439 4 68.10153289912799 12.013947075461804 0.03924301524756128 -1 0 0
1434 4 66.20982365193 15.290483604755801 0.03924301524755948 -1 0 0
1585 1 64.318114404732 16.38120127154787 1.3534476332493455 -1 0 0
1591 1 68.101532899128 16.381201271547873 1.353447633249345 -1 0 0
1432 3 64.318114404732 14.193695775734986 2.6667547697323744 -1 0 0
1438 3 68.10153289912799 14.193695775734984 2.6667547697323735 -1 0 0
1436 1 69.993242146326 13.10466474225387 1.3534476332493464 -1 0 0
1445 4 71.884951393524 12.013947075461804 0.03924301524756127 -1 0 0
1442 1 73.776660640722 13.10466474225387 1.3534476332493461 -1 0 0
1440 4 69.993242146326 15.290483604755803 0.039243015247561505 -1 0 0
1446 4 73.776660640722 15.290483604755801 0.03924301524756044 -1 0 0
1597 1 71.88495139352399 16.381201271547873 1.3534476332493452 -1 0 0
1444 3 71.884951393524 14.193695775734984 2.666754769732373 -1 0 0
1451 4 75.66836988792 12.013947075461804 0.03924301524756041 -1 0 0
1448 1 77.56007913511799 13.10466474225387 1.3534476332493461 -1 0 0
1457 4 79.451788382316 12.013947075461802 0.039243015247560735 -1 0 0
1452 4 77.560079135118 15.290483604755801 0.039243015247560145 -1 0 0
1603 1 75.66836988792001 16.381201271547873 1.3534476332493452 -1 0 0
1609 1 79.451788382316 16.381201271547873 1.353447633249345 -1 0 0
1450 3 75.66836988792 14.193695775734986 2.666754769732374 -1 0 0
1456 3 79.451788382316 14.193695775734986 2.6667547697323735 -1 0 0
1454 1 81.343497629514 13.10466474225387 1.3534476332493464 -1 0 0
1463 4 83.235206876712 12.013947075461804 0.039243015247562046 -1 0 0
1460 1 85.12691612391 13.10466474225387 1.3534476332493464 -1 0 0
1458 4 81.34349762951399 15.290483604755801 0.03924301524756111 -1 0 0
1464 4 85.12691612391 15.290483604755801 0.039243015247559215 -1 0 0
1615 1 83.235206876712 16.381201271547873 1.3534476332493452 -1 0 0
1462 3 83.235206876712 14.193695775734984 2.6667547697323726 -1 0 0
1469 4 87.018625371108 12.013947075461802 0.03924301524755939 -1 0 0
1466 1 88.910334618306 13.10466474225387 1.3534476332493461 -1 0 0
1475 4 90.802043865504 12.013947075461804 0.03924301524756141 -1 0 0
1470 4 88.910334618306 15.290483604755803 0.03924301524756181 -1 0 0
1621 1 87.018625371108 16.381201271547873 1.3534476332493455 -1 0 0
1627 1 90.80204386550399 16.381201271547873 1.3534476332493452 -1 0 0
1468 3 87.018625371108 14.193695775734986 2.6667547697323752 -1 0 0
1474 3 90.802043865504 14.193695775734984 2.666754769732373 -1 0 0
1472 1 92.693753112702 13.10466474225387 1.3534476332493461 -1 0 0
1481 4 94.58546235989999 12.013947075461804 0.03924301524756039 -1 0 0
1478 1 96.47717160709799 13.10466474225387 1.3534476332493461 -1 0 0
1476 4 92.693753112702 15.290483604755801 0.03924301524756044 -1 0 0
1482 4 96.477171607098 15.290483604755801 0.03924301524756041 -1 0 0
1633 1 94.5854623599 16.381201271547873 1.3534476332493452 -1 0 0
1480 3 94.58546235989999 14.193695775734986 2.666754769732374 -1 0 0
1643 4 6.679776817354323e-16 18.567020134049802 0.03924301524756157 0 0 0
1649 4 3.7834184943960025 18.567020134049802 0.03924301524756179 0 0 0
1640 1 1.8917092471980015 19.657737800841872 1.3534476332493457 0 0 0
1646 1 5.675127741594004 19.657737800841872 1.3534476332493457 0 0 0
1644 4 1.891709247198002 21.843556663343804 0.039243015247561706 0 0 0
1795 1 4.443645757234102e-15 22.93427433013587 1.353447633249346 0 0 0
1801 1 3.7834184943960025 22.93427433013587 1.3534476332493468 0 0 0
1650 4 5.675127741594003 21.843556663343804 0.03924301524756167 0 0 0
1641 3 1.891709247198002 17.470232305028986 2.6667547697323726 0 0 0
1647 3 5.675127741594003 17.470232305028986 2.666754769732372 0 0 0
1642 3 9.41153769851986e-16 20.74676883432299 2.6667547697323726 0 0 0
1648 3 3.7834184943960025 20.746768834322985 2.6667547697323726 0 0 0
1655 4 7.566836988792003 18.567020134049802 0.03924301524756081 0 0 0
1661 4 11.350255483188 18.567020134049805 0.03924301524756166 0 0 0
1652 1 9.458546235990001 19.657737800841872 1.3534476332493457 0 0 0
1807 1 7.566836988792002 22.93427433013587 1.3534476332493461 0 0 0
1656 4 9.458546235990001 21.8435566633438 0.039243015247560936 0 0 0
1813 1 11.350255483188 22.93427433013587 1.3534476332493466 0 0 0
1653 3 9.458546235990001 17.470232305028986 2.666754769732373 0 0 0
1654 3 7.566836988792003 20.74676883432299 2.6667547697323735 0 0 0
1660 3 11.350255483188 20.746768834322985 2.666754769732372 0 0 0
1667 4 15.133673977584001 18.567020134049802 0.039243015247561 0 0 0
1658 1 13.241964730386002 19.657737800841872 1.3534476332493457 0 0 0
1664 1 17.025383224782 19.657737800841872 1.3534476332493457 0 0 0
1662 4 13.241964730386002 21.843556663343804 0.03924301524756179 0 0 0
1819 1 15.133673977584001 22.93427433013587 1.3534476332493464 0 0 0
1668 4 17.025383224782 21.843556663343804 0.039243015247561804 0 0 0
1659 3 13.241964730386002 17.470232305028986 2.666754769732372 0 0 0
1665 3 17.025383224782 17.470232305028986 2.666754769732372 0 0 0
1666 3 15.133673977584001 20.74676883432299 2.666754769732373 0 0 0
1673 4 18.917092471980002 18.567020134049805 0.03924301524756189 0 0 0
1679 4 22.700510966376005 18.567020134049802 0.0392430152475615 0 0 0
1670 1 20.808801719178003 19.657737800841872 1.3534476332493457 0 0 0
1825 1 18.917092471980002 22.93427433013587 1.3534476332493468 0 0 0
1674 4 20.808801719178003 21.843556663343804 0.03924301524756179 0 0 0
1831 1 22.700510966376 22.93427433013587 1.3534476332493466 0 0 0
1671 3 20.808801719178003 17.470232305028986 2.6667547697323726 0 0 0
1672 3 18.917092471980002 20.746768834322985 2.666754769732372 0 0 0
1678 3 22.700510966376005 20.746768834322985 2.6667547697323726 0 0 0
1685 4 26.483929460772 18.567020134049802 0.0392430152475615 0 0 0
1676 1 24.592220213574002 19.657737800841872 1.353447633249346 0 0 0
1682 1 28.37563870797 19.657737800841872 1.3534476332493457 0 0 0
1680 4 24.592220213574002 21.8435566633438 0.039243015247560756 0 0 0
1837 1 26.483929460772003 22.93427433013587 1.3534476332493466 0 0 0
1686 4 28.37563870797 21.843556663343804 0.039243015247561824 0 0 0
1677 3 24.592220213574002 17.470232305028986 2.6667547697323735 0 0 0