LAMMPS data file via write_data, version 29 Aug 2024, timestep = 2, units = metal

9180 atoms
36 atom types

0 100.22770815186 xlo xhi
0 98.373040278958 ylo yhi
-50 50 zlo zhi

Masses

1 180.94788
2 180.94788
3 180.94788
4 180.94788
5 180.94788
6 180.94788
7 180.94788
8 180.94788
9 180.94788
10 180.94788
11 180.94788
12 180.94788
13 32.06
14 32.06
15 32.06
16 32.06
17 32.06
18 32.06
19 32.06
20 32.06
21 32.06
22 32.06
23 32.06
24 32.06
25 32.06
26 32.06
27 32.06
28 32.06
29 32.06
30 32.06
31 32.06
32 32.06
33 32.06
34 32.06
35 32.06
36 32.06

Atoms # atomic

1536 20 1.7091040934221438e-15 0.9644412780840289 -0.00802780049025342 0 0 0
1542 16 3.3409236050620024 0.964441278084028 -0.00802780049025242 0 0 0
1711 3 3.709837498807084e-15 2.89332448440056 1.5662041115511902 0 0 0
1717 1 3.340923605062002 2.8933244844005617 1.5662041115511902 0 0 0
1713 18 1.6704618025310014 3.8577659921710286 -0.008027800490252177 0 0 0
1719 14 5.011385407593002 3.8577659921710294 -0.008027800490253142 0 0 0
1714 4 1.6704618025310014 5.7866491984875585 1.5662041115511904 0 0 0
1720 2 5.011385407593 5.786649198487558 1.5662041115511902 0 0 0
1548 20 6.681847210123999 0.9644412780840288 -0.008027800490253404 0 0 0
1554 16 10.022770815186 0.9644412780840281 -0.008027800490252526 0 0 0
1723 3 6.681847210124001 2.893324484400561 1.5662041115511902 0 0 0
1729 1 10.022770815186 2.8933244844005617 1.5662041115511902 0 0 0
1725 18 8.352309012654999 3.8577659921710286 -0.008027800490252182 0 0 0
1731 14 11.693232617717001 3.8577659921710286 -0.00802780049025219 0 0 0
1726 4 8.352309012654999 5.7866491984875585 1.5662041115511904 0 0 0
1732 2 11.693232617717001 5.7866491984875585 1.5662041115511904 0 0 0
1560 20 13.363694420248 0.9644412780840289 -0.008027800490253494 0 0 0
1566 16 16.70461802531 0.9644412780840282 -0.008027800490252774 0 0 0
1735 3 13.363694420247999 2.8933244844005603 1.5662041115511902 0 0 0
1741 1 16.704618025309998 2.8933244844005617 1.5662041115511904 0 0 0
1737 18 15.034156222779 3.8577659921710286 -0.008027800490252424 0 0 0
1738 4 15.034156222779004 5.786649198487559 1.5662041115511902 0 0 0
1572 20 20.045541630372004 0.9644412780840281 -0.00802780049025255 0 0 0
1578 16 23.386465235434 0.9644412780840281 -0.008027800490252547 0 0 0
1747 3 20.045541630372 2.8933244844005617 1.5662041115511904 0 0 0
1753 1 23.386465235434002 2.8933244844005617 1.5662041115511904 0 0 0
1743 14 18.375079827841002 3.8577659921710286 -0.008027800490252516 0 0 0
1749 18 21.716003432903 3.8577659921710303 -0.008027800490254217 0 0 0
1744 2 18.375079827841006 5.7866491984875585 1.5662041115511902 0 0 0
1750 4 21.716003432903 5.786649198487557 1.5662041115511902 0 0 0
1584 20 26.727388840496 0.9644412780840282 -0.008027800490252767 0 0 0
1759 3 26.727388840496005 2.8933244844005617 1.5662041115511904 0 0 0
1755 14 25.056927037965 3.8577659921710286 -0.008027800490252516 0 0 0
1761 18 28.397850643027002 3.8577659921710286 -0.008027800490252304 0 0 0
1756 2 25.056927037964996 5.7866491984875585 1.5662041115511902 0 0 0
1762 4 28.397850643027 5.786649198487559 1.5662041115511902 0 0 0
1590 16 30.068312445558 0.9644412780840297 -0.008027800490254462 0 0 0
1596 20 33.40923605062 0.9644412780840282 -0.008027800490252755 0 0 0
1765 1 30.068312445558 2.8933244844005586 1.5662041115511904 0 0 0
1771 3 33.409236050619995 2.8933244844005617 1.5662041115511904 0 0 0
1767 14 31.738774248088998 3.8577659921710286 -0.0080278004902523 0 0 0
1773 18 35.079697853150996 3.8577659921710286 -0.00802780049025253 0 0 0
1768 2 31.738774248089 5.786649198487559 1.5662041115511902 0 0 0
1774 4 35.079697853151 5.7866491984875585 1.5662041115511902 0 0 0
1602 16 36.750159655682005 0.9644412780840281 -0.008027800490252755 0 0 0
1608 20 40.091083260744 0.9644412780840281 -0.008027800490252542 0 0 0
1777 1 36.750159655682 2.8933244844005617 1.5662041115511904 0 0 0
1783 3 40.091083260744 2.8933244844005617 1.5662041115511904 0 0 0
1779 14 38.420621458213 3.8577659921710286 -0.008027800490252519 0 0 0
1780 2 38.420621458213006 5.7866491984875585 1.5662041115511902 0 0 0
1614 16 43.432006865806 0.9644412780840281 -0.008027800490252542 0 0 0
1620 20 46.772930470868 0.9644412780840282 -0.00802780049025274 0 0 0
1789 1 43.432006865806 2.8933244844005617 1.5662041115511904 0 0 0
1795 3 46.772930470868005 2.8933244844005617 1.5662041115511904 0 0 0
1785 18 41.761545063275 3.8577659921710303 -0.008027800490254242 0 0 0
1791 14 45.102468668337 3.8577659921710286 -0.008027800490252509 0 0 0
1786 4 41.761545063275 5.786649198487557 1.5662041115511902 0 0 0
1792 2 45.102468668336996 5.7866491984875585 1.5662041115511902 0 0 0
1446 16 50.11385407593 0.9644412780840289 -0.008027800490253508 -1 0 0
1621 1 50.11385407593001 2.8933244844005603 1.5662041115511902 -1 0 0
1797 18 48.443392273399 3.8577659921710286 -0.00802780049025238 0 0 0
1623 14 51.784315878461 3.8577659921710286 -0.008027800490252236 -1 0 0
1798 4 48.443392273399 5.786649198487559 1.5662041115511902 0 0 0
1624 2 51.784315878461 5.7866491984875585 1.5662041115511904 -1 0 0
1452 20 53.454777680992 0.964441278084028 -0.008027800490252465 -1 0 0
1458 16 56.795701286054 0.9644412780840288 -0.008027800490253352 -1 0 0
1627 3 53.454777680992 2.8933244844005617 1.5662041115511902 -1 0 0
1633 1 56.795701286054005 2.893324484400561 1.5662041115511902 -1 0 0
1629 18 55.125239483523 3.8577659921710294 -0.008027800490253105 -1 0 0
1635 14 58.466163088585 3.8577659921710286 -0.008027800490252236 -1 0 0
1630 4 55.125239483522996 5.786649198487558 1.5662041115511902 -1 0 0
1636 2 58.466163088585 5.7866491984875585 1.5662041115511904 -1 0 0
1464 20 60.136624891116 0.9644412780840281 -0.00802780049025253 -1 0 0
1470 16 63.477548496178 0.9644412780840289 -0.008027800490253409 -1 0 0
1639 3 60.136624891116 2.8933244844005617 1.5662041115511902 -1 0 0
1645 1 63.477548496177995 2.89332448440056 1.5662041115511902 -1 0 0
1641 18 61.807086693647 3.8577659921710286 -0.008027800490252228 -1 0 0
1642 4 61.807086693647 5.786649198487559 1.5662041115511904 -1 0 0
1476 20 66.81847210124 0.9644412780840282 -0.008027800490252935 -1 0 0
1482 16 70.159395706302 0.964441278084028 -0.008027800490252451 -1 0 0
1651 3 66.81847210124 2.8933244844005617 1.5662041115511904 -1 0 0
1657 1 70.15939570630199 2.893324484400562 1.5662041115511904 -1 0 0
1647 14 65.148010298709 3.8577659921710286 -0.008027800490252295 -1 0 0
1653 18 68.488933903771 3.8577659921710286 -0.008027800490252706 -1 0 0
1648 2 65.148010298709 5.786649198487559 1.5662041115511902 -1 0 0
1654 4 68.488933903771 5.7866491984875585 1.5662041115511902 -1 0 0
1488 20 73.500319311364 0.9644412780840281 -0.008027800490252623 -1 0 0
1663 3 73.50031931136401 2.8933244844005617 1.5662041115511904 -1 0 0
1659 14 71.829857508833 3.8577659921710303 -0.008027800490254039 -1 0 0
1665 18 75.170781113895 3.8577659921710286 -0.008027800490252375 -1 0 0
1660 2 71.829857508833 5.786649198487557 1.5662041115511902 -1 0 0
1666 4 75.17078111389499 5.786649198487559 1.5662041115511902 -1 0 0
1494 16 76.841242916426 0.9644412780840297 -0.008027800490254295 -1 0 0
1500 20 80.182166521488 0.9644412780840268 -0.008027800490251228 -1 0 0
1669 1 76.841242916426 2.8933244844005586 1.5662041115511904 -1 0 0
1675 3 80.182166521488 2.8933244844005648 1.5662041115511904 -1 0 0
1671 14 78.51170471895699 3.8577659921710286 -0.00802780049025252 -1 0 0
1677 18 81.85262832401901 3.8577659921710286 -0.00802780049025252 -1 0 0
1672 2 78.511704718957 5.7866491984875585 1.5662041115511902 -1 0 0
1678 4 81.852628324019 5.7866491984875585 1.5662041115511902 -1 0 0
1506 16 83.52309012655 0.9644412780840297 -0.008027800490254295 -1 0 0
1512 20 86.864013731612 0.9644412780840281 -0.008027800490252621 -1 0 0
1681 1 83.52309012655 2.8933244844005586 1.5662041115511904 -1 0 0
1687 3 86.86401373161199 2.8933244844005617 1.5662041115511904 -1 0 0
1683 14 85.193551929081 3.8577659921710286 -0.008027800490252378 -1 0 0
1684 2 85.19355192908101 5.786649198487559 1.5662041115511902 -1 0 0
1518 16 90.20493733667399 0.9644412780840281 -0.00802780049025276 -1 0 0
1524 20 93.54586094173601 0.9644412780840281 -0.008027800490252762 -1 0 0
1693 1 90.204937336674 2.8933244844005617 1.5662041115511904 -1 0 0
1699 3 93.545860941736 2.8933244844005617 1.5662041115511904 -1 0 0
1689 18 88.534475534143 3.8577659921710303 -0.008027800490254044 -1 0 0
1695 14 91.875399139205 3.8577659921710277 -0.008027800490251003 -1 0 0
1690 4 88.534475534143 5.786649198487557 1.5662041115511902 -1 0 0
1696 2 91.875399139205 5.786649198487562 1.5662041115511904 -1 0 0
1530 16 96.886784546798 0.9644412780840281 -0.008027800490252625 -1 0 0
1705 1 96.88678454679801 2.893324484400562 1.5662041115511904 -1 0 0
1701 18 95.216322744267 3.8577659921710303 -0.008027800490254044 -1 0 0
1707 14 98.557246349329 3.8577659921710286 -0.008027800490252557 -1 0 0
1702 4 95.216322744267 5.786649198487557 1.5662041115511902 -1 0 0
1708 2 98.557246349329 5.786649198487559 1.5662041115511902 -1 0 0
1716 20 1.7322062582408113e-15 6.751090706258028 -0.00802780049025337 0 0 0
1722 16 3.3409236050620024 6.751090706258028 -0.008027800490252441 0 0 0
1891 3 3.4502311156496773e-15 8.679973912574555 1.5662041115511902 0 0 0
1897 1 3.340923605062002 8.679973912574557 1.5662041115511904 0 0 0
1893 18 1.6704618025310014 9.644415420345025 -0.008027800490253667 0 0 0
1899 14 5.011385407593002 9.644415420345025 -0.008027800490254393 0 0 0
1894 4 1.6704618025310014 11.57329862666156 1.5662041115511902 0 0 0
1900 2 5.011385407593 11.573298626661558 1.5662041115511902 0 0 0
1728 20 6.681847210123999 6.751090706258028 -0.008027800490253149 0 0 0
1734 16 10.022770815186 6.751090706258028 -0.008027800490252519 0 0 0
1903 3 6.681847210124001 8.679973912574555 1.5662041115511902 0 0 0
1909 1 10.022770815186 8.679973912574557 1.5662041115511904 0 0 0
1905 18 8.352309012654999 9.644415420345025 -0.008027800490253659 0 0 0
1911 14 11.693232617717001 9.644415420345025 -0.008027800490253667 0 0 0
1906 4 8.352309012654999 11.57329862666156 1.5662041115511902 0 0 0
1912 2 11.693232617717001 11.57329862666156 1.5662041115511902 0 0 0
1740 20 13.363694420248 6.751090706258028 -0.008027800490253282 0 0 0
1746 16 16.70461802531 6.751090706258028 -0.008027800490252408 0 0 0
1915 3 13.363694420247999 8.679973912574555 1.5662041115511902 0 0 0
1921 1 16.704618025309998 8.679973912574557 1.5662041115511902 0 0 0
1917 18 15.034156222779 9.644415420345025 -0.008027800490253525 0 0 0
1918 4 15.034156222779004 11.57329862666156 1.5662041115511904 0 0 0
1752 20 20.045541630372004 6.751090706258027 -0.008027800490252177 0 0 0
1758 16 23.386465235434 6.751090706258027 -0.008027800490252177 0 0 0
1927 3 20.045541630372 8.679973912574557 1.5662041115511902 0 0 0
1933 1 23.386465235434002 8.679973912574557 1.5662041115511902 0 0 0
1923 14 18.375079827841002 9.644415420345025 -0.008027800490253634 0 0 0
1929 18 21.716003432903 9.644415420345027 -0.008027800490255239 0 0 0
1924 2 18.375079827841006 11.573298626661558 1.5662041115511904 0 0 0
1930 4 21.716003432903 11.573298626661556 1.5662041115511904 0 0 0
1764 20 26.727388840496 6.751090706258028 -0.008027800490252406 0 0 0
1939 3 26.727388840496005 8.679973912574557 1.5662041115511902 0 0 0
1935 14 25.056927037965 9.644415420345025 -0.008027800490253638 0 0 0
1941 18 28.397850643027002 9.644415420345025 -0.00802780049025344 0 0 0
1936 2 25.056927037964996 11.573298626661558 1.5662041115511904 0 0 0
1942 4 28.397850643027 11.57329862666156 1.5662041115511904 0 0 0
1770 16 30.068312445558 6.751090706258028 -0.008027800490254007 0 0 0
1776 20 33.40923605062 6.751090706258028 -0.00802780049025239 0 0 0
1945 1 30.068312445558 8.679973912574553 1.56620411155119 0 0 0
1951 3 33.409236050619995 8.679973912574557 1.5662041115511902 0 0 0
1947 14 31.738774248088998 9.644415420345025 -0.008027800490253437 0 0 0
1953 18 35.079697853150996 9.644415420345025 -0.008027800490253648 0 0 0
1948 2 31.738774248089 11.57329862666156 1.5662041115511904 0 0 0
1954 4 35.079697853151 11.573298626661558 1.5662041115511904 0 0 0
1782 16 36.750159655682005 6.751090706258028 -0.008027800490252394 0 0 0
1788 20 40.091083260744 6.751090706258027 -0.008027800490252193 0 0 0
1957 1 36.750159655682 8.679973912574557 1.5662041115511902 0 0 0
1963 3 40.091083260744 8.679973912574557 1.5662041115511902 0 0 0
1959 14 38.420621458213 9.644415420345025 -0.00802780049025364 0 0 0
1960 2 38.420621458213006 11.573298626661558 1.5662041115511904 0 0 0
1794 16 43.432006865806 6.751090706258027 -0.008027800490252195 0 0 0
1800 20 46.772930470868 6.751090706258028 -0.00802780049025238 0 0 0
1969 1 43.432006865806 8.679973912574557 1.5662041115511902 0 0 0
1975 3 46.772930470868005 8.679973912574557 1.5662041115511902 0 0 0
1965 18 41.761545063275 9.644415420345027 -0.008027800490255263 0 0 0
1971 14 45.102468668337 9.644415420345025 -0.008027800490253641 0 0 0
1966 4 41.761545063275 11.573298626661556 1.5662041115511904 0 0 0
1972 2 45.102468668336996 11.573298626661558 1.5662041115511904 0 0 0
1626 16 50.11385407593 6.751090706258028 -0.00802780049025329 -1 0 0
1801 1 50.11385407593 8.679973912574555 1.5662041115511902 -1 0 0
1977 18 48.443392273399006 9.644415420345025 -0.00802780049025356 0 0 0
1803 14 51.784315878461 9.644415420345025 -0.008027800490253626 -1 0 0
1978 4 48.443392273399 11.57329862666156 1.5662041115511904 0 0 0
1804 2 51.784315878461 11.57329862666156 1.5662041115511902 -1 0 0
1632 20 53.454777680992 6.751090706258028 -0.008027800490252495 -1 0 0
1638 16 56.795701286054 6.751090706258028 -0.008027800490253107 -1 0 0
1807 3 53.454777680992 8.679973912574557 1.5662041115511904 -1 0 0
1813 1 56.795701286054005 8.679973912574555 1.5662041115511902 -1 0 0
1809 18 55.125239483523 9.644415420345025 -0.008027800490254351 -1 0 0
1815 14 58.466163088585 9.644415420345025 -0.008027800490253712 -1 0 0
1810 4 55.125239483522996 11.573298626661558 1.5662041115511902 -1 0 0
1816 2 58.466163088585 11.57329862666156 1.5662041115511902 -1 0 0
1644 20 60.136624891116 6.751090706258028 -0.008027800490252524 -1 0 0
1650 16 63.477548496178 6.751090706258028 -0.008027800490253359 -1 0 0
1819 3 60.136624891116 8.679973912574557 1.5662041115511904 -1 0 0
1825 1 63.477548496178 8.679973912574555 1.5662041115511902 -1 0 0
1821 18 61.807086693647 9.644415420345025 -0.00802780049025363 -1 0 0
1822 4 61.807086693647 11.57329862666156 1.5662041115511902 -1 0 0
1656 20 66.81847210124 6.751090706258028 -0.008027800490252415 -1 0 0
1662 16 70.159395706302 6.751090706258027 -0.008027800490252084 -1 0 0
1831 3 66.81847210124 8.679973912574557 1.5662041115511902 -1 0 0
1837 1 70.15939570630199 8.679973912574557 1.5662041115511902 -1 0 0
1827 14 65.148010298709 9.644415420345025 -0.008027800490253484 -1 0 0
1833 18 68.488933903771 9.644415420345025 -0.008027800490253824 -1 0 0
1828 2 65.14801029870901 11.57329862666156 1.5662041115511904 -1 0 0
1834 4 68.488933903771 11.573298626661558 1.5662041115511904 -1 0 0
1668 20 73.500319311364 6.751090706258027 -0.008027800490252254 -1 0 0
1843 3 73.50031931136401 8.679973912574557 1.5662041115511902 -1 0 0
1839 14 71.829857508833 9.644415420345027 -0.008027800490255062 -1 0 0
1845 18 75.170781113895 9.644415420345025 -0.008027800490253504 -1 0 0
1840 2 71.829857508833 11.573298626661556 1.5662041115511904 -1 0 0
1846 4 75.17078111389499 11.57329862666156 1.5662041115511904 -1 0 0
1674 16 76.841242916426 6.751090706258028 -0.008027800490253843 -1 0 0
1680 20 80.182166521488 6.751090706258026 -0.008027800490250987 -1 0 0
1849 1 76.841242916426 8.679973912574553 1.56620411155119 -1 0 0
1855 3 80.182166521488 8.679973912574559 1.5662041115511904 -1 0 0
1851 14 78.51170471895699 9.644415420345025 -0.008027800490253631 -1 0 0
1857 18 81.85262832401901 9.644415420345025 -0.008027800490253631 -1 0 0
1852 2 78.511704718957 11.573298626661558 1.5662041115511904 -1 0 0
1858 4 81.852628324019 11.573298626661558 1.5662041115511904 -1 0 0
1686 16 83.52309012655 6.751090706258028 -0.008027800490253843 -1 0 0
1692 20 86.864013731612 6.751090706258027 -0.008027800490252252 -1 0 0
1861 1 83.52309012655 8.679973912574553 1.56620411155119 -1 0 0
1867 3 86.86401373161199 8.679973912574557 1.5662041115511902 -1 0 0
1863 14 85.193551929081 9.644415420345025 -0.008027800490253504 -1 0 0
1864 2 85.19355192908101 11.57329862666156 1.5662041115511904 -1 0 0
1698 16 90.20493733667399 6.751090706258028 -0.008027800490252392 -1 0 0
1704 20 93.54586094173601 6.751090706258028 -0.008027800490252392 -1 0 0
1873 1 90.204937336674 8.679973912574557 1.5662041115511902 -1 0 0
1879 3 93.545860941736 8.679973912574557 1.5662041115511902 -1 0 0
1869 18 88.534475534143 9.644415420345027 -0.008027800490255062 -1 0 0
1875 14 91.875399139205 9.644415420345023 -0.008027800490252207 -1 0 0
1870 4 88.534475534143 11.573298626661556 1.5662041115511904 -1 0 0
1876 2 91.875399139205 11.573298626661561 1.5662041115511904 -1 0 0
1710 16 96.886784546798 6.751090706258027 -0.00802780049025209 -1 0 0
1885 1 96.88678454679801 8.679973912574557 1.5662041115511902 -1 0 0
1881 18 95.216322744267 9.644415420345027 -0.008027800490255064 -1 0 0
1887 14 98.557246349329 9.644415420345025 -0.008027800490253652 -1 0 0
1882 4 95.216322744267 11.573298626661556 1.5662041115511904 -1 0 0
1888 2 98.55724634932899 11.57329862666156 1.5662041115511904 -1 0 0
1896 20 1.7091642923793845e-15 12.537740134432026 -0.008027800490253693 0 0 0
1902 16 3.3409236050620024 12.537740134432024 -0.008027800490252665 0 0 0
2071 3 3.710155950214431e-15 14.46662334074856 1.5662041115511902 0 0 0
2077 1 3.340923605062002 14.466623340748562 1.5662041115511904 0 0 0
2073 18 1.6704618025310014 15.431064848519028 -0.008027800490251043 0 0 0
2079 14 5.011385407593002 15.43106484851903 -0.008027800490251941 0 0 0
2074 4 1.6704618025310014 17.35994805483556 1.5662041115511904 0 0 0
2080 2 5.011385407593 17.359948054835556 1.5662041115511904 0 0 0
1908 20 6.681847210123999 12.537740134432024 -0.008027800490253664 0 0 0
1914 16 10.022770815186 12.537740134432024 -0.0080278004902528 0 0 0
2083 3 6.681847210124001 14.46662334074856 1.5662041115511902 0 0 0
2089 1 10.022770815186 14.466623340748562 1.5662041115511904 0 0 0
2085 18 8.352309012654999 15.431064848519028 -0.00802780049025104 0 0 0
2091 14 11.693232617717001 15.431064848519028 -0.008027800490251046 0 0 0
2086 4 8.352309012654999 17.35994805483556 1.5662041115511904 0 0 0
2092 2 11.693232617717001 17.35994805483556 1.5662041115511904 0 0 0
1920 20 13.363694420248 12.537740134432026 -0.008027800490253756 0 0 0
1926 16 16.70461802531 12.537740134432024 -0.008027800490253001 0 0 0
2095 3 13.363694420247999 14.466623340748562 1.5662041115511902 0 0 0
2101 1 16.704618025309998 14.466623340748562 1.5662041115511902 0 0 0
2097 18 15.034156222779 15.431064848519028 -0.008027800490251083 0 0 0
2098 4 15.034156222779004 17.35994805483556 1.5662041115511904 0 0 0
1932 20 20.045541630372004 12.537740134432024 -0.008027800490252807 0 0 0
1938 16 23.386465235434 12.537740134432024 -0.008027800490252809 0 0 0
2107 3 20.045541630372 14.466623340748562 1.5662041115511902 0 0 0
2113 1 23.386465235434002 14.466623340748562 1.5662041115511902 0 0 0
2103 14 18.375079827841002 15.431064848519028 -0.008027800490251171 0 0 0
2109 18 21.716003432903 15.43106484851903 -0.008027800490252895 0 0 0
2104 2 18.375079827841006 17.35994805483556 1.5662041115511904 0 0 0
2110 4 21.716003432903 17.359948054835556 1.5662041115511904 0 0 0
1944 20 26.727388840496 12.537740134432024 -0.008027800490252996 0 0 0
2119 3 26.727388840496005 14.466623340748562 1.5662041115511902 0 0 0
2115 14 25.056927037965 15.431064848519028 -0.008027800490251171 0 0 0
2121 18 28.397850643027002 15.431064848519028 -0.008027800490250965 0 0 0
2116 2 25.056927037964996 17.35994805483556 1.5662041115511904 0 0 0
2122 4 28.397850643027 17.35994805483556 1.5662041115511904 0 0 0
1950 16 30.068312445558 12.537740134432026 -0.00802780049025471 0 0 0
1956 20 33.40923605062 12.537740134432024 -0.008027800490252996 0 0 0
2125 1 30.068312445558 14.46662334074856 1.5662041115511902 0 0 0
2131 3 33.409236050619995 14.466623340748562 1.5662041115511902 0 0 0
2127 14 31.738774248088998 15.431064848519028 -0.008027800490250963 0 0 0
2133 18 35.079697853150996 15.431064848519028 -0.008027800490251176 0 0 0
2128 2 31.738774248089 17.35994805483556 1.5662041115511904 0 0 0
2134 4 35.079697853151 17.35994805483556 1.5662041115511904 0 0 0
1962 16 36.750159655682005 12.537740134432024 -0.008027800490252979 0 0 0
1968 20 40.091083260744 12.537740134432024 -0.008027800490252814 0 0 0
2137 1 36.750159655682 14.466623340748562 1.5662041115511902 0 0 0
2143 3 40.091083260744 14.466623340748562 1.5662041115511902 0 0 0
2139 14 38.420621458213 15.431064848519028 -0.008027800490251168 0 0 0
2140 2 38.420621458213006 17.35994805483556 1.5662041115511904 0 0 0
1974 16 43.432006865806 12.537740134432024 -0.008027800490252814 0 0 0
1980 20 46.772930470868 12.537740134432024 -0.008027800490252989 0 0 0
2149 1 43.432006865806 14.466623340748562 1.5662041115511902 0 0 0
2155 3 46.772930470868005 14.466623340748562 1.5662041115511902 0 0 0
2145 18 41.761545063275 15.43106484851903 -0.008027800490252918 0 0 0
2151 14 45.102468668337 15.431064848519028 -0.008027800490251156 0 0 0
2146 4 41.761545063275 17.359948054835556 1.5662041115511904 0 0 0
2152 2 45.102468668336996 17.35994805483556 1.5662041115511904 0 0 0
1806 16 50.11385407593 12.537740134432026 -0.00802780049025376 -1 0 0
1981 1 50.11385407593001 14.466623340748562 1.5662041115511902 -1 0 0
2157 18 48.443392273399 15.431064848519028 -0.008027800490251025 0 0 0
1983 14 51.784315878461 15.431064848519028 -0.008027800490251103 -1 0 0
2158 4 48.443392273399 17.35994805483556 1.5662041115511904 0 0 0
1984 2 51.784315878461 17.35994805483556 1.5662041115511904 -1 0 0
1812 20 53.454777680992 12.537740134432024 -0.008027800490252722 -1 0 0
1818 16 56.795701286054 12.537740134432024 -0.00802780049025361 -1 0 0
1987 3 53.454777680992 14.466623340748562 1.5662041115511904 -1 0 0
1993 1 56.795701286054005 14.46662334074856 1.5662041115511902 -1 0 0
1989 18 55.125239483523 15.43106484851903 -0.008027800490251898 -1 0 0
1995 14 58.466163088585 15.431064848519028 -0.008027800490251095 -1 0 0
1990 4 55.125239483522996 17.359948054835556 1.5662041115511904 -1 0 0
1996 2 58.466163088585 17.35994805483556 1.5662041115511904 -1 0 0
1824 20 60.136624891116 12.537740134432024 -0.008027800490252805 -1 0 0
1830 16 63.477548496178 12.537740134432026 -0.008027800490253669 -1 0 0
1999 3 60.136624891116 14.466623340748562 1.5662041115511904 -1 0 0
2005 1 63.477548496177995 14.46662334074856 1.5662041115511902 -1 0 0
2001 18 61.807086693647 15.431064848519028 -0.008027800490251097 -1 0 0
2002 4 61.807086693647 17.35994805483556 1.5662041115511904 -1 0 0
1836 20 66.81847210124 12.537740134432024 -0.008027800490253175 -1 0 0
1842 16 70.159395706302 12.537740134432024 -0.008027800490252713 -1 0 0
2011 3 66.81847210124 14.466623340748562 1.5662041115511902 -1 0 0
2017 1 70.15939570630199 14.466623340748562 1.5662041115511902 -1 0 0
2007 14 65.148010298709 15.431064848519028 -0.008027800490250939 -1 0 0
2013 18 68.488933903771 15.431064848519028 -0.00802780049025135 -1 0 0
2008 2 65.14801029870901 17.35994805483556 1.5662041115511904 -1 0 0
2014 4 68.488933903771 17.35994805483556 1.5662041115511904 -1 0 0
1848 20 73.500319311364 12.537740134432024 -0.008027800490252892 -1 0 0
2023 3 73.50031931136401 14.466623340748562 1.5662041115511902 -1 0 0
2019 14 71.829857508833 15.43106484851903 -0.008027800490252715 -1 0 0
2025 18 75.170781113895 15.431064848519028 -0.008027800490251025 -1 0 0
2020 2 71.829857508833 17.359948054835556 1.5662041115511904 -1 0 0
2026 4 75.17078111389499 17.35994805483556 1.5662041115511904 -1 0 0
1854 16 76.841242916426 12.537740134432026 -0.008027800490254536 -1 0 0
1860 20 80.182166521488 12.537740134432024 -0.008027800490251483 -1 0 0
2029 1 76.841242916426 14.46662334074856 1.5662041115511902 -1 0 0
2035 3 80.182166521488 14.466623340748564 1.5662041115511902 -1 0 0
2031 14 78.51170471895699 15.431064848519028 -0.00802780049025116 -1 0 0
2037 18 81.85262832401901 15.431064848519028 -0.00802780049025116 -1 0 0
2032 2 78.511704718957 17.35994805483556 1.5662041115511904 -1 0 0
2038 4 81.852628324019 17.35994805483556 1.5662041115511904 -1 0 0
1866 16 83.52309012655 12.537740134432026 -0.008027800490254536 -1 0 0
1872 20 86.864013731612 12.537740134432024 -0.00802780049025289 -1 0 0
2041 1 83.52309012655 14.46662334074856 1.5662041115511902 -1 0 0
2047 3 86.86401373161199 14.466623340748562 1.5662041115511902 -1 0 0
2043 14 85.193551929081 15.431064848519028 -0.008027800490251027 -1 0 0
2044 2 85.19355192908101 17.35994805483556 1.5662041115511904 -1 0 0
1878 16 90.20493733667399 12.537740134432024 -0.00802780049025299 -1 0 0
1884 20 93.54586094173601 12.537740134432024 -0.008027800490252993 -1 0 0
2053 1 90.204937336674 14.466623340748562 1.5662041115511902 -1 0 0
2059 3 93.545860941736 14.466623340748562 1.5662041115511902 -1 0 0
2049 18 88.534475534143 15.43106484851903 -0.008027800490252715 -1 0 0
2055 14 91.875399139205 15.431064848519028 -0.008027800490249603 -1 0 0
2050 4 88.534475534143 17.359948054835556 1.5662041115511904 -1 0 0
2056 2 91.875399139205 17.359948054835563 1.5662041115511904 -1 0 0
1890 16 96.886784546798 12.537740134432024 -0.00802780049025289 -1 0 0
2065 1 96.88678454679801 14.466623340748562 1.5662041115511902 -1 0 0
2061 18 95.216322744267 15.43106484851903 -0.008027800490252717 -1 0 0
2067 14 98.557246349329 15.431064848519028 -0.008027800490251206 -1 0 0
2062 4 95.216322744267 17.359948054835556 1.5662041115511904 -1 0 0
2068 2 98.55724634932899 17.35994805483556 1.5662041115511904 -1 0 0
2076 20 1.6026106175062838e-15 18.32438956260603 -0.008027800490253244 0 0 0
2082 16 3.3409236050620024 18.32438956260603 -0.008027800490252276 0 0 0
2253 18 1.6704618025310014 21.217714276693023 -0.008027800490254675 0 0 0
2251 3 3.600361582750822e-15 20.25327276892255 1.5662041115511904 0 0 0
2257 1 3.340923605062002 20.253272768922553 1.5662041115511904 0 0 0
2259 14 5.011385407593002 21.217714276693027 -0.008027800490255524 0 0 0
2254 4 1.6704618025310014 23.146597483009554 1.5662041115511902 0 0 0
2260 2 5.011385407593 23.146597483009554 1.5662041115511902 0 0 0
2088 20 6.681847210123999 18.32438956260603 -0.008027800490253175 0 0 0
2094 16 10.022770815186 18.32438956260603 -0.008027800490252463 0 0 0
2263 3 6.681847210124001 20.25327276892255 1.5662041115511904 0 0 0
2265 18 8.352309012654999 21.217714276693023 -0.008027800490254644 0 0 0
2269 1 10.022770815186 20.25327276892255 1.5662041115511904 0 0 0
2271 14 11.693232617717001 21.217714276693023 -0.008027800490254653 0 0 0
2266 4 8.352309012654999 23.146597483009554 1.5662041115511902 0 0 0
2272 2 11.693232617717001 23.146597483009554 1.5662041115511902 0 0 0
2100 20 13.363694420248 18.32438956260603 -0.008027800490253308 0 0 0
2106 16 16.70461802531 18.32438956260603 -0.008027800490252437 0 0 0
2275 3 13.363694420247999 20.25327276892255 1.5662041115511904 0 0 0
2277 18 15.034156222779 21.217714276693023 -0.008027800490254694 0 0 0
2281 1 16.704618025309998 20.253272768922553 1.5662041115511904 0 0 0
2278 4 15.034156222779004 23.146597483009554 1.5662041115511904 0 0 0
2112 20 20.045541630372004 18.32438956260603 -0.008027800490252214 0 0 0
2118 16 23.386465235434 18.32438956260603 -0.008027800490252208 0 0 0
2283 14 18.375079827841002 21.217714276693027 -0.008027800490254826 0 0 0
2289 18 21.716003432903 21.217714276693027 -0.008027800490256518 0 0 0
2287 3 20.045541630372 20.253272768922553 1.5662041115511904 0 0 0
2293 1 23.386465235434002 20.253272768922553 1.5662041115511904 0 0 0
2284 2 18.375079827841006 23.146597483009554 1.5662041115511904 0 0 0
2290 4 21.716003432903 23.14659748300955 1.5662041115511904 0 0 0
2124 20 26.727388840496 18.32438956260603 -0.008027800490252434 0 0 0
2295 14 25.056927037965 21.217714276693027 -0.008027800490254826 0 0 0
2299 3 26.727388840496005 20.253272768922553 1.5662041115511904 0 0 0
2301 18 28.397850643027002 21.217714276693023 -0.008027800490254621 0 0 0
2296 2 25.056927037964996 23.146597483009554 1.5662041115511904 0 0 0
2302 4 28.397850643027 23.146597483009554 1.5662041115511904 0 0 0
2130 16 30.068312445558 18.32438956260603 -0.008027800490254158 0 0 0
2136 20 33.40923605062 18.32438956260603 -0.008027800490252448 0 0 0
2305 1 30.068312445558 20.25327276892255 1.5662041115511904 0 0 0
2307 14 31.738774248088998 21.217714276693023 -0.008027800490254621 0 0 0
2311 3 33.409236050619995 20.253272768922553 1.5662041115511904 0 0 0
2313 18 35.079697853150996 21.217714276693027 -0.008027800490254809 0 0 0
2308 2 31.738774248089 23.146597483009554 1.5662041115511904 0 0 0
2314 4 35.079697853151 23.146597483009554 1.5662041115511904 0 0 0
2142 16 36.750159655682005 18.32438956260603 -0.00802780049025245 0 0 0
2148 20 40.091083260744 18.32438956260603 -0.008027800490252215 0 0 0
2317 1 36.750159655682 20.253272768922553 1.5662041115511902 0 0 0
2319 14 38.420621458213 21.217714276693027 -0.008027800490254797 0 0 0
2323 3 40.091083260744 20.253272768922553 1.5662041115511904 0 0 0
2320 2 38.420621458213006 23.146597483009554 1.5662041115511904 0 0 0
2154 16 43.432006865806 18.32438956260603 -0.008027800490252219 0 0 0
2160 20 46.772930470868 18.32438956260603 -0.008027800490252432 0 0 0
2325 18 41.761545063275 21.217714276693027 -0.008027800490256542 0 0 0
2329 1 43.432006865806 20.253272768922553 1.5662041115511904 0 0 0
2331 14 45.102468668337 21.217714276693027 -0.008027800490254788 0 0 0
2335 3 46.772930470868005 20.253272768922553 1.5662041115511904 0 0 0
2326 4 41.761545063275 23.14659748300955 1.5662041115511904 0 0 0
2332 2 45.102468668336996 23.146597483009554 1.5662041115511904 0 0 0
1986 16 50.11385407593 18.32438956260603 -0.00802780049025331 -1 0 0
2337 18 48.443392273399 21.217714276693023 -0.008027800490254741 0 0 0
2161 1 50.11385407593 20.25327276892255 1.5662041115511904 -1 0 0