LAMMPS data file via write_data, version 29 Aug 2024, timestep = 2, units = metal

6120 atoms
24 atom types

0 100.22770815186 xlo xhi
0 98.373040278958 ylo yhi
-50 50 zlo zhi

Masses

1 180.94788
2 180.94788
3 180.94788
4 180.94788
5 180.94788
6 180.94788
7 180.94788
8 180.94788
9 32.06
10 32.06
11 32.06
12 32.06
13 32.06
14 32.06
15 32.06
16 32.06
17 32.06
18 32.06
19 32.06
20 32.06
21 32.06
22 32.06
23 32.06
24 32.06

Atoms # atomic

1536 16 1.6882846713371534e-15 0.9644412637031606 -0.008122938159558312 0 0 0
1542 12 3.3409236050620024 0.9644412637031597 -0.008122938159557329 0 0 0
1711 3 3.790599301851675e-15 2.8933244853937667 1.5661786737071028 0 0 0
1717 1 3.340923605062002 2.893324485393768 1.5661786737071026 0 0 0
1713 14 1.6704618025310014 3.85776597779016 -0.008122938159557136 0 0 0
1719 10 5.011385407593002 3.8577659777901614 -0.008122938159558077 0 0 0
1714 4 1.6704618025310014 5.786649199480765 1.5661786737071028 0 0 0
1720 2 5.011385407593 5.786649199480765 1.5661786737071028 0 0 0
1548 16 6.681847210123999 0.9644412637031605 -0.008122938159558312 0 0 0
1554 12 10.022770815186 0.9644412637031599 -0.008122938159557431 0 0 0
1723 3 6.681847210124001 2.8933244853937667 1.5661786737071028 0 0 0
1729 1 10.022770815186 2.893324485393768 1.5661786737071026 0 0 0
1725 14 8.352309012654999 3.85776597779016 -0.008122938159557133 0 0 0
1731 10 11.693232617717001 3.85776597779016 -0.00812293815955714 0 0 0
1726 4 8.352309012654999 5.786649199480765 1.5661786737071028 0 0 0
1732 2 11.693232617717001 5.786649199480765 1.5661786737071028 0 0 0
1560 16 13.363694420248 0.9644412637031606 -0.008122938159558411 0 0 0
1566 12 16.70461802531 0.96444126370316 -0.008122938159557646 0 0 0
1735 3 13.363694420247999 2.8933244853937667 1.5661786737071028 0 0 0
1741 1 16.704618025309998 2.893324485393768 1.5661786737071028 0 0 0
1737 14 15.034156222779 3.8577659777901605 -0.008122938159557377 0 0 0
1738 4 15.034156222779004 5.786649199480766 1.5661786737071028 0 0 0
1572 16 20.045541630372004 0.9644412637031597 -0.008122938159557478 0 0 0
1578 12 23.386465235434 0.9644412637031597 -0.00812293815955748 0 0 0
1747 3 20.045541630372 2.893324485393768 1.5661786737071028 0 0 0
1753 1 23.386465235434002 2.893324485393768 1.5661786737071028 0 0 0
1743 10 18.375079827841002 3.8577659777901605 -0.00812293815955749 0 0 0
1749 14 21.716003432903 3.8577659777901623 -0.008122938159559154 0 0 0
1744 2 18.375079827841006 5.786649199480766 1.5661786737071028 0 0 0
1750 4 21.716003432903 5.786649199480763 1.5661786737071026 0 0 0
1584 16 26.727388840496 0.96444126370316 -0.008122938159557655 0 0 0
1759 3 26.727388840496005 2.893324485393768 1.5661786737071028 0 0 0
1755 10 25.056927037965 3.8577659777901605 -0.00812293815955749 0 0 0
1761 14 28.397850643027002 3.8577659777901605 -0.008122938159557253 0 0 0
1756 2 25.056927037964996 5.786649199480766 1.5661786737071028 0 0 0
1762 4 28.397850643027 5.786649199480766 1.5661786737071028 0 0 0
1590 12 30.068312445558 0.9644412637031614 -0.008122938159559334 0 0 0
1596 16 33.40923605062 0.96444126370316 -0.008122938159557638 0 0 0
1765 1 30.068312445558 2.893324485393765 1.5661786737071026 0 0 0
1771 3 33.409236050619995 2.893324485393768 1.5661786737071028 0 0 0
1767 10 31.738774248088998 3.8577659777901605 -0.00812293815955725 0 0 0
1773 14 35.079697853150996 3.8577659777901605 -0.008122938159557481 0 0 0
1768 2 31.738774248089 5.786649199480766 1.5661786737071028 0 0 0
1774 4 35.079697853151 5.786649199480766 1.5661786737071028 0 0 0
1602 12 36.750159655682005 0.96444126370316 -0.008122938159557636 0 0 0
1608 16 40.091083260744 0.9644412637031597 -0.008122938159557485 0 0 0
1777 1 36.750159655682 2.893324485393768 1.5661786737071028 0 0 0
1783 3 40.091083260744 2.893324485393768 1.5661786737071026 0 0 0
1779 10 38.420621458213 3.8577659777901605 -0.008122938159557471 0 0 0
1780 2 38.420621458213006 5.786649199480765 1.5661786737071028 0 0 0
1614 12 43.432006865806 0.9644412637031597 -0.008122938159557485 0 0 0
1620 16 46.772930470868 0.96444126370316 -0.008122938159557617 0 0 0
1789 1 43.432006865806 2.893324485393768 1.5661786737071026 0 0 0
1795 3 46.772930470868005 2.893324485393768 1.5661786737071028 0 0 0
1785 14 41.761545063275 3.857765977790162 -0.008122938159559185 0 0 0
1791 10 45.102468668337 3.8577659777901605 -0.008122938159557454 0 0 0
1786 4 41.761545063275 5.786649199480763 1.5661786737071026 0 0 0
1792 2 45.102468668336996 5.786649199480765 1.5661786737071028 0 0 0
1446 12 50.11385407593 0.9644412637031606 -0.008122938159558432 -1 0 0
1621 1 50.11385407593001 2.8933244853937667 1.5661786737071028 -1 0 0
1797 14 48.443392273399 3.8577659777901605 -0.008122938159557317 0 0 0
1623 10 51.784315878461 3.85776597779016 -0.0081229381595572 -1 0 0
1798 4 48.443392273399 5.786649199480766 1.5661786737071028 0 0 0
1624 2 51.784315878461 5.786649199480766 1.5661786737071028 -1 0 0
1452 16 53.454777680992 0.9644412637031599 -0.008122938159557393 -1 0 0
1458 12 56.795701286054 0.9644412637031605 -0.008122938159558243 -1 0 0
1627 3 53.454777680992 2.893324485393768 1.5661786737071026 -1 0 0
1633 1 56.795701286054005 2.8933244853937667 1.5661786737071028 -1 0 0
1629 14 55.125239483523 3.8577659777901614 -0.00812293815955801 -1 0 0
1635 10 58.466163088585 3.85776597779016 -0.008122938159557188 -1 0 0
1630 4 55.125239483522996 5.786649199480765 1.5661786737071028 -1 0 0
1636 2 58.466163088585 5.786649199480766 1.5661786737071028 -1 0 0
1464 16 60.136624891116 0.9644412637031599 -0.008122938159557438 -1 0 0
1470 12 63.477548496178 0.9644412637031606 -0.00812293815955829 -1 0 0
1639 3 60.136624891116 2.893324485393768 1.5661786737071026 -1 0 0
1645 1 63.477548496177995 2.8933244853937667 1.5661786737071028 -1 0 0
1641 14 61.807086693647 3.85776597779016 -0.00812293815955719 -1 0 0
1642 4 61.807086693647 5.786649199480766 1.5661786737071028 -1 0 0
1476 16 66.81847210124 0.9644412637031601 -0.00812293815955789 -1 0 0
1482 12 70.159395706302 0.9644412637031597 -0.008122938159557362 -1 0 0
1651 3 66.81847210124 2.893324485393768 1.5661786737071028 -1 0 0
1657 1 70.15939570630199 2.8933244853937685 1.5661786737071028 -1 0 0
1647 10 65.148010298709 3.8577659777901605 -0.008122938159557194 -1 0 0
1653 14 68.488933903771 3.8577659777901605 -0.008122938159557723 -1 0 0
1648 2 65.14801029870901 5.786649199480766 1.5661786737071028 -1 0 0
1654 4 68.488933903771 5.786649199480765 1.5661786737071028 -1 0 0
1488 16 73.500319311364 0.9644412637031599 -0.0081229381595576 -1 0 0
1663 3 73.50031931136401 2.893324485393768 1.5661786737071026 -1 0 0
1659 10 71.829857508833 3.857765977790162 -0.008122938159558906 -1 0 0
1665 14 75.170781113895 3.8577659777901605 -0.008122938159557358 -1 0 0
1660 2 71.829857508833 5.786649199480763 1.5661786737071026 -1 0 0
1666 4 75.17078111389499 5.786649199480766 1.5661786737071028 -1 0 0
1494 12 76.841242916426 0.9644412637031613 -0.008122938159559105 -1 0 0
1500 16 80.182166521488 0.9644412637031586 -0.008122938159556224 -1 0 0
1669 1 76.841242916426 2.893324485393765 1.5661786737071028 -1 0 0
1675 3 80.182166521488 2.893324485393771 1.5661786737071028 -1 0 0
1671 10 78.51170471895699 3.8577659777901605 -0.008122938159557488 -1 0 0
1677 14 81.85262832401901 3.8577659777901605 -0.008122938159557488 -1 0 0
1672 2 78.511704718957 5.786649199480766 1.5661786737071028 -1 0 0
1678 4 81.852628324019 5.786649199480766 1.5661786737071028 -1 0 0
1506 12 83.52309012655 0.9644412637031613 -0.008122938159559105 -1 0 0
1512 16 86.864013731612 0.9644412637031599 -0.008122938159557598 -1 0 0
1681 1 83.52309012655 2.893324485393765 1.5661786737071028 -1 0 0
1687 3 86.86401373161199 2.893324485393768 1.5661786737071026 -1 0 0
1683 10 85.193551929081 3.8577659777901605 -0.00812293815955736 -1 0 0
1684 2 85.19355192908101 5.786649199480766 1.5661786737071028 -1 0 0
1518 12 90.20493733667399 0.96444126370316 -0.008122938159557664 -1 0 0
1524 16 93.54586094173601 0.96444126370316 -0.008122938159557665 -1 0 0
1693 1 90.204937336674 2.893324485393768 1.5661786737071028 -1 0 0
1699 3 93.545860941736 2.893324485393768 1.5661786737071028 -1 0 0
1689 14 88.534475534143 3.857765977790162 -0.008122938159558907 -1 0 0
1695 10 91.875399139205 3.857765977790159 -0.008122938159556004 -1 0 0
1690 4 88.534475534143 5.786649199480763 1.5661786737071026 -1 0 0
1696 2 91.875399139205 5.7866491994807685 1.5661786737071028 -1 0 0
1530 12 96.886784546798 0.9644412637031599 -0.0081229381595576 -1 0 0
1705 1 96.88678454679801 2.893324485393768 1.5661786737071028 -1 0 0
1701 14 95.216322744267 3.857765977790162 -0.00812293815955891 -1 0 0
1707 10 98.557246349329 3.8577659777901605 -0.008122938159557566 -1 0 0
1702 4 95.216322744267 5.786649199480763 1.5661786737071026 -1 0 0
1708 2 98.55724634932899 5.786649199480766 1.5661786737071028 -1 0 0
1716 16 1.4002541611438874e-15 6.751090691877159 -0.008122938159558078 0 0 0
1722 12 3.3409236050620024 6.751090691877159 -0.008122938159557377 0 0 0
1891 3 3.562289541854147e-15 8.67997391356776 1.5661786737071028 0 0 0
1897 1 3.340923605062002 8.679973913567762 1.5661786737071028 0 0 0
1893 14 1.6704618025310014 9.644415405964157 -0.008122938159558593 0 0 0
1899 10 5.011385407593002 9.644415405964159 -0.008122938159559296 0 0 0
1894 4 1.6704618025310014 11.573298627654765 1.5661786737071026 0 0 0
1900 2 5.011385407593 11.573298627654763 1.5661786737071028 0 0 0
1728 16 6.681847210123999 6.751090691877159 -0.008122938159558113 0 0 0
1734 12 10.022770815186 6.751090691877158 -0.008122938159557492 0 0 0
1903 3 6.681847210124001 8.67997391356776 1.5661786737071028 0 0 0
1909 1 10.022770815186 8.67997391356776 1.5661786737071028 0 0 0
1905 14 8.352309012654999 9.644415405964157 -0.00812293815955856 0 0 0
1911 10 11.693232617717001 9.644415405964157 -0.00812293815955857 0 0 0
1906 4 8.352309012654999 11.573298627654765 1.5661786737071026 0 0 0
1912 2 11.693232617717001 11.573298627654765 1.5661786737071026 0 0 0
1740 16 13.363694420248 6.751090691877159 -0.008122938159558182 0 0 0
1746 12 16.70461802531 6.751090691877158 -0.008122938159557358 0 0 0
1915 3 13.363694420247999 8.67997391356776 1.5661786737071028 0 0 0
1921 1 16.704618025309998 8.67997391356776 1.5661786737071026 0 0 0
1917 14 15.034156222779 9.644415405964157 -0.008122938159558455 0 0 0
1918 4 15.034156222779004 11.573298627654763 1.5661786737071028 0 0 0
1752 16 20.045541630372004 6.751090691877159 -0.008122938159557147 0 0 0
1758 12 23.386465235434 6.751090691877159 -0.008122938159557141 0 0 0
1927 3 20.045541630372 8.679973913567762 1.5661786737071026 0 0 0
1933 1 23.386465235434002 8.679973913567762 1.5661786737071026 0 0 0
1923 10 18.375079827841002 9.644415405964157 -0.008122938159558531 0 0 0
1929 14 21.716003432903 9.644415405964159 -0.008122938159560117 0 0 0
1924 2 18.375079827841006 11.573298627654763 1.5661786737071026 0 0 0
1930 4 21.716003432903 11.573298627654761 1.5661786737071028 0 0 0
1764 16 26.727388840496 6.751090691877158 -0.008122938159557362 0 0 0
1939 3 26.727388840496005 8.67997391356776 1.5661786737071026 0 0 0
1935 10 25.056927037965 9.644415405964157 -0.008122938159558533 0 0 0
1941 14 28.397850643027002 9.644415405964157 -0.008122938159558314 0 0 0
1936 2 25.056927037964996 11.573298627654763 1.5661786737071026 0 0 0
1942 4 28.397850643027 11.573298627654765 1.5661786737071028 0 0 0
1770 12 30.068312445558 6.75109069187716 -0.00812293815955894 0 0 0
1776 16 33.40923605062 6.751090691877158 -0.008122938159557346 0 0 0
1945 1 30.068312445558 8.67997391356776 1.5661786737071026 0 0 0
1951 3 33.409236050619995 8.67997391356776 1.5661786737071026 0 0 0
1947 10 31.738774248088998 9.644415405964157 -0.008122938159558309 0 0 0
1953 14 35.079697853150996 9.644415405964157 -0.008122938159558515 0 0 0
1948 2 31.738774248089 11.573298627654765 1.5661786737071028 0 0 0
1954 4 35.079697853151 11.573298627654763 1.5661786737071028 0 0 0
1782 12 36.750159655682005 6.751090691877158 -0.00812293815955733 0 0 0
1788 16 40.091083260744 6.751090691877159 -0.00812293815955715 0 0 0
1957 1 36.750159655682 8.67997391356776 1.5661786737071026 0 0 0
1963 3 40.091083260744 8.679973913567762 1.5661786737071026 0 0 0
1959 10 38.420621458213 9.644415405964157 -0.008122938159558524 0 0 0
1960 2 38.420621458213006 11.573298627654763 1.5661786737071028 0 0 0
1794 12 43.432006865806 6.751090691877159 -0.008122938159557147 0 0 0
1800 16 46.772930470868 6.751090691877158 -0.008122938159557313 0 0 0
1969 1 43.432006865806 8.679973913567762 1.5661786737071026 0 0 0
1975 3 46.772930470868005 8.67997391356776 1.5661786737071024 0 0 0
1965 14 41.761545063275 9.644415405964159 -0.00812293815956015 0 0 0
1971 10 45.102468668337 9.644415405964157 -0.008122938159558526 0 0 0
1966 4 41.761545063275 11.573298627654761 1.5661786737071028 0 0 0
1972 2 45.102468668336996 11.573298627654763 1.5661786737071026 0 0 0
1626 12 50.11385407593 6.751090691877159 -0.008122938159558198 -1 0 0
1801 1 50.11385407593 8.67997391356776 1.5661786737071028 -1 0 0
1977 14 48.443392273399006 9.644415405964157 -0.008122938159558522 0 0 0
1803 10 51.784315878461 9.644415405964157 -0.008122938159558536 -1 0 0
1978 4 48.443392273399 11.573298627654763 1.5661786737071028 0 0 0
1804 2 51.784315878461 11.573298627654765 1.5661786737071026 -1 0 0
1632 16 53.454777680992 6.751090691877159 -0.008122938159557436 -1 0 0
1638 12 56.795701286054 6.751090691877159 -0.008122938159558056 -1 0 0
1807 3 53.454777680992 8.679973913567762 1.5661786737071028 -1 0 0
1813 1 56.795701286054005 8.67997391356776 1.5661786737071028 -1 0 0
1809 14 55.125239483523 9.644415405964159 -0.008122938159559234 -1 0 0
1815 10 58.466163088585 9.644415405964157 -0.008122938159558633 -1 0 0
1810 4 55.125239483522996 11.573298627654763 1.5661786737071028 -1 0 0
1816 2 58.466163088585 11.573298627654765 1.5661786737071026 -1 0 0
1644 16 60.136624891116 6.751090691877158 -0.0081229381595575 -1 0 0
1650 12 63.477548496178 6.751090691877159 -0.008122938159558061 -1 0 0
1819 3 60.136624891116 8.67997391356776 1.5661786737071028 -1 0 0
1825 1 63.477548496178 8.67997391356776 1.5661786737071028 -1 0 0
1821 14 61.807086693647 9.644415405964157 -0.008122938159558514 -1 0 0
1822 4 61.807086693647 11.573298627654765 1.5661786737071026 -1 0 0
1656 16 66.81847210124 6.751090691877159 -0.008122938159557587 -1 0 0
1662 12 70.159395706302 6.751090691877158 -0.00812293815955703 -1 0 0
1831 3 66.81847210124 8.67997391356776 1.5661786737071026 -1 0 0
1837 1 70.15939570630199 8.679973913567762 1.5661786737071026 -1 0 0
1827 10 65.148010298709 9.644415405964157 -0.0081229381595584 -1 0 0
1833 14 68.488933903771 9.644415405964157 -0.008122938159558784 -1 0 0
1828 2 65.14801029870901 11.573298627654763 1.5661786737071028 -1 0 0
1834 4 68.488933903771 11.573298627654763 1.5661786737071026 -1 0 0
1668 16 73.500319311364 6.751090691877159 -0.008122938159557261 -1 0 0
1843 3 73.50031931136401 8.679973913567762 1.5661786737071026 -1 0 0
1839 10 71.829857508833 9.644415405964159 -0.008122938159559867 -1 0 0
1845 14 75.170781113895 9.644415405964157 -0.008122938159558446 -1 0 0
1840 2 71.829857508833 11.573298627654761 1.5661786737071028 -1 0 0
1846 4 75.17078111389499 11.573298627654765 1.5661786737071028 -1 0 0
1674 12 76.841242916426 6.75109069187716 -0.00812293815955871 -1 0 0
1680 16 80.182166521488 6.751090691877158 -0.008122938159555964 -1 0 0
1849 1 76.841242916426 8.679973913567759 1.5661786737071026 -1 0 0
1855 3 80.182166521488 8.679973913567764 1.5661786737071028 -1 0 0
1851 10 78.51170471895699 9.644415405964157 -0.008122938159558534 -1 0 0
1857 14 81.85262832401901 9.644415405964157 -0.008122938159558534 -1 0 0
1852 2 78.511704718957 11.573298627654763 1.5661786737071026 -1 0 0
1858 4 81.852628324019 11.573298627654763 1.5661786737071026 -1 0 0
1686 12 83.52309012655 6.75109069187716 -0.008122938159558711 -1 0 0
1692 16 86.864013731612 6.751090691877159 -0.00812293815955726 -1 0 0
1861 1 83.52309012655 8.679973913567759 1.5661786737071026 -1 0 0
1867 3 86.86401373161199 8.679973913567762 1.5661786737071026 -1 0 0
1863 10 85.193551929081 9.644415405964157 -0.008122938159558446 -1 0 0
1864 2 85.19355192908101 11.573298627654765 1.5661786737071028 -1 0 0
1698 12 90.20493733667399 6.751090691877158 -0.008122938159557374 -1 0 0
1704 16 93.54586094173601 6.751090691877158 -0.008122938159557374 -1 0 0
1873 1 90.204937336674 8.67997391356776 1.5661786737071026 -1 0 0
1879 3 93.545860941736 8.67997391356776 1.5661786737071026 -1 0 0
1869 14 88.534475534143 9.644415405964159 -0.008122938159559865 -1 0 0
1875 10 91.875399139205 9.644415405964155 -0.008122938159557176 -1 0 0
1870 4 88.534475534143 11.573298627654761 1.5661786737071028 -1 0 0
1876 2 91.875399139205 11.573298627654767 1.5661786737071028 -1 0 0
1710 12 96.886784546798 6.751090691877159 -0.008122938159557256 -1 0 0
1885 1 96.88678454679801 8.679973913567762 1.5661786737071026 -1 0 0
1881 14 95.216322744267 9.644415405964159 -0.008122938159559863 -1 0 0
1887 10 98.557246349329 9.644415405964157 -0.008122938159558656 -1 0 0
1882 4 95.216322744267 11.573298627654761 1.5661786737071028 -1 0 0
1888 2 98.55724634932899 11.573298627654763 1.5661786737071028 -1 0 0
1896 16 1.681716903691556e-15 12.537740120051158 -0.008122938159558528 0 0 0
1902 12 3.3409236050620024 12.537740120051156 -0.008122938159557589 0 0 0
2071 3 3.78721867356498e-15 14.466623341741768 1.5661786737071028 0 0 0
2077 1 3.340923605062002 14.46662334174177 1.5661786737071026 0 0 0
2073 14 1.6704618025310014 15.431064834138162 -0.008122938159556049 0 0 0
2079 10 5.011385407593002 15.431064834138162 -0.008122938159556876 0 0 0
2074 4 1.6704618025310014 17.359948055828763 1.5661786737071028 0 0 0
2080 2 5.011385407593 17.359948055828763 1.5661786737071028 0 0 0
1908 16 6.681847210123999 12.537740120051158 -0.008122938159558555 0 0 0
1914 12 10.022770815186 12.537740120051156 -0.008122938159557667 0 0 0
2083 3 6.681847210124001 14.466623341741768 1.5661786737071028 0 0 0
2089 1 10.022770815186 14.46662334174177 1.5661786737071026 0 0 0
2085 14 8.352309012654999 15.431064834138162 -0.00812293815955605 0 0 0
2091 10 11.693232617717001 15.431064834138162 -0.008122938159556057 0 0 0
2086 4 8.352309012654999 17.359948055828763 1.5661786737071028 0 0 0
2092 2 11.693232617717001 17.359948055828763 1.5661786737071028 0 0 0
1920 16 13.363694420248 12.537740120051158 -0.008122938159558632 0 0 0
1926 12 16.70461802531 12.537740120051158 -0.008122938159557884 0 0 0
2095 3 13.363694420247999 14.466623341741768 1.5661786737071028 0 0 0
2101 1 16.704618025309998 14.46662334174177 1.5661786737071026 0 0 0
2097 14 15.034156222779 15.431064834138162 -0.008122938159556094 0 0 0
2098 4 15.034156222779004 17.359948055828763 1.5661786737071028 0 0 0
1932 16 20.045541630372004 12.537740120051156 -0.008122938159557717 0 0 0
1938 12 23.386465235434 12.537740120051156 -0.00812293815955772 0 0 0
2107 3 20.045541630372 14.46662334174177 1.5661786737071026 0 0 0
2113 1 23.386465235434002 14.46662334174177 1.5661786737071026 0 0 0
2103 10 18.375079827841002 15.431064834138162 -0.008122938159556189 0 0 0
2109 14 21.716003432903 15.431064834138164 -0.008122938159557863 0 0 0
2104 2 18.375079827841006 17.359948055828763 1.5661786737071028 0 0 0
2110 4 21.716003432903 17.35994805582876 1.5661786737071028 0 0 0
1944 16 26.727388840496 12.537740120051158 -0.008122938159557884 0 0 0
2119 3 26.727388840496005 14.46662334174177 1.5661786737071026 0 0 0
2115 10 25.056927037965 15.431064834138162 -0.008122938159556189 0 0 0
2121 14 28.397850643027002 15.431064834138162 -0.008122938159555998 0 0 0
2116 2 25.056927037964996 17.359948055828763 1.5661786737071028 0 0 0
2122 4 28.397850643027 17.359948055828763 1.5661786737071028 0 0 0
1950 12 30.068312445558 12.537740120051158 -0.008122938159559598 0 0 0
1956 16 33.40923605062 12.537740120051158 -0.008122938159557898 0 0 0
2125 1 30.068312445558 14.466623341741766 1.5661786737071026 0 0 0
2131 3 33.409236050619995 14.46662334174177 1.5661786737071026 0 0 0
2127 10 31.738774248088998 15.431064834138162 -0.008122938159555995 0 0 0
2133 14 35.079697853150996 15.431064834138162 -0.008122938159556182 0 0 0
2128 2 31.738774248089 17.359948055828763 1.5661786737071028 0 0 0
2134 4 35.079697853151 17.359948055828763 1.5661786737071028 0 0 0
1962 12 36.750159655682005 12.537740120051158 -0.008122938159557886 0 0 0
1968 16 40.091083260744 12.537740120051156 -0.008122938159557724 0 0 0
2137 1 36.750159655682 14.46662334174177 1.5661786737071026 0 0 0
2143 3 40.091083260744 14.46662334174177 1.5661786737071026 0 0 0
2139 10 38.420621458213 15.431064834138162 -0.008122938159556163 0 0 0
2140 2 38.420621458213006 17.359948055828763 1.5661786737071028 0 0 0
1974 12 43.432006865806 12.537740120051156 -0.008122938159557724 0 0 0
1980 16 46.772930470868 12.537740120051158 -0.008122938159557887 0 0 0
2149 1 43.432006865806 14.46662334174177 1.5661786737071026 0 0 0
2155 3 46.772930470868005 14.46662334174177 1.5661786737071026 0 0 0
2145 14 41.761545063275 15.431064834138164 -0.008122938159557896 0 0 0
2151 10 45.102468668337 15.431064834138162 -0.008122938159556147 0 0 0
2146 4 41.761545063275 17.35994805582876 1.5661786737071028 0 0 0
2152 2 45.102468668336996 17.359948055828763 1.5661786737071028 0 0 0
1806 12 50.11385407593 12.537740120051158 -0.008122938159558616 -1 0 0
1981 1 50.11385407593001 14.466623341741768 1.5661786737071028 -1 0 0
2157 14 48.443392273399 15.431064834138162 -0.008122938159556012 0 0 0
1983 10 51.784315878461 15.431064834138162 -0.008122938159556127 -1 0 0
2158 4 48.443392273399 17.359948055828763 1.5661786737071028 0 0 0
1984 2 51.784315878461 17.359948055828763 1.5661786737071028 -1 0 0
1812 16 53.454777680992 12.537740120051156 -0.00812293815955765 -1 0 0
1818 12 56.795701286054 12.537740120051158 -0.008122938159558498 -1 0 0
1987 3 53.454777680992 14.46662334174177 1.5661786737071026 -1 0 0
1993 1 56.795701286054005 14.466623341741768 1.5661786737071028 -1 0 0
1989 14 55.125239483523 15.431064834138162 -0.008122938159556812 -1 0 0
1995 10 58.466163088585 15.431064834138162 -0.008122938159556121 -1 0 0
1990 4 55.125239483522996 17.359948055828763 1.5661786737071028 -1 0 0
1996 2 58.466163088585 17.359948055828763 1.5661786737071028 -1 0 0
1824 16 60.136624891116 12.537740120051156 -0.008122938159557672 -1 0 0
1830 12 63.477548496178 12.537740120051158 -0.008122938159558507 -1 0 0
1999 3 60.136624891116 14.46662334174177 1.5661786737071026 -1 0 0
2005 1 63.477548496177995 14.466623341741768 1.5661786737071028 -1 0 0
2001 14 61.807086693647 15.431064834138162 -0.008122938159556123 -1 0 0
2002 4 61.807086693647 17.359948055828763 1.5661786737071026 -1 0 0
1836 16 66.81847210124 12.537740120051158 -0.00812293815955812 -1 0 0
1842 12 70.159395706302 12.537740120051156 -0.008122938159557601 -1 0 0
2011 3 66.81847210124 14.46662334174177 1.5661786737071026 -1 0 0
2017 1 70.15939570630199 14.46662334174177 1.5661786737071026 -1 0 0
2007 10 65.148010298709 15.431064834138162 -0.00812293815955591 -1 0 0
2013 14 68.488933903771 15.431064834138162 -0.008122938159556415 -1 0 0
2008 2 65.14801029870901 17.359948055828763 1.5661786737071028 -1 0 0
2014 4 68.488933903771 17.359948055828763 1.5661786737071028 -1 0 0
1848 16 73.500319311364 12.537740120051156 -0.008122938159557851 -1 0 0
2023 3 73.50031931136401 14.46662334174177 1.5661786737071026 -1 0 0
2019 10 71.829857508833 15.431064834138162 -0.008122938159557617 -1 0 0
2025 14 75.170781113895 15.431064834138162 -0.008122938159556095 -1 0 0
2020 2 71.829857508833 17.35994805582876 1.5661786737071028 -1 0 0
2026 4 75.17078111389499 17.359948055828763 1.5661786737071028 -1 0 0
1854 12 76.841242916426 12.537740120051158 -0.008122938159559357 -1 0 0
1860 16 80.182166521488 12.537740120051156 -0.008122938159556456 -1 0 0
2029 1 76.841242916426 14.466623341741766 1.5661786737071026 -1 0 0
2035 3 80.182166521488 14.466623341741771 1.5661786737071026 -1 0 0
2031 10 78.51170471895699 15.431064834138162 -0.008122938159556186 -1 0 0
2037 14 81.85262832401901 15.431064834138162 -0.008122938159556186 -1 0 0
2032 2 78.511704718957 17.359948055828763 1.5661786737071028 -1 0 0
2038 4 81.852628324019 17.359948055828763 1.5661786737071028 -1 0 0
1866 12 83.52309012655 12.537740120051158 -0.008122938159559357 -1 0 0
1872 16 86.864013731612 12.537740120051156 -0.00812293815955785 -1 0 0
2041 1 83.52309012655 14.466623341741766 1.5661786737071026 -1 0 0
2047 3 86.86401373161199 14.46662334174177 1.5661786737071026 -1 0 0
2043 10 85.193551929081 15.431064834138162 -0.008122938159556092 -1 0 0
2044 2 85.19355192908101 17.359948055828763 1.5661786737071028 -1 0 0
1878 12 90.20493733667399 12.537740120051158 -0.008122938159557907 -1 0 0
1884 16 93.54586094173601 12.537740120051156 -0.008122938159557917 -1 0 0
2053 1 90.204937336674 14.46662334174177 1.5661786737071026 -1 0 0
2059 3 93.545860941736 14.46662334174177 1.5661786737071026 -1 0 0
2049 14 88.534475534143 15.431064834138162 -0.008122938159557625 -1 0 0
2055 10 91.875399139205 15.43106483413816 -0.008122938159554739 -1 0 0
2050 4 88.534475534143 17.35994805582876 1.5661786737071028 -1 0 0
2056 2 91.875399139205 17.359948055828767 1.5661786737071028 -1 0 0
1890 12 96.886784546798 12.537740120051156 -0.008122938159557827 -1 0 0
2065 1 96.88678454679801 14.46662334174177 1.5661786737071026 -1 0 0
2061 14 95.216322744267 15.431064834138162 -0.008122938159557629 -1 0 0
2067 10 98.557246349329 15.431064834138162 -0.008122938159556255 -1 0 0
2062 4 95.216322744267 17.35994805582876 1.5661786737071028 -1 0 0
2068 2 98.55724634932899 17.359948055828763 1.5661786737071028 -1 0 0
2076 16 1.571263292091207e-15 18.32438954822516 -0.008122938159558151 0 0 0
2082 12 3.3409236050620024 18.324389548225156 -0.008122938159557263 0 0 0
2253 14 1.6704618025310014 21.217714262312153 -0.008122938159559499 0 0 0
2251 3 3.673900746744532e-15 20.253272769915753 1.5661786737071028 0 0 0
2257 1 3.340923605062002 20.253272769915757 1.5661786737071026 0 0 0
2259 10 5.011385407593002 21.217714262312153 -0.008122938159560444 0 0 0
2254 4 1.6704618025310014 23.14659748400276 1.5661786737071026 0 0 0
2260 2 5.011385407593 23.146597484002758 1.5661786737071028 0 0 0
2088 16 6.681847210123999 18.32438954822516 -0.00812293815955811 0 0 0
2094 12 10.022770815186 18.32438954822516 -0.008122938159557334 0 0 0
2263 3 6.681847210124001 20.253272769915757 1.5661786737071028 0 0 0
2265 14 8.352309012654999 21.217714262312153 -0.008122938159559528 0 0 0
2269 1 10.022770815186 20.253272769915757 1.5661786737071028 0 0 0
2271 10 11.693232617717001 21.217714262312153 -0.008122938159559496 0 0 0
2266 4 8.352309012654999 23.14659748400276 1.5661786737071026 0 0 0
2272 2 11.693232617717001 23.14659748400276 1.5661786737071026 0 0 0
2100 16 13.363694420248 18.32438954822516 -0.008122938159558247 0 0 0
2106 12 16.70461802531 18.32438954822516 -0.008122938159557384 0 0 0
2275 3 13.363694420247999 20.253272769915753 1.5661786737071028 0 0 0
2277 14 15.034156222779 21.217714262312153 -0.008122938159559516 0 0 0
2281 1 16.704618025309998 20.253272769915757 1.5661786737071028 0 0 0
2278 4 15.034156222779004 23.14659748400276 1.5661786737071028 0 0 0
2112 16 20.045541630372004 18.324389548225156 -0.00812293815955721 0 0 0
2118 12 23.386465235434 18.324389548225156 -0.00812293815955721 0 0 0
2283 10 18.375079827841002 21.217714262312153 -0.008122938159559622 0 0 0
2289 14 21.716003432903 21.217714262312157 -0.008122938159561329 0 0 0
2287 3 20.045541630372 20.253272769915757 1.5661786737071026 0 0 0
2293 1 23.386465235434002 20.253272769915757 1.5661786737071026 0 0 0
2284 2 18.375079827841006 23.14659748400276 1.5661786737071028 0 0 0
2290 4 21.716003432903 23.146597484002758 1.5661786737071028 0 0 0
2124 16 26.727388840496 18.32438954822516 -0.008122938159557377 0 0 0
2295 10 25.056927037965 21.217714262312153 -0.008122938159559622 0 0 0
2299 3 26.727388840496005 20.253272769915757 1.5661786737071028 0 0 0
2301 14 28.397850643027002 21.217714262312153 -0.008122938159559426 0 0 0
2296 2 25.056927037964996 23.14659748400276 1.5661786737071028 0 0 0
2302 4 28.397850643027 23.14659748400276 1.5661786737071028 0 0 0
2130 12 30.068312445558 18.32438954822516 -0.008122938159559098 0 0 0
2136 16 33.40923605062 18.32438954822516 -0.008122938159557358 0 0 0
2305 1 30.068312445558 20.253272769915753 1.5661786737071026 0 0 0
2307 10 31.738774248088998 21.217714262312153 -0.008122938159559421 0 0 0
2311 3 33.409236050619995 20.253272769915757 1.5661786737071028 0 0 0
2313 14 35.079697853150996 21.217714262312153 -0.008122938159559641 0 0 0
2308 2 31.738774248089 23.14659748400276 1.5661786737071026 0 0 0
2314 4 35.079697853151 23.14659748400276 1.5661786737071028 0 0 0
2142 12 36.750159655682005 18.32438954822516 -0.008122938159557358 0 0 0
2148 16 40.091083260744 18.324389548225156 -0.008122938159557216 0 0 0
2317 1 36.750159655682 20.253272769915757 1.5661786737071028 0 0 0
2319 10 38.420621458213 21.217714262312153 -0.00812293815955963 0 0 0
2323 3 40.091083260744 20.253272769915757 1.5661786737071026 0 0 0
2320 2 38.420621458213006 23.14659748400276 1.5661786737071028 0 0 0
2154 12 43.432006865806 18.324389548225156 -0.008122938159557218 0 0 0
2160 16 46.772930470868 18.32438954822516 -0.008122938159557341 0 0 0
2325 14 41.761545063275 21.217714262312157 -0.00812293815956136 0 0 0
2329 1 43.432006865806 20.253272769915757 1.5661786737071026 0 0 0
2331 10 45.102468668337 21.217714262312153 -0.008122938159559613 0 0 0
2335 3 46.772930470868005 20.253272769915757 1.5661786737071028 0 0 0
2326 4 41.761545063275 23.146597484002758 1.5661786737071028 0 0 0
2332 2 45.102468668336996 23.14659748400276 1.5661786737071028 0 0 0
1986 12 50.11385407593 18.32438954822516 -0.008122938159558267 -1 0 0
2337 14 48.443392273399 21.217714262312153 -0.008122938159559567 0 0 0
2161 1 50.11385407593 20.253272769915753 1.5661786737071028 -1 0 0
2163 10 51.784315878461 21.217714262312153 -0.008122938159559463 -1 0 0
2338 4 48.443392273399 23.14659748400276 1.5661786737071028 0 0 0