LAMMPS data file via write_data, version 29 Aug 2024, timestep = 2, units = metal

7290 atoms
9 atom types

0 101.094669625239 xlo xhi
0 97.27839120294 ylo yhi
-50 50 zlo zhi

Masses

1 47.867
2 47.867
3 47.867
4 127.6
5 127.6
6 127.6
7 127.6
8 127.6
9 127.6

Atoms # atomic

1381 1 1.871722495182021 3.242197973303384 1.741982534093588 0 0 0
1222 5 3.744253981876707 2.1617422131593904 0.023470326895562305 0 0 0
1387 1 5.61596951833902 3.2421979733033837 1.741982534093587 0 0 0
1383 5 1.8721304702983228 5.40435525325739 0.023470326895561843 0 0 0
1389 5 5.616377493455323 5.404355253257391 0.023470326895562242 0 0 0
1216 5 6.958719708904937e-06 2.161742213159389 0.023470326895560764 0 0 0
1228 5 7.488501005033708 2.1617422131593904 0.023470326895561867 0 0 0
1393 1 9.36021654149602 3.242197973303383 1.7419825340935868 0 0 0
1234 5 11.23274802819071 2.1617422131593904 0.023470326895561864 0 0 0
1395 5 9.360624516612324 5.404355253257391 0.023470326895562103 0 0 0
1399 1 13.10446356465302 3.2421979733033837 1.7419825340935873 0 0 0
1240 5 14.976995051347709 2.16174221315939 0.02347032689556137 0 0 0
1405 1 16.84871058781002 3.2421979733033837 1.741982534093587 0 0 0
1401 5 13.104871539769324 5.404355253257391 0.023470326895562332 0 0 0
1407 5 16.849118562926325 5.404355253257391 0.02347032689556227 0 0 0
1246 5 18.72124207450471 2.1617422131593904 0.02347032689556213 0 0 0
1411 1 20.59295761096702 3.2421979733033837 1.741982534093587 0 0 0
1252 5 22.46548909766171 2.1617422131593904 0.023470326895562436 0 0 0
1413 5 20.593365586083323 5.404355253257391 0.023470326895562353 0 0 0
1417 1 24.33720463412402 3.242197973303384 1.7419825340935884 0 0 0
1258 5 26.209736120818704 2.1617422131593904 0.02347032689556278 0 0 0
1423 1 28.08145165728102 3.2421979733033837 1.7419825340935873 0 0 0
1419 5 24.337612609240324 5.404355253257389 0.023470326895561486 0 0 0
1425 5 28.08185963239732 5.404355253257391 0.023470326895562242 0 0 0
1264 5 29.953983143975705 2.1617422131593904 0.023470326895562166 0 0 0
1270 5 33.69823016713271 2.1617422131593904 0.023470326895561916 0 0 0
1429 1 31.82569868043802 3.2421979733033837 1.7419825340935875 0 0 0
1435 1 35.56994570359502 3.2421979733033837 1.7419825340935873 0 0 0
1431 5 31.826106655554323 5.404355253257391 0.023470326895562412 0 0 0
1437 5 35.57035367871133 5.404355253257391 0.023470326895562332 0 0 0
1276 5 37.44247719028971 2.1617422131593904 0.02347032689556186 0 0 0
1441 1 39.31419272675202 3.2421979733033828 1.741982534093586 0 0 0
1282 5 41.18672421344671 2.1617422131593904 0.023470326895561864 0 0 0
1443 5 39.31460070186833 5.404355253257391 0.023470326895562183 0 0 0
1447 1 43.05843974990902 3.2421979733033837 1.741982534093587 0 0 0
1288 5 44.93097123660371 2.1617422131593904 0.023470326895562135 0 0 0
1453 1 46.80268677306602 3.2421979733033837 1.741982534093587 0 0 0
1449 5 43.05884772502533 5.404355253257391 0.023470326895562364 0 0 0
1455 5 46.80309474818233 5.404355253257391 0.023470326895562357 0 0 0
1294 5 48.67521825976071 2.1617422131593904 0.02347032689556194 0 0 0
1297 1 50.54693379622302 3.242197973303383 1.7419825340935868 -1 0 0
1138 5 52.41946528291771 2.1617422131593904 0.023470326895562166 -1 0 0
1299 5 50.54734177133933 5.404355253257391 0.02347032689556275 -1 0 0
1303 1 54.291180819380024 3.242197973303384 1.741982534093588 -1 0 0
1144 5 56.163712306074714 2.1617422131593904 0.023470326895562457 -1 0 0
1309 1 58.035427842537025 3.2421979733033837 1.741982534093587 -1 0 0
1305 5 54.291588794496334 5.40435525325739 0.02347032689556195 -1 0 0
1311 5 58.035835817653336 5.404355253257391 0.023470326895562475 -1 0 0
1150 5 59.907959329231716 2.16174221315939 0.02347032689556163 -1 0 0
1315 1 61.77967486569403 3.2421979733033837 1.741982534093587 -1 0 0
1156 5 63.65220635238872 2.1617422131593904 0.023470326895561812 -1 0 0
1317 5 61.78008284081033 5.404355253257391 0.023470326895561985 -1 0 0
1162 5 67.39645337554572 2.1617422131593904 0.023470326895562454 -1 0 0
1321 1 65.52392188885104 3.242197973303383 1.7419825340935868 -1 0 0
1327 1 69.26816891200804 3.242197973303384 1.7419825340935877 -1 0 0
1168 5 71.1407003987027 2.1617422131593904 0.02347032689556283 -1 0 0
1323 5 65.52432986396732 5.404355253257391 0.023470326895563214 -1 0 0
1329 5 69.26857688712433 5.404355253257389 0.0234703268955615 -1 0 0
1333 1 73.01241593516502 3.2421979733033837 1.741982534093587 -1 0 0
1174 5 74.8849474218597 2.16174221315939 0.023470326895560896 -1 0 0
1339 1 76.75666295832202 3.242197973303383 1.7419825340935866 -1 0 0
1335 5 73.01282391028133 5.404355253257391 0.02347032689556243 -1 0 0
1341 5 76.75707093343833 5.404355253257391 0.023470326895562228 -1 0 0
1180 5 78.62919444501671 2.1617422131593904 0.023470326895562194 -1 0 0
1345 1 80.50090998147903 3.242197973303384 1.7419825340935877 -1 0 0
1186 5 82.37344146817371 2.1617422131593904 0.0234703268955622 -1 0 0
1347 5 80.50131795659533 5.404355253257391 0.0234703268955626 -1 0 0
1351 1 84.24515700463603 3.242197973303383 1.7419825340935866 -1 0 0
1192 5 86.11768849133071 2.1617422131593895 0.023470326895560847 -1 0 0
1357 1 87.98940402779303 3.2421979733033837 1.7419825340935873 -1 0 0
1353 5 84.24556497975233 5.404355253257391 0.0234703268955615 -1 0 0
1359 5 87.98981200290932 5.404355253257391 0.023470326895562284 -1 0 0
1198 5 89.86193551448771 2.1617422131593913 0.023470326895563175 -1 0 0
1363 1 91.73365105095003 3.2421979733033837 1.7419825340935873 -1 0 0
1204 5 93.60618253764471 2.1617422131593895 0.02347032689556172 -1 0 0
1365 5 91.73405902606633 5.404355253257391 0.023470326895562395 -1 0 0
1369 1 95.47789807410703 3.2421979733033846 1.7419825340935888 -1 0 0
1210 5 97.3504295608017 2.1617422131593913 0.023470326895563207 -1 0 0
1375 1 99.22214509726403 3.2421979733033828 1.7419825340935855 -1 0 0
1371 5 95.47830604922332 5.404355253257389 0.02347032689556149 -1 0 0
1377 5 99.22255307238034 5.404355253257392 0.023470326895563175 -1 0 0
1382 1 3.743846006760439 6.484811013401384 1.741982534093587 0 0 0
1543 1 1.871722495182021 9.727424053499384 1.741982534093588 0 0 0
1384 5 3.744253981876707 8.64696829335539 0.02347032689556253 0 0 0
1549 1 5.61596951833902 9.727424053499384 1.7419825340935873 0 0 0
1378 5 6.958719708904937e-06 8.646968293355389 0.02347032689556098 0 0 0
1388 1 7.488093029917439 6.484811013401384 1.7419825340935868 0 0 0
1394 1 11.23234005307444 6.484811013401384 1.741982534093587 0 0 0
1390 5 7.488501005033708 8.64696829335539 0.023470326895562096 0 0 0
1555 1 9.36021654149602 9.727424053499384 1.7419825340935868 0 0 0
1396 5 11.23274802819071 8.64696829335539 0.023470326895562083 0 0 0
1400 1 14.97658707623144 6.484811013401384 1.741982534093587 0 0 0
1561 1 13.10446356465302 9.727424053499384 1.7419825340935873 0 0 0
1402 5 14.976995051347709 8.64696829335539 0.023470326895561666 0 0 0
1567 1 16.84871058781002 9.727424053499384 1.7419825340935873 0 0 0
1406 1 18.720834099388437 6.484811013401384 1.7419825340935875 0 0 0
1412 1 22.46508112254544 6.484811013401384 1.741982534093587 0 0 0
1408 5 18.72124207450471 8.64696829335539 0.023470326895562308 0 0 0
1573 1 20.59295761096702 9.727424053499384 1.7419825340935873 0 0 0
1414 5 22.46548909766171 8.64696829335539 0.02347032689556254 0 0 0
1418 1 26.20932814570244 6.484811013401384 1.741982534093587 0 0 0
1579 1 24.33720463412402 9.727424053499384 1.7419825340935884 0 0 0
1420 5 26.209736120818704 8.64696829335539 0.023470326895562842 0 0 0
1585 1 28.08145165728102 9.727424053499384 1.7419825340935873 0 0 0
1424 1 29.953575168859437 6.484811013401384 1.741982534093587 0 0 0
1430 1 33.69782219201644 6.484811013401384 1.7419825340935868 0 0 0
1426 5 29.953983143975705 8.64696829335539 0.02347032689556244 0 0 0
1432 5 33.69823016713271 8.64696829335539 0.023470326895562155 0 0 0
1591 1 31.82569868043802 9.727424053499384 1.7419825340935875 0 0 0
1597 1 35.56994570359502 9.727424053499384 1.7419825340935873 0 0 0
1436 1 37.44206921517344 6.484811013401384 1.741982534093587 0 0 0
1442 1 41.18631623833044 6.484811013401384 1.7419825340935873 0 0 0
1438 5 37.44247719028971 8.64696829335539 0.023470326895562138 0 0 0
1603 1 39.31419272675202 9.727424053499384 1.7419825340935862 0 0 0
1444 5 41.18672421344671 8.64696829335539 0.023470326895562145 0 0 0
1448 1 44.93056326148744 6.484811013401384 1.741982534093587 0 0 0
1609 1 43.05843974990902 9.727424053499384 1.7419825340935873 0 0 0
1450 5 44.93097123660371 8.64696829335539 0.023470326895562423 0 0 0
1615 1 46.80268677306602 9.727424053499384 1.741982534093587 0 0 0
1454 1 48.674810284644444 6.484811013401384 1.741982534093587 0 0 0
1298 1 52.419057307801445 6.484811013401384 1.741982534093587 -1 0 0
1456 5 48.67521825976071 8.64696829335539 0.023470326895562225 0 0 0
1459 1 50.54693379622302 9.727424053499384 1.7419825340935868 -1 0 0
1300 5 52.41946528291771 8.64696829335539 0.023470326895562398 -1 0 0
1304 1 56.16330433095845 6.484811013401384 1.741982534093587 -1 0 0
1465 1 54.291180819380024 9.727424053499384 1.741982534093588 -1 0 0
1306 5 56.163712306074714 8.64696829335539 0.023470326895562596 -1 0 0
1471 1 58.035427842537025 9.727424053499384 1.7419825340935873 -1 0 0
1310 1 59.90755135411545 6.484811013401384 1.741982534093587 -1 0 0
1316 1 63.65179837727244 6.484811013401384 1.741982534093587 -1 0 0
1312 5 59.907959329231716 8.64696829335539 0.023470326895561867 -1 0 0
1477 1 61.77967486569403 9.727424053499384 1.741982534093587 -1 0 0
1318 5 63.65220635238872 8.64696829335539 0.02347032689556198 -1 0 0
1322 1 67.39604540042944 6.484811013401384 1.741982534093587 -1 0 0
1328 1 71.14029242358644 6.484811013401384 1.741982534093587 -1 0 0
1324 5 67.39645337554572 8.64696829335539 0.023470326895562603 -1 0 0
1483 1 65.52392188885104 9.727424053499384 1.741982534093587 -1 0 0
1489 1 69.26816891200804 9.727424053499384 1.741982534093588 -1 0 0
1330 5 71.1407003987027 8.64696829335539 0.02347032689556286 -1 0 0
1334 1 74.88453944674345 6.484811013401384 1.741982534093587 -1 0 0
1495 1 73.01241593516502 9.727424053499384 1.7419825340935873 -1 0 0
1336 5 74.8849474218597 8.64696829335539 0.023470326895561174 -1 0 0
1501 1 76.75666295832202 9.727424053499384 1.7419825340935866 -1 0 0
1340 1 78.62878646990045 6.484811013401384 1.741982534093587 -1 0 0
1346 1 82.37303349305745 6.484811013401384 1.741982534093587 -1 0 0
1342 5 78.62919444501671 8.64696829335539 0.02347032689556236 -1 0 0
1507 1 80.50090998147903 9.727424053499384 1.741982534093588 -1 0 0
1348 5 82.37344146817371 8.64696829335539 0.02347032689556238 -1 0 0
1352 1 86.11728051621445 6.484811013401384 1.741982534093587 -1 0 0
1513 1 84.24515700463603 9.727424053499384 1.7419825340935866 -1 0 0
1354 5 86.11768849133071 8.646968293355389 0.02347032689556107 -1 0 0
1519 1 87.98940402779303 9.727424053499384 1.7419825340935873 -1 0 0
1358 1 89.86152753937145 6.484811013401384 1.7419825340935873 -1 0 0
1364 1 93.60577456252845 6.484811013401384 1.741982534093587 -1 0 0
1360 5 89.86193551448771 8.64696829335539 0.023470326895563304 -1 0 0
1525 1 91.73365105095003 9.727424053499384 1.741982534093587 -1 0 0
1366 5 93.60618253764471 8.646968293355389 0.023470326895561937 -1 0 0
1370 1 97.35002158568545 6.484811013401384 1.741982534093587 -1 0 0
1376 1 101.09426860884246 6.484811013401384 1.741982534093587 -1 0 0
1531 1 95.47789807410703 9.727424053499384 1.7419825340935888 -1 0 0
1372 5 97.3504295608017 8.64696829335539 0.023470326895563335 -1 0 0
1537 1 99.22214509726403 9.727424053499384 1.7419825340935855 -1 0 0
1545 5 1.872130470298323 11.88958133345339 0.023470326895561916 0 0 0
1551 5 5.616377493455323 11.88958133345339 0.023470326895562246 0 0 0
1544 1 3.743846006760439 12.970037093597384 1.7419825340935873 0 0 0
1546 5 3.744253981876707 15.13219437355139 0.023470326895563106 0 0 0
1705 1 1.871722495182021 16.212650133695387 1.7419825340935884 0 0 0
1711 1 5.61596951833902 16.212650133695387 1.7419825340935877 0 0 0
1540 5 6.958719708904937e-06 15.132194373551389 0.023470326895561375 0 0 0
1557 5 9.360624516612324 11.88958133345339 0.023470326895562055 0 0 0
1550 1 7.488093029917439 12.970037093597384 1.741982534093587 0 0 0
1556 1 11.23234005307444 12.970037093597384 1.7419825340935873 0 0 0
1552 5 7.488501005033708 15.13219437355139 0.023470326895562554 0 0 0
1558 5 11.23274802819071 15.13219437355139 0.023470326895562495 0 0 0
1717 1 9.36021654149602 16.212650133695384 1.741982534093587 0 0 0
1563 5 13.104871539769324 11.88958133345339 0.02347032689556234 0 0 0
1569 5 16.849118562926325 11.88958133345339 0.02347032689556228 0 0 0
1562 1 14.97658707623144 12.970037093597384 1.741982534093587 0 0 0
1564 5 14.976995051347709 15.13219437355139 0.023470326895562273 0 0 0
1723 1 13.10446356465302 16.212650133695387 1.741982534093588 0 0 0
1729 1 16.84871058781002 16.212650133695387 1.7419825340935877 0 0 0
1575 5 20.593365586083323 11.88958133345339 0.023470326895562357 0 0 0
1568 1 18.720834099388437 12.970037093597384 1.7419825340935873 0 0 0
1574 1 22.46508112254544 12.970037093597384 1.7419825340935873 0 0 0
1570 5 18.72124207450471 15.13219437355139 0.023470326895562905 0 0 0
1576 5 22.46548909766171 15.13219437355139 0.023470326895563127 0 0 0
1735 1 20.59295761096702 16.212650133695387 1.7419825340935875 0 0 0
1581 5 24.337612609240324 11.889581333453389 0.023470326895561597 0 0 0
1587 5 28.08185963239732 11.88958133345339 0.023470326895562246 0 0 0
1580 1 26.20932814570244 12.970037093597384 1.741982534093587 0 0 0
1582 5 26.209736120818704 15.13219437355139 0.023470326895563408 0 0 0
1741 1 24.33720463412402 16.212650133695387 1.7419825340935888 0 0 0
1747 1 28.08145165728102 16.212650133695387 1.7419825340935877 0 0 0
1593 5 31.826106655554323 11.88958133345339 0.023470326895562416 0 0 0
1599 5 35.57035367871133 11.88958133345339 0.02347032689556234 0 0 0
1586 1 29.953575168859437 12.970037093597384 1.741982534093587 0 0 0
1592 1 33.69782219201644 12.970037093597384 1.7419825340935868 0 0 0
1588 5 29.953983143975705 15.13219437355139 0.023470326895563037 0 0 0
1594 5 33.69823016713271 15.13219437355139 0.023470326895562756 0 0 0
1753 1 31.82569868043802 16.212650133695387 1.7419825340935877 0 0 0
1759 1 35.56994570359502 16.212650133695387 1.7419825340935877 0 0 0
1605 5 39.31460070186833 11.88958133345339 0.02347032689556209 0 0 0
1598 1 37.44206921517344 12.970037093597384 1.741982534093587 0 0 0
1604 1 41.18631623833044 12.970037093597384 1.741982534093587 0 0 0
1600 5 37.44247719028971 15.13219437355139 0.023470326895562537 0 0 0
1606 5 41.18672421344671 15.13219437355139 0.023470326895562523 0 0 0
1765 1 39.31419272675202 16.212650133695384 1.7419825340935864 0 0 0
1611 5 43.05884772502533 11.88958133345339 0.023470326895562367 0 0 0
1617 5 46.80309474818233 11.88958133345339 0.023470326895562364 0 0 0
1610 1 44.93056326148744 12.970037093597384 1.7419825340935873 0 0 0
1612 5 44.93097123660371 15.13219437355139 0.02347032689556292 0 0 0
1771 1 43.05843974990902 16.212650133695387 1.7419825340935875 0 0 0
1777 1 46.80268677306602 16.212650133695387 1.7419825340935877 0 0 0
1461 5 50.54734177133933 11.88958133345339 0.02347032689556275 -1 0 0
1616 1 48.674810284644444 12.970037093597384 1.741982534093587 0 0 0
1460 1 52.419057307801445 12.970037093597384 1.741982534093587 -1 0 0
1618 5 48.67521825976071 15.13219437355139 0.0234703268955628 0 0 0
1462 5 52.41946528291771 15.13219437355139 0.02347032689556299 -1 0 0
1621 1 50.54693379622302 16.212650133695387 1.7419825340935873 -1 0 0
1467 5 54.291588794496334 11.88958133345339 0.023470326895561965 -1 0 0
1473 5 58.035835817653336 11.88958133345339 0.023470326895562478 -1 0 0
1466 1 56.16330433095845 12.970037093597384 1.741982534093587 -1 0 0
1468 5 56.163712306074714 15.13219437355139 0.023470326895563182 -1 0 0
1627 1 54.291180819380024 16.212650133695387 1.7419825340935884 -1 0 0
1633 1 58.035427842537025 16.212650133695387 1.7419825340935877 -1 0 0
1479 5 61.78008284081033 11.88958133345339 0.023470326895561996 -1 0 0
1472 1 59.90755135411545 12.970037093597384 1.741982534093587 -1 0 0
1478 1 63.65179837727244 12.970037093597384 1.741982534093587 -1 0 0
1474 5 59.907959329231716 15.13219437355139 0.023470326895562464 -1 0 0
1480 5 63.65220635238872 15.13219437355139 0.023470326895562495 -1 0 0
1639 1 61.77967486569403 16.212650133695387 1.7419825340935877 -1 0 0
1485 5 65.52432986396732 11.88958133345339 0.02347032689556317 -1 0 0
1491 5 69.26857688712433 11.889581333453389 0.023470326895561607 -1 0 0
1484 1 67.39604540042944 12.970037093597384 1.741982534093587 -1 0 0
1490 1 71.14029242358644 12.970037093597384 1.741982534093587 -1 0 0
1486 5 67.39645337554572 15.13219437355139 0.023470326895563057 -1 0 0
1492 5 71.1407003987027 15.13219437355139 0.023470326895563432 -1 0 0
1645 1 65.52392188885104 16.212650133695384 1.7419825340935864 -1 0 0
1651 1 69.26816891200802 16.212650133695387 1.7419825340935893 -1 0 0
1497 5 73.01282391028133 11.88958133345339 0.023470326895562426 -1 0 0
1503 5 76.75707093343833 11.88958133345339 0.023470326895562138 -1 0 0
1496 1 74.88453944674345 12.970037093597384 1.741982534093587 -1 0 0
1498 5 74.8849474218597 15.13219437355139 0.023470326895561625 -1 0 0
1657 1 73.01241593516502 16.212650133695387 1.7419825340935877 -1 0 0
1663 1 76.75666295832202 16.212650133695384 1.7419825340935868 -1 0 0
1509 5 80.50131795659533 11.88958133345339 0.023470326895562686 -1 0 0
1502 1 78.62878646990045 12.970037093597384 1.741982534093587 -1 0 0
1508 1 82.37303349305745 12.970037093597384 1.741982534093587 -1 0 0
1504 5 78.62919444501671 15.13219437355139 0.023470326895562867 -1 0 0
1510 5 82.37344146817371 15.13219437355139 0.02347032689556289 -1 0 0
1669 1 80.50090998147903 16.212650133695387 1.7419825340935884 -1 0 0
1515 5 84.24556497975233 11.88958133345339 0.023470326895561416 -1 0 0
1521 5 87.98981200290932 11.88958133345339 0.023470326895562273 -1 0 0
1514 1 86.11728051621445 12.970037093597384 1.7419825340935873 -1 0 0
1516 5 86.11768849133071 15.132194373551389 0.023470326895561507 -1 0 0
1675 1 84.24515700463603 16.212650133695384 1.7419825340935868 -1 0 0
1681 1 87.98940402779303 16.212650133695387 1.7419825340935877 -1 0 0
1527 5 91.73405902606633 11.88958133345339 0.02347032689556238 -1 0 0
1520 1 89.86152753937145 12.970037093597384 1.7419825340935875 -1 0 0
1526 1 93.60577456252845 12.970037093597384 1.7419825340935873 -1 0 0
1522 5 89.86193551448771 15.13219437355139 0.023470326895563897 -1 0 0
1528 5 93.60618253764471 15.132194373551389 0.023470326895562423 -1 0 0
1687 1 91.73365105095003 16.212650133695387 1.7419825340935877 -1 0 0
1533 5 95.47830604922332 11.889581333453389 0.023470326895561586 -1 0 0
1539 5 99.22255307238034 11.88958133345339 0.023470326895563134 -1 0 0
1532 1 97.35002158568545 12.970037093597384 1.7419825340935873 -1 0 0
1538 1 101.09426860884246 12.970037093597384 1.7419825340935873 -1 0 0
1534 5 97.3504295608017 15.13219437355139 0.023470326895563758 -1 0 0
1693 1 95.47789807410703 16.212650133695387 1.7419825340935893 -1 0 0
1699 1 99.22214509726403 16.212650133695384 1.7419825340935862 -1 0 0
1707 5 1.872130470298323 18.374807413649393 0.02347032689556203 0 0 0
1706 1 3.743846006760439 19.455263173793387 1.7419825340935862 0 0 0
1713 5 5.616377493455323 18.374807413649393 0.023470326895562353 0 0 0
1708 5 3.744253981876707 21.617420453747396 0.023470326895561965 0 0 0
1867 1 1.871722495182021 22.697876213891387 1.741982534093589 0 0 0
1873 1 5.61596951833902 22.697876213891387 1.7419825340935884 0 0 0
1702 5 6.958719708904937e-06 21.617420453747396 0.023470326895560518 0 0 0
1712 1 7.488093029917439 19.455263173793387 1.741982534093586 0 0 0
1719 5 9.360624516612324 18.374807413649393 0.023470326895562398 0 0 0
1718 1 11.23234005307444 19.455263173793387 1.7419825340935862 0 0 0
1714 5 7.488501005033708 21.617420453747396 0.023470326895561625 0 0 0
1720 5 11.23274802819071 21.617420453747396 0.023470326895561618 0 0 0
1879 1 9.36021654149602 22.697876213891387 1.7419825340935877 0 0 0
1725 5 13.104871539769325 18.374807413649393 0.023470326895562346 0 0 0
1724 1 14.97658707623144 19.455263173793387 1.7419825340935857 0 0 0
1731 5 16.849118562926325 18.374807413649393 0.023470326895562242 0 0 0
1726 5 14.976995051347709 21.617420453747396 0.02347032689556119 0 0 0
1885 1 13.10446356465302 22.697876213891387 1.7419825340935884 0 0 0
1891 1 16.84871058781002 22.697876213891387 1.7419825340935882 0 0 0
1730 1 18.720834099388437 19.455263173793387 1.7419825340935862 0 0 0
1737 5 20.593365586083323 18.374807413649393 0.023470326895562374 0 0 0
1736 1 22.46508112254544 19.455263173793387 1.741982534093586 0 0 0
1732 5 18.72124207450471 21.617420453747396 0.02347032689556188 0 0 0
1738 5 22.46548909766171 21.617420453747396 0.02347032689556206 0 0 0
1897 1 20.59295761096702 22.697876213891387 1.7419825340935884 0 0 0
1743 5 24.337612609240324 18.374807413649393 0.023470326895561628 0 0 0
1742 1 26.20932814570244 19.455263173793387 1.741982534093586 0 0 0
1749 5 28.08185963239732 18.374807413649393 0.02347032689556218 0 0 0
1744 5 26.209736120818704 21.617420453747396 0.023470326895562308 0 0 0
1903 1 24.33720463412402 22.697876213891387 1.7419825340935895 0 0 0
1909 1 28.08145165728102 22.697876213891387 1.7419825340935882 0 0 0
1748 1 29.953575168859437 19.455263173793387 1.741982534093586 0 0 0
1755 5 31.826106655554323 18.374807413649393 0.023470326895562364 0 0 0
1754 1 33.69782219201644 19.455263173793387 1.7419825340935857 0 0 0
1761 5 35.57035367871133 18.374807413649393 0.02347032689556238 0 0 0
1750 5 29.953983143975705 21.617420453747396 0.023470326895561798 0 0 0
1756 5 33.69823016713271 21.617420453747396 0.02347032689556156 0 0 0
1915 1 31.82569868043802 22.697876213891387 1.7419825340935884 0 0 0
1921 1 35.56994570359502 22.697876213891387 1.7419825340935884 0 0 0
1760 1 37.44206921517344 19.455263173793387 1.741982534093586 0 0 0
1767 5 39.31460070186833 18.374807413649393 0.023470326895562374 0 0 0
1766 1 41.18631623833044 19.455263173793387 1.741982534093586 0 0 0
1762 5 37.44247719028971 21.617420453747396 0.023470326895561538 0 0 0
1768 5 41.18672421344671 21.617420453747396 0.0234703268955615 0 0 0
1927 1 39.31419272675202 22.697876213891387 1.741982534093587 0 0 0
1773 5 43.05884772502533 18.374807413649393 0.023470326895562395 0 0 0
1772 1 44.93056326148744 19.455263173793387 1.741982534093586 0 0 0
1779 5 46.80309474818233 18.374807413649393 0.023470326895562388 0 0 0
1774 5 44.93097123660371 21.617420453747396 0.02347032689556177 0 0 0
1933 1 43.05843974990902 22.697876213891387 1.7419825340935884 0 0 0
1939 1 46.80268677306602 22.697876213891387 1.7419825340935884 0 0 0
1778 1 48.674810284644444 19.455263173793387 1.741982534093586 0 0 0
1623 5 50.54734177133933 18.374807413649393 0.023470326895562933 -1 0 0
1622 1 52.419057307801445 19.455263173793387 1.741982534093586 -1 0 0
1780 5 48.67521825976071 21.617420453747396 0.023470326895561576 0 0 0
1624 5 52.41946528291771 21.617420453747396 0.023470326895561954 -1 0 0
1783 1 50.54693379622302 22.697876213891387 1.741982534093588 -1 0 0
1629 5 54.291588794496334 18.374807413649393 0.023470326895561954 -1 0 0
1628 1 56.16330433095845 19.455263173793387 1.741982534093586 -1 0 0
1635 5 58.035835817653336 18.374807413649393 0.0234703268955626 -1 0 0
1630 5 56.163712306074714 21.617420453747396 0.02347032689556204 -1 0 0
1789 1 54.291180819380024 22.697876213891387 1.741982534093589 -1 0 0
1795 1 58.035427842537025 22.697876213891387 1.7419825340935882 -1 0 0
1634 1 59.90755135411545 19.455263173793387 1.741982534093586 -1 0 0
1641 5 61.78008284081033 18.374807413649393 0.02347032689556209 -1 0 0
1640 1 63.65179837727244 19.455263173793387 1.741982534093586 -1 0 0
1636 5 59.907959329231716 21.617420453747396 0.02347032689556136 -1 0 0
1642 5 63.65220635238872 21.617420453747396 0.023470326895561486 -1 0 0
1801 1 61.77967486569403 22.697876213891387 1.7419825340935882 -1 0 0
1647 5 65.52432986396732 18.374807413649393 0.02347032689556348 -1 0 0
1646 1 67.39604540042944 19.455263173793387 1.741982534093586 -1 0 0
1653 5 69.26857688712433 18.374807413649393 0.023470326895561656 -1 0 0
1652 1 71.14029242358644 19.455263173793387 1.741982534093586 -1 0 0
1648 5 67.39645337554572 21.617420453747396 0.023470326895562024 -1 0 0
1654 5 71.1407003987027 21.617420453747396 0.023470326895562322 -1 0 0
1807 1 65.52392188885104 22.697876213891387 1.741982534093587 -1 0 0
1813 1 69.26816891200802 22.697876213891387 1.74198253409359 -1 0 0
1659 5 73.01282391028133 18.374807413649393 0.023470326895562412 -1 0 0
1658 1 74.88453944674345 19.455263173793387 1.741982534093586 -1 0 0
1665 5 76.75707093343833 18.374807413649393 0.023470326895562367 -1 0 0
1660 5 74.8849474218597 21.617420453747396 0.023470326895560584 -1 0 0
1819 1 73.01241593516502 22.697876213891387 1.7419825340935884 -1 0 0
1825 1 76.75666295832202 22.697876213891387 1.7419825340935877 -1 0 0
1664 1 78.62878646990045 19.455263173793387 1.741982534093586 -1 0 0
1671 5 80.50131795659533 18.374807413649393 0.023470326895562676 -1 0 0
1670 1 82.37303349305745 19.455263173793387 1.741982534093586 -1 0 0
1666 5 78.62919444501671 21.617420453747396 0.023470326895561822 -1 0 0
1672 5 82.37344146817371 21.617420453747396 0.023470326895561854 -1 0 0
1831 1 80.50090998147903 22.697876213891387 1.7419825340935888 -1 0 0
1677 5 84.24556497975233 18.374807413649393 0.023470326895561673 -1 0 0
1676 1 86.11728051621445 19.455263173793387 1.7419825340935862 -1 0 0
1683 5 87.98981200290932 18.374807413649393 0.023470326895562315 -1 0 0
1678 5 86.11768849133071 21.617420453747396 0.02347032689556049 -1 0 0
1837 1 84.24515700463603 22.697876213891387 1.7419825340935877 -1 0 0
1843 1 87.98940402779303 22.697876213891387 1.7419825340935884 -1 0 0
1682 1 89.86152753937145 19.455263173793387 1.741982534093586 -1 0 0
1689 5 91.73405902606633 18.374807413649393 0.023470326895562405 -1 0 0
1688 1 93.60577456252845 19.455263173793387 1.741982534093586 -1 0 0
1684 5 89.86193551448771 21.617420453747396 0.0234703268955628 -1 0 0
1690 5 93.60618253764471 21.617420453747396 0.02347032689556132 -1 0 0
1849 1 91.73365105095003 22.697876213891387 1.7419825340935884 -1 0 0
1695 5 95.47830604922332 18.374807413649393 0.023470326895561628 -1 0 0
1694 1 97.35002158568545 19.455263173793387 1.741982534093586 -1 0 0
1701 5 99.22255307238034 18.374807413649393 0.023470326895563377 -1 0 0
1700 1 101.09426860884246 19.455263173793387 1.741982534093586 -1 0 0
1696 5 97.3504295608017 21.617420453747396 0.023470326895562842 -1 0 0
1855 1 95.47789807410703 22.697876213891387 1.7419825340935897 -1 0 0
1861 1 99.22214509726403 22.697876213891387 1.7419825340935866 -1 0 0
1869 5 1.872130470298323 24.860033493845393 0.02347032689556254 0 0 0
1875 5 5.616377493455323 24.860033493845393 0.023470326895562835 0 0 0
1868 1 3.743846006760439 25.940489253989387 1.7419825340935862 0 0 0
1870 5 3.744253981876707 28.102646533943396 0.02347032689556196 0 0 0
1864 5 6.958719708904937e-06 28.102646533943396 0.023470326895560514 0 0 0
1881 5 9.360624516612324 24.860033493845393 0.02347032689556261 0 0 0
1874 1 7.488093029917439 25.940489253989387 1.741982534093586 0 0 0
1880 1 11.23234005307444 25.940489253989387 1.7419825340935862 0 0 0
1876 5 7.488501005033708 28.102646533943396 0.023470326895561625 0 0 0
1882 5 11.23274802819071 28.102646533943396 0.023470326895561614 0 0 0
1887 5 13.104871539769325 24.860033493845393 0.0234703268955629 0 0 0
1893 5 16.849118562926325 24.860033493845393 0.023470326895562735 0 0 0
1886 1 14.97658707623144 25.940489253989387 1.7419825340935857 0 0 0
1888 5 14.976995051347709 28.102646533943396 0.023470326895561187 0 0 0
1899 5 20.593365586083323 24.860033493845393 0.02347032689556288 0 0 0
1892 1 18.720834099388437 25.940489253989387 1.7419825340935864 0 0 0
1898 1 22.46508112254544 25.940489253989387 1.741982534093586 0 0 0
1894 5 18.72124207450471 28.102646533943396 0.023470326895561878 0 0 0
1900 5 22.46548909766171 28.102646533943396 0.023470326895562058 0 0 0
1905 5 24.337612609240324 24.860033493845393 0.023470326895562058 0 0 0
1911 5 28.08185963239732 24.860033493845393 0.023470326895562724 0 0 0
1904 1 26.20932814570244 25.940489253989387 1.741982534093586 0 0 0
1906 5 26.209736120818704 28.102646533943396 0.0234703268955623 0 0 0
1917 5 31.826106655554323 24.860033493845393 0.023470326895562908 0 0 0
1923 5 35.57035367871133 24.860033493845393 0.02347032689556283 0 0 0
1910 1 29.953575168859437 25.940489253989387 1.741982534093586 0 0 0
1916 1 33.69782219201644 25.940489253989387 1.7419825340935857 0 0 0
1912 5 29.953983143975705 28.102646533943396 0.023470326895561798 0 0 0
1918 5 33.69823016713271 28.102646533943396 0.023470326895561555 0 0 0
1929 5 39.31460070186833 24.860033493845393 0.023470326895562586 0 0 0
1922 1 37.44206921517344 25.940489253989387 1.7419825340935862 0 0 0
1928 1 41.18631623833044 25.940489253989387 1.7419825340935862 0 0 0
1924 5 37.44247719028971 28.102646533943396 0.023470326895561538 0 0 0
1930 5 41.18672421344671 28.102646533943396 0.023470326895561493 0 0 0
1935 5 43.05884772502533 24.860033493845393 0.023470326895562853 0 0 0
1941 5 46.80309474818233 24.860033493845393 0.023470326895562853 0 0 0
1934 1 44.93056326148744 25.940489253989387 1.7419825340935862 0 0 0
1936 5 44.93097123660371 28.102646533943396 0.023470326895561767 0 0 0
1785 5 50.54734177133933 24.860033493845393 0.023470326895563363 -1 0 0
1940 1 48.674810284644444 25.940489253989387 1.7419825340935862 0 0 0
1784 1 52.419057307801445 25.940489253989387 1.741982534093586 -1 0 0
1942 5 48.67521825976071 28.102646533943396 0.023470326895561576 0 0 0
1786 5 52.41946528291771 28.102646533943396 0.02347032689556195 -1 0 0
1791 5 54.291588794496334 24.860033493845393 0.023470326895562464 -1 0 0
1797 5 58.035835817653336 24.860033493845393 0.02347032689556305 -1 0 0
1790 1 56.16330433095845 25.940489253989387 1.741982534093586 -1 0 0
1792 5 56.163712306074714 28.102646533943396 0.023470326895562037 -1 0 0