LAMMPS data file via write_data, version 29 Aug 2024, timestep = 2, units = metal

4860 atoms
6 atom types

0 101.094669625239 xlo xhi
0 97.27839120294 ylo yhi
-50 50 zlo zhi

Masses

1 47.867
2 47.867
3 127.6
4 127.6
5 127.6
6 127.6

Atoms # atomic

1381 1 1.8717334241522967 3.2422092417523367 1.7420704769804183 0 0 0
1222 4 3.7442539732309625 2.161742211343257 0.023577265611766433 0 0 0
1387 1 5.615980447309297 3.2422092417523363 1.742070476980418 0 0 0
1383 4 1.8721304616525776 5.404355251441256 0.023577265611765794 0 0 0
1389 4 5.616377484809576 5.404355251441257 0.02357726561176647 0 0 0
1216 4 6.950073967004755e-06 2.161742211343256 0.023577265611764542 0 0 0
1228 4 7.488500996387963 2.161742211343257 0.023577265611766134 0 0 0
1393 1 9.360227470466297 3.2422092417523363 1.7420704769804174 0 0 0
1234 4 11.232748019544966 2.161742211343257 0.023577265611766065 0 0 0
1395 4 9.360624507966579 5.404355251441257 0.023577265611766242 0 0 0
1399 1 13.104474493623297 3.2422092417523367 1.742070476980418 0 0 0
1240 4 14.976995042701965 2.1617422113432565 0.02357726561176559 0 0 0
1405 1 16.848721516780298 3.2422092417523367 1.742070476980418 0 0 0
1401 4 13.104871531123578 5.404355251441257 0.023577265611766533 0 0 0
1407 4 16.849118554280576 5.404355251441257 0.023577265611766457 0 0 0
1246 4 18.721242065858966 2.161742211343257 0.023577265611766325 0 0 0
1411 1 20.5929685399373 3.2422092417523363 1.742070476980418 0 0 0
1252 4 22.465489089015968 2.161742211343257 0.023577265611766606 0 0 0
1413 4 20.593365577437577 5.404355251441257 0.02357726561176649 0 0 0
1417 1 24.337215563094297 3.242209241752337 1.7420704769804194 0 0 0
1258 4 26.20973611217296 2.1617422113432574 0.023577265611766686 0 0 0
1423 1 28.081462586251295 3.2422092417523363 1.742070476980418 0 0 0
1419 4 24.337612600594575 5.404355251441256 0.023577265611765427 0 0 0
1425 4 28.081859623751573 5.404355251441257 0.02357726561176652 0 0 0
1264 4 29.95398313532996 2.161742211343257 0.023577265611766332 0 0 0
1270 4 33.69823015848696 2.161742211343257 0.02357726561176631 0 0 0
1429 1 31.825709609408296 3.2422092417523363 1.742070476980418 0 0 0
1435 1 35.569956632565294 3.2422092417523363 1.742070476980418 0 0 0
1431 4 31.826106646908574 5.404355251441257 0.023577265611766443 0 0 0
1437 4 35.57035367006558 5.404355251441257 0.02357726561176645 0 0 0
1276 4 37.44247718164396 2.161742211343257 0.02357726561176607 0 0 0
1441 1 39.314203655722295 3.242209241752336 1.742070476980417 0 0 0
1282 4 41.18672420480097 2.161742211343257 0.023577265611766086 0 0 0
1443 4 39.31460069322258 5.404355251441257 0.023577265611766297 0 0 0
1447 1 43.058450678879296 3.2422092417523363 1.742070476980418 0 0 0
1288 4 44.93097122795796 2.161742211343257 0.023577265611766415 0 0 0
1453 1 46.8026977020363 3.2422092417523363 1.742070476980418 0 0 0
1449 4 43.05884771637958 5.404355251441257 0.02357726561176653 0 0 0
1455 4 46.80309473953658 5.404355251441257 0.023577265611766526 0 0 0
1294 4 48.67521825111497 2.161742211343257 0.023577265611766228 0 0 0
1297 1 50.5469447251933 3.2422092417523363 1.7420704769804176 -1 0 0
1138 4 52.41946527427197 2.161742211343257 0.023577265611766436 -1 0 0
1299 4 50.547341762693584 5.404355251441257 0.023577265611766936 -1 0 0
1303 1 54.2911917483503 3.2422092417523367 1.742070476980419 -1 0 0
1144 4 56.163712297428965 2.161742211343257 0.023577265611766617 -1 0 0
1309 1 58.0354387715073 3.2422092417523363 1.742070476980418 -1 0 0
1305 4 54.291588785850585 5.404355251441256 0.02357726561176609 -1 0 0
1311 4 58.03583580900759 5.404355251441257 0.023577265611766207 -1 0 0
1150 4 59.90795932058597 2.1617422113432565 0.02357726561176582 -1 0 0
1315 1 61.7796857946643 3.2422092417523363 1.742070476980418 -1 0 0
1156 4 63.65220634374297 2.1617422113432565 0.023577265611765562 -1 0 0
1317 4 61.78008283216458 5.404355251441257 0.023577265611766606 -1 0 0
1162 4 67.39645336689998 2.161742211343257 0.02357726561176653 -1 0 0
1321 1 65.5239328178213 3.242209241752336 1.7420704769804172 -1 0 0
1327 1 69.2681798409783 3.242209241752337 1.7420704769804187 -1 0 0
1168 4 71.14070039005698 2.1617422113432574 0.02357726561176679 -1 0 0
1323 4 65.52432985532158 5.404355251441258 0.023577265611767474 -1 0 0
1329 4 69.26857687847858 5.404355251441256 0.02357726561176456 -1 0 0
1333 1 73.0124268641353 3.2422092417523367 1.742070476980418 -1 0 0
1174 4 74.88494741321398 2.161742211343257 0.02357726561176607 -1 0 0
1339 1 76.75667388729231 3.242209241752336 1.7420704769804174 -1 0 0
1335 4 73.01282390163558 5.404355251441257 0.02357726561176644 -1 0 0
1341 4 76.75707092479259 5.404355251441257 0.023577265611766242 -1 0 0
1180 4 78.62919443637098 2.161742211343257 0.023577265611766342 -1 0 0
1345 1 80.50092091044931 3.242209241752337 1.742070476980419 -1 0 0
1186 4 82.37344145952798 2.161742211343257 0.023577265611766467 -1 0 0
1347 4 80.50131794794959 5.404355251441257 0.023577265611766592 -1 0 0
1351 1 84.24516793360631 3.2422092417523363 1.742070476980418 -1 0 0
1192 4 86.11768848268497 2.161742211343256 0.023577265611765097 -1 0 0
1357 1 87.9894149567633 3.2422092417523367 1.742070476980418 -1 0 0
1353 4 84.24556497110659 5.404355251441257 0.023577265611766717 -1 0 0
1359 4 87.98981199426358 5.404355251441257 0.023577265611766453 -1 0 0
1198 4 89.86193550584197 2.1617422113432583 0.023577265611767435 -1 0 0
1363 1 91.73366197992031 3.2422092417523367 1.742070476980418 -1 0 0
1204 4 93.60618252899897 2.161742211343256 0.023577265611764767 -1 0 0
1365 4 91.73405901742059 5.404355251441257 0.023577265611766582 -1 0 0
1369 1 95.4779090030773 3.242209241752337 1.7420704769804187 -1 0 0
1210 4 97.35042955215597 2.1617422113432583 0.02357726561176831 -1 0 0
1375 1 99.22215602623432 3.2422092417523363 1.7420704769804174 -1 0 0
1371 4 95.47830604057758 5.404355251441256 0.023577265611765548 -1 0 0
1377 4 99.2225530637346 5.404355251441258 0.023577265611767505 -1 0 0
1382 1 3.743856935730718 6.484822281850336 1.7420704769804178 0 0 0
1543 1 1.8717334241522967 9.727435321948336 1.7420704769804183 0 0 0
1384 4 3.7442539732309625 8.646968291539258 0.023577265611766575 0 0 0
1549 1 5.615980447309297 9.727435321948336 1.742070476980418 0 0 0
1378 4 6.950073967004755e-06 8.646968291539256 0.023577265611764767 0 0 0
1388 1 7.488103958887719 6.484822281850336 1.742070476980418 0 0 0
1394 1 11.23235098204472 6.484822281850336 1.7420704769804178 0 0 0
1390 4 7.488500996387963 8.646968291539258 0.023577265611766356 0 0 0
1555 1 9.360227470466297 9.727435321948336 1.7420704769804174 0 0 0
1396 4 11.232748019544966 8.646968291539258 0.02357726561176629 0 0 0
1400 1 14.97659800520172 6.484822281850336 1.7420704769804178 0 0 0
1561 1 13.104474493623297 9.727435321948336 1.7420704769804183 0 0 0
1402 4 14.976995042701965 8.646968291539258 0.023577265611765805 0 0 0
1567 1 16.848721516780298 9.727435321948336 1.742070476980418 0 0 0
1406 1 18.72084502835872 6.484822281850336 1.7420704769804178 0 0 0
1412 1 22.465092051515718 6.484822281850336 1.7420704769804178 0 0 0
1408 4 18.721242065858966 8.646968291539258 0.023577265611766516 0 0 0
1573 1 20.5929685399373 9.727435321948336 1.742070476980418 0 0 0
1414 4 22.465489089015968 8.646968291539258 0.023577265611766852 0 0 0
1418 1 26.209339074672716 6.484822281850336 1.7420704769804178 0 0 0
1579 1 24.337215563094297 9.727435321948336 1.7420704769804196 0 0 0
1420 4 26.20973611217296 8.646968291539258 0.023577265611766787 0 0 0
1585 1 28.081462586251295 9.727435321948336 1.742070476980418 0 0 0
1424 1 29.953586097829717 6.484822281850336 1.7420704769804178 0 0 0
1430 1 33.69783312098672 6.484822281850336 1.7420704769804176 0 0 0
1426 4 29.95398313532996 8.646968291539258 0.02357726561176647 0 0 0
1432 4 33.69823015848696 8.646968291539258 0.02357726561176645 0 0 0
1591 1 31.825709609408296 9.727435321948336 1.742070476980418 0 0 0
1597 1 35.569956632565294 9.727435321948336 1.742070476980418 0 0 0
1436 1 37.44208014414372 6.484822281850336 1.7420704769804178 0 0 0
1442 1 41.186327167300725 6.484822281850336 1.7420704769804178 0 0 0
1438 4 37.44247718164396 8.646968291539258 0.0235772656117662 0 0 0
1603 1 39.314203655722295 9.727435321948336 1.7420704769804167 0 0 0
1444 4 41.18672420480097 8.646968291539258 0.023577265611766218 0 0 0
1448 1 44.930574190457726 6.484822281850336 1.7420704769804178 0 0 0
1609 1 43.058450678879296 9.727435321948336 1.742070476980418 0 0 0
1450 4 44.93097122795796 8.646968291539258 0.023577265611766506 0 0 0
1615 1 46.8026977020363 9.727435321948336 1.742070476980418 0 0 0
1454 1 48.67482121361473 6.484822281850336 1.7420704769804178 0 0 0
1298 1 52.41906823677173 6.484822281850336 1.7420704769804178 -1 0 0
1456 4 48.67521825111497 8.646968291539258 0.023577265611766377 0 0 0
1459 1 50.5469447251933 9.727435321948336 1.7420704769804176 -1 0 0
1300 4 52.41946527427197 8.646968291539258 0.02357726561176662 -1 0 0
1304 1 56.16331525992873 6.484822281850336 1.7420704769804178 -1 0 0
1465 1 54.2911917483503 9.727435321948336 1.7420704769804187 -1 0 0
1306 4 56.163712297428965 8.646968291539258 0.02357726561176678 -1 0 0
1471 1 58.0354387715073 9.727435321948336 1.742070476980418 -1 0 0
1310 1 59.907562283085724 6.484822281850336 1.7420704769804178 -1 0 0
1316 1 63.651809306242725 6.484822281850336 1.7420704769804178 -1 0 0
1312 4 59.90795932058597 8.646968291539258 0.023577265611765905 -1 0 0
1477 1 61.7796857946643 9.727435321948336 1.742070476980418 -1 0 0
1318 4 63.65220634374297 8.646968291539258 0.023577265611765843 -1 0 0
1322 1 67.39605632939973 6.484822281850336 1.7420704769804178 -1 0 0
1328 1 71.14030335255673 6.484822281850336 1.7420704769804178 -1 0 0
1324 4 67.39645336689998 8.646968291539258 0.023577265611766658 -1 0 0
1483 1 65.5239328178213 9.727435321948336 1.7420704769804172 -1 0 0
1489 1 69.2681798409783 9.727435321948336 1.7420704769804187 -1 0 0
1330 4 71.14070039005698 8.646968291539258 0.023577265611766887 -1 0 0
1334 1 74.88455037571373 6.484822281850336 1.7420704769804178 -1 0 0
1495 1 73.0124268641353 9.727435321948336 1.742070476980418 -1 0 0
1336 4 74.88494741321398 8.646968291539258 0.02357726561176621 -1 0 0
1501 1 76.75667388729231 9.727435321948336 1.7420704769804174 -1 0 0
1340 1 78.62879739887073 6.484822281850336 1.7420704769804178 -1 0 0
1346 1 82.37304442202773 6.484822281850336 1.7420704769804178 -1 0 0
1342 4 78.62919443637098 8.646968291539258 0.023577265611766474 -1 0 0
1507 1 80.50092091044931 9.727435321948336 1.7420704769804187 -1 0 0
1348 4 82.37344145952798 8.646968291539258 0.023577265611766558 -1 0 0
1352 1 86.11729144518472 6.484822281850336 1.742070476980418 -1 0 0
1513 1 84.24516793360631 9.727435321948336 1.7420704769804183 -1 0 0
1354 4 86.11768848268497 8.646968291539256 0.023577265611765322 -1 0 0
1519 1 87.9894149567633 9.727435321948336 1.742070476980418 -1 0 0
1358 1 89.86153846834172 6.484822281850336 1.7420704769804178 -1 0 0
1364 1 93.60578549149872 6.484822281850336 1.742070476980418 -1 0 0
1360 4 89.86193550584197 8.64696829153926 0.02357726561176764 -1 0 0
1525 1 91.73366197992031 9.727435321948336 1.7420704769804183 -1 0 0
1366 4 93.60618252899897 8.646968291539256 0.023577265611764993 -1 0 0
1370 1 97.35003251465572 6.484822281850336 1.7420704769804178 -1 0 0
1376 1 101.09427953781272 6.484822281850336 1.7420704769804178 -1 0 0
1531 1 95.4779090030773 9.727435321948336 1.7420704769804187 -1 0 0
1372 4 97.35042955215597 8.64696829153926 0.0235772656117685 -1 0 0
1537 1 99.22215602623432 9.727435321948336 1.7420704769804172 -1 0 0
1545 4 1.8721304616525776 11.889581331637258 0.023577265611765878 0 0 0
1551 4 5.616377484809576 11.889581331637258 0.023577265611766467 0 0 0
1544 1 3.743856935730718 12.970048362046336 1.742070476980418 0 0 0
1546 4 3.744253973230963 15.132194371735258 0.023577265611767203 0 0 0
1705 1 1.8717334241522967 16.212661402144338 1.7420704769804187 0 0 0
1711 1 5.615980447309297 16.212661402144338 1.7420704769804187 0 0 0
1540 4 6.950073967004755e-06 15.132194371735256 0.023577265611765173 0 0 0
1557 4 9.360624507966579 11.889581331637258 0.02357726561176621 0 0 0
1550 1 7.488103958887719 12.970048362046336 1.7420704769804183 0 0 0
1556 1 11.23235098204472 12.970048362046336 1.742070476980418 0 0 0
1552 4 7.488500996387963 15.132194371735258 0.023577265611766693 0 0 0
1558 4 11.232748019544966 15.132194371735258 0.023577265611766745 0 0 0
1717 1 9.360227470466297 16.212661402144338 1.7420704769804178 0 0 0
1563 4 13.104871531123578 11.889581331637258 0.02357726561176654 0 0 0
1569 4 16.849118554280576 11.889581331637258 0.023577265611766464 0 0 0
1562 1 14.97659800520172 12.970048362046336 1.7420704769804178 0 0 0
1564 4 14.976995042701965 15.132194371735258 0.02357726561176638 0 0 0
1723 1 13.104474493623297 16.212661402144338 1.7420704769804187 0 0 0
1729 1 16.848721516780298 16.212661402144338 1.7420704769804185 0 0 0
1575 4 20.593365577437577 11.889581331637258 0.0235772656117665 0 0 0
1568 1 18.72084502835872 12.970048362046336 1.742070476980418 0 0 0
1574 1 22.465092051515718 12.970048362046336 1.742070476980418 0 0 0
1570 4 18.721242065858966 15.132194371735258 0.023577265611767092 0 0 0
1576 4 22.465489089015968 15.132194371735258 0.023577265611767432 0 0 0
1735 1 20.5929685399373 16.212661402144338 1.7420704769804185 0 0 0
1581 4 24.337612600594575 11.889581331637256 0.023577265611765517 0 0 0
1587 4 28.081859623751573 11.889581331637258 0.02357726561176652 0 0 0
1580 1 26.209339074672716 12.970048362046336 1.742070476980418 0 0 0
1582 4 26.20973611217296 15.132194371735258 0.02357726561176736 0 0 0
1741 1 24.337215563094297 16.212661402144338 1.7420704769804198 0 0 0
1747 1 28.081462586251295 16.212661402144338 1.7420704769804185 0 0 0
1593 4 31.826106646908574 11.889581331637258 0.023577265611766443 0 0 0
1599 4 35.57035367006558 11.889581331637258 0.02357726561176645 0 0 0
1586 1 29.953586097829717 12.970048362046336 1.742070476980418 0 0 0
1592 1 33.69783312098672 12.970048362046336 1.7420704769804178 0 0 0
1588 4 29.95398313532996 15.132194371735258 0.02357726561176696 0 0 0
1594 4 33.69823015848696 15.132194371735258 0.02357726561176694 0 0 0
1753 1 31.825709609408296 16.212661402144338 1.7420704769804187 0 0 0
1759 1 35.569956632565294 16.212661402144338 1.7420704769804187 0 0 0
1605 4 39.31460069322258 11.889581331637258 0.023577265611766218 0 0 0
1598 1 37.44208014414372 12.970048362046336 1.742070476980418 0 0 0
1604 1 41.186327167300725 12.970048362046336 1.742070476980418 0 0 0
1600 4 37.44247718164396 15.132194371735258 0.023577265611766627 0 0 0
1606 4 41.18672420480097 15.132194371735258 0.023577265611766623 0 0 0
1765 1 39.314203655722295 16.212661402144338 1.7420704769804174 0 0 0
1611 4 43.05884771637958 11.889581331637258 0.023577265611766533 0 0 0
1617 4 46.80309473953658 11.889581331637258 0.02357726561176653 0 0 0
1610 1 44.930574190457726 12.970048362046336 1.742070476980418 0 0 0
1612 4 44.93097122795796 15.132194371735258 0.023577265611766967 0 0 0
1771 1 43.058450678879296 16.212661402144338 1.7420704769804187 0 0 0
1777 1 46.8026977020363 16.212661402144338 1.7420704769804187 0 0 0
1461 4 50.547341762693584 11.889581331637258 0.023577265611766936 -1 0 0
1616 1 48.67482121361473 12.970048362046336 1.742070476980418 0 0 0
1460 1 52.41906823677173 12.970048362046336 1.742070476980418 -1 0 0
1618 4 48.67521825111497 15.132194371735258 0.023577265611766957 0 0 0
1462 4 52.41946527427197 15.132194371735258 0.023577265611767206 -1 0 0
1621 1 50.5469447251933 16.212661402144338 1.742070476980418 -1 0 0
1467 4 54.291588785850585 11.889581331637258 0.0235772656117661 -1 0 0
1473 4 58.03583580900759 11.889581331637258 0.02357726561176621 -1 0 0
1466 1 56.16331525992873 12.970048362046336 1.742070476980418 -1 0 0
1468 4 56.163712297428965 15.132194371735258 0.023577265611767317 -1 0 0
1627 1 54.2911917483503 16.212661402144338 1.7420704769804194 -1 0 0
1633 1 58.0354387715073 16.212661402144338 1.7420704769804185 -1 0 0
1479 4 61.78008283216458 11.889581331637258 0.023577265611766606 -1 0 0
1472 1 59.907562283085724 12.970048362046336 1.7420704769804178 -1 0 0
1478 1 63.651809306242725 12.970048362046336 1.742070476980418 -1 0 0
1474 4 59.90795932058597 15.132194371735258 0.023577265611766478 -1 0 0
1480 4 63.65220634374297 15.132194371735258 0.02357726561176621 -1 0 0
1639 1 61.7796857946643 16.212661402144338 1.7420704769804185 -1 0 0
1485 4 65.52432985532158 11.889581331637258 0.02357726561176743 -1 0 0
1491 4 69.26857687847858 11.889581331637256 0.023577265611764646 -1 0 0
1484 1 67.39605632939973 12.970048362046336 1.742070476980418 -1 0 0
1490 1 71.14030335255673 12.970048362046336 1.742070476980418 -1 0 0
1486 4 67.39645336689998 15.132194371735258 0.023577265611767102 -1 0 0
1492 4 71.14070039005698 15.132194371735258 0.02357726561176746 -1 0 0
1645 1 65.5239328178213 16.212661402144338 1.7420704769804176 -1 0 0
1651 1 69.2681798409783 16.212661402144338 1.7420704769804192 -1 0 0
1497 4 73.01282390163558 11.889581331637258 0.02357726561176644 -1 0 0
1503 4 76.75707092479259 11.889581331637258 0.023577265611766162 -1 0 0
1496 1 74.88455037571373 12.970048362046336 1.742070476980418 -1 0 0
1498 4 74.88494741321398 15.132194371735258 0.023577265611766617 -1 0 0
1657 1 73.0124268641353 16.212661402144338 1.7420704769804185 -1 0 0
1663 1 76.75667388729231 16.212661402144338 1.7420704769804178 -1 0 0
1509 4 80.50131794794959 11.889581331637258 0.023577265611766693 -1 0 0
1502 1 78.62879739887073 12.970048362046336 1.742070476980418 -1 0 0
1508 1 82.37304442202773 12.970048362046336 1.742070476980418 -1 0 0
1504 4 78.62919443637098 15.132194371735258 0.02357726561176688 -1 0 0
1510 4 82.37344145952798 15.132194371735258 0.023577265611767026 -1 0 0
1669 1 80.50092091044931 16.212661402144338 1.7420704769804194 -1 0 0
1515 4 84.24556497110659 11.889581331637258 0.023577265611766627 -1 0 0
1521 4 87.98981199426358 11.889581331637258 0.023577265611766453 -1 0 0
1514 1 86.11729144518472 12.970048362046336 1.742070476980418 -1 0 0
1516 4 86.11768848268497 15.132194371735256 0.023577265611765735 -1 0 0
1675 1 84.24516793360631 16.212661402144338 1.7420704769804187 -1 0 0
1681 1 87.9894149567633 16.212661402144338 1.7420704769804185 -1 0 0
1527 4 91.73405901742059 11.889581331637258 0.023577265611766585 -1 0 0
1520 1 89.86153846834172 12.970048362046336 1.742070476980418 -1 0 0
1526 1 93.60578549149872 12.970048362046336 1.742070476980418 -1 0 0
1522 4 89.86193550584197 15.13219437173526 0.02357726561176822 -1 0 0
1528 4 93.60618252899897 15.132194371735256 0.02357726561176556 -1 0 0
1687 1 91.73366197992031 16.212661402144338 1.7420704769804185 -1 0 0
1533 4 95.47830604057758 11.889581331637256 0.02357726561176558 -1 0 0
1539 4 99.2225530637346 11.88958133163726 0.02357726561176748 -1 0 0
1532 1 97.35003251465572 12.970048362046336 1.742070476980418 -1 0 0
1538 1 101.09427953781272 12.970048362046336 1.742070476980418 -1 0 0
1534 4 97.35042955215597 15.13219437173526 0.023577265611768948 -1 0 0
1693 1 95.4779090030773 16.212661402144338 1.7420704769804192 -1 0 0
1699 1 99.22215602623432 16.212661402144338 1.7420704769804176 -1 0 0
1707 4 1.8721304616525778 18.37480741183326 0.023577265611766 0 0 0
1706 1 3.743856935730718 19.45527444224234 1.742070476980417 0 0 0
1713 4 5.616377484809576 18.37480741183326 0.0235772656117666 0 0 0
1708 4 3.7442539732309625 21.617420451931263 0.023577265611766072 0 0 0
1867 1 1.871733424152297 22.697887482340338 1.7420704769804194 0 0 0
1873 1 5.615980447309297 22.697887482340338 1.742070476980419 0 0 0
1702 4 6.950073967004755e-06 21.617420451931263 0.023577265611764247 0 0 0
1712 1 7.488103958887719 19.45527444224234 1.742070476980417 0 0 0
1719 4 9.360624507966579 18.37480741183326 0.02357726561176668 0 0 0
1718 1 11.23235098204472 19.45527444224234 1.742070476980417 0 0 0
1714 4 7.488500996387964 21.617420451931263 0.02357726561176574 0 0 0
1720 4 11.232748019544966 21.617420451931263 0.023577265611765784 0 0 0
1879 1 9.360227470466297 22.697887482340338 1.7420704769804183 0 0 0
1725 4 13.104871531123578 18.37480741183326 0.02357726561176668 0 0 0
1724 1 14.97659800520172 19.45527444224234 1.742070476980417 0 0 0
1731 4 16.849118554280576 18.37480741183326 0.02357726561176659 0 0 0
1726 4 14.976995042701965 21.617420451931263 0.02357726561176532 0 0 0
1885 1 13.104474493623297 22.697887482340338 1.742070476980419 0 0 0
1891 1 16.848721516780298 22.697887482340338 1.7420704769804192 0 0 0
1730 1 18.72084502835872 19.45527444224234 1.742070476980417 0 0 0
1737 4 20.593365577437577 18.37480741183326 0.023577265611766415 0 0 0
1736 1 22.465092051515718 19.45527444224234 1.742070476980417 0 0 0
1732 4 18.721242065858966 21.617420451931263 0.02357726561176597 0 0 0
1738 4 22.465489089015968 21.617420451931263 0.023577265611766304 0 0 0
1897 1 20.5929685399373 22.697887482340338 1.742070476980419 0 0 0
1743 4 24.337612600594575 18.37480741183326 0.023577265611765777 0 0 0
1742 1 26.209339074672716 19.45527444224234 1.742070476980417 0 0 0
1749 4 28.081859623751573 18.37480741183326 0.023577265611766603 0 0 0
1744 4 26.20973611217296 21.617420451931263 0.02357726561176648 0 0 0
1903 1 24.337215563094297 22.69788748234034 1.7420704769804203 0 0 0
1909 1 28.081462586251295 22.697887482340338 1.742070476980419 0 0 0
1748 1 29.953586097829717 19.45527444224234 1.742070476980417 0 0 0
1755 4 31.826106646908574 18.37480741183326 0.023577265611766537 0 0 0
1754 1 33.69783312098672 19.45527444224234 1.7420704769804167 0 0 0
1761 4 35.57035367006558 18.37480741183326 0.023577265611766592 0 0 0
1750 4 29.95398313532996 21.617420451931263 0.023577265611765933 0 0 0
1756 4 33.698230158486965 21.617420451931263 0.023577265611765697 0 0 0
1915 1 31.825709609408296 22.697887482340338 1.742070476980419 0 0 0
1921 1 35.569956632565294 22.697887482340338 1.742070476980419 0 0 0
1760 1 37.44208014414372 19.45527444224234 1.742070476980417 0 0 0
1767 4 39.31460069322258 18.37480741183326 0.02357726561176663 0 0 0
1766 1 41.186327167300725 19.45527444224234 1.742070476980417 0 0 0
1762 4 37.44247718164396 21.617420451931263 0.023577265611765662 0 0 0
1768 4 41.18672420480097 21.617420451931263 0.023577265611765656 0 0 0
1927 1 39.314203655722295 22.697887482340338 1.7420704769804178 0 0 0
1773 4 43.05884771637958 18.37480741183326 0.02357726561176662 0 0 0
1772 1 44.930574190457726 19.45527444224234 1.742070476980417 0 0 0
1779 4 46.80309473953658 18.37480741183326 0.023577265611766617 0 0 0
1774 4 44.93097122795796 21.617420451931263 0.023577265611765933 0 0 0
1933 1 43.058450678879296 22.697887482340338 1.742070476980419 0 0 0
1939 1 46.8026977020363 22.697887482340338 1.742070476980419 0 0 0
1778 1 48.67482121361473 19.45527444224234 1.7420704769804167 0 0 0
1623 4 50.547341762693584 18.37480741183326 0.02357726561176712 -1 0 0
1622 1 52.41906823677173 19.45527444224234 1.7420704769804167 -1 0 0
1780 4 48.67521825111497 21.617420451931263 0.02357726561176575 0 0 0
1624 4 52.41946527427197 21.617420451931263 0.02357726561176612 -1 0 0
1783 1 50.5469447251933 22.697887482340338 1.742070476980419 -1 0 0
1629 4 54.291588785850585 18.37480741183326 0.02357726561176615 -1 0 0
1628 1 56.16331525992873 19.45527444224234 1.7420704769804167 -1 0 0
1635 4 58.03583580900759 18.37480741183326 0.02357726561176635 -1 0 0
1630 4 56.163712297428965 21.617420451931263 0.02357726561176619 -1 0 0
1789 1 54.2911917483503 22.69788748234034 1.7420704769804196 -1 0 0
1795 1 58.0354387715073 22.697887482340338 1.7420704769804192 -1 0 0
1634 1 59.907562283085724 19.45527444224234 1.7420704769804167 -1 0 0
1641 4 61.78008283216458 18.37480741183326 0.023577265611766825 -1 0 0
1640 1 63.651809306242725 19.45527444224234 1.7420704769804167 -1 0 0
1636 4 59.90795932058597 21.617420451931263 0.02357726561176543 -1 0 0
1642 4 63.65220634374297 21.617420451931263 0.02357726561176525 -1 0 0
1801 1 61.7796857946643 22.697887482340338 1.742070476980419 -1 0 0
1647 4 65.52432985532158 18.37480741183326 0.023577265611767814 -1 0 0
1646 1 67.39605632939973 19.45527444224234 1.7420704769804167 -1 0 0
1653 4 69.26857687847858 18.37480741183326 0.023577265611764712 -1 0 0
1652 1 71.14030335255673 19.45527444224234 1.742070476980417 -1 0 0
1648 4 67.39645336689998 21.617420451931263 0.0235772656117662 -1 0 0
1654 4 71.14070039005698 21.617420451931263 0.023577265611766377 -1 0 0
1807 1 65.5239328178213 22.697887482340338 1.7420704769804183 -1 0 0
1813 1 69.2681798409783 22.697887482340338 1.7420704769804196 -1 0 0
1659 4 73.01282390163558 18.37480741183326 0.023577265611766582 -1 0 0
1658 1 74.88455037571373 19.45527444224234 1.742070476980417 -1 0 0
1665 4 76.75707092479259 18.37480741183326 0.023577265611766582 -1 0 0
1660 4 74.88494741321398 21.617420451931263 0.023577265611765645 -1 0 0
1819 1 73.0124268641353 22.697887482340338 1.742070476980419 -1 0 0
1825 1 76.75667388729231 22.697887482340338 1.7420704769804183 -1 0 0
1664 1 78.62879739887073 19.45527444224234 1.7420704769804167 -1 0 0
1671 4 80.50131794794959 18.37480741183326 0.023577265611766814 -1 0 0
1670 1 82.37304442202773 19.45527444224234 1.7420704769804167 -1 0 0
1666 4 78.62919443637098 21.617420451931263 0.023577265611765933 -1 0 0
1672 4 82.37344145952798 21.617420451931263 0.02357726561176605 -1 0 0
1831 1 80.50092091044931 22.697887482340338 1.74207047698042 -1 0 0
1677 4 84.24556497110659 18.37480741183326 0.023577265611766974 -1 0 0
1676 1 86.11729144518472 19.45527444224234 1.742070476980417 -1 0 0
1683 4 87.98981199426358 18.37480741183326 0.02357726561176659 -1 0 0
1678 4 86.11768848268497 21.617420451931263 0.023577265611764736 -1 0 0
1837 1 84.24516793360631 22.69788748234034 1.7420704769804192 -1 0 0
1843 1 87.9894149567633 22.697887482340338 1.742070476980419 -1 0 0
1682 1 89.86153846834172 19.45527444224234 1.742070476980417 -1 0 0
1689 4 91.73405901742059 18.37480741183326 0.023577265611766585 -1 0 0
1688 1 93.60578549149872 19.45527444224234 1.742070476980417 -1 0 0
1684 4 89.86193550584197 21.617420451931263 0.023577265611766964 -1 0 0
1690 4 93.60618252899897 21.617420451931263 0.023577265611764382 -1 0 0
1849 1 91.73366197992031 22.697887482340338 1.742070476980419 -1 0 0
1695 4 95.47830604057758 18.37480741183326 0.023577265611765645 -1 0 0
1694 1 97.35003251465572 19.45527444224234 1.7420704769804167 -1 0 0
1701 4 99.2225530637346 18.37480741183326 0.02357726561176781 -1 0 0
1700 1 101.09427953781272 19.45527444224234 1.7420704769804167 -1 0 0
1696 4 97.35042955215597 21.617420451931263 0.023577265611767935 -1 0 0
1855 1 95.4779090030773 22.697887482340338 1.7420704769804198 -1 0 0
1861 1 99.22215602623432 22.697887482340338 1.7420704769804183 -1 0 0
1869 4 1.8721304616525778 24.86003349202926 0.02357726561176645 0 0 0
1875 4 5.616377484809576 24.86003349202926 0.02357726561176704 0 0 0
1868 1 3.743856935730718 25.94050052243834 1.7420704769804172 0 0 0
1870 4 3.7442539732309625 28.102646532127263 0.023577265611766065 0 0 0
1864 4 6.950073967004755e-06 28.102646532127263 0.023577265611764243 0 0 0
1881 4 9.360624507966579 24.86003349202926 0.02357726561176683 0 0 0
1874 1 7.488103958887719 25.94050052243834 1.742070476980417 0 0 0
1880 1 11.23235098204472 25.94050052243834 1.742070476980417 0 0 0
1876 4 7.488500996387964 28.102646532127263 0.02357726561176574 0 0 0
1882 4 11.232748019544966 28.102646532127263 0.02357726561176578 0 0 0
1887 4 13.104871531123578 24.86003349202926 0.023577265611767033 0 0 0
1893 4 16.849118554280576 24.86003349202926 0.023577265611766974 0 0 0
1886 1 14.97659800520172 25.94050052243834 1.742070476980417 0 0 0
1888 4 14.976995042701965 28.102646532127263 0.023577265611765316 0 0 0
1899 4 20.593365577437577 24.86003349202926 0.023577265611766787 0 0 0
1892 1 18.72084502835872 25.94050052243834 1.742070476980417 0 0 0
1898 1 22.465092051515718 25.94050052243834 1.742070476980417 0 0 0
1894 4 18.721242065858966 28.102646532127263 0.02357726561176597 0 0 0
1900 4 22.465489089015968 28.102646532127263 0.0235772656117663 0 0 0
1905 4 24.337612600594575 24.86003349202926 0.02357726561176626 0 0 0
1911 4 28.081859623751576 24.86003349202926 0.02357726561176713 0 0 0
1904 1 26.209339074672716 25.94050052243834 1.742070476980417 0 0 0
1906 4 26.20973611217296 28.102646532127263 0.02357726561176648 0 0 0
1917 4 31.826106646908578 24.86003349202926 0.023577265611767064 0 0 0
1923 4 35.57035367006558 24.86003349202926 0.023577265611767022 0 0 0
1910 1 29.953586097829717 25.94050052243834 1.742070476980417 0 0 0
1916 1 33.69783312098672 25.94050052243834 1.7420704769804167 0 0 0
1912 4 29.95398313532996 28.102646532127263 0.023577265611765937 0 0 0
1918 4 33.698230158486965 28.102646532127263 0.023577265611765697 0 0 0
1929 4 39.31460069322258 24.86003349202926 0.023577265611766787 0 0 0
1922 1 37.44208014414372 25.94050052243834 1.742070476980417 0 0 0
1928 1 41.186327167300725 25.94050052243834 1.742070476980417 0 0 0
1924 4 37.44247718164396 28.102646532127263 0.023577265611765666 0 0 0
1930 4 41.18672420480097 28.102646532127263 0.023577265611765656 0 0 0
1935 4 43.05884771637958 24.86003349202926 0.02357726561176705 0 0 0
1941 4 46.80309473953658 24.86003349202926 0.023577265611767047 0 0 0
1934 1 44.930574190457726 25.94050052243834 1.742070476980417 0 0 0
1936 4 44.93097122795796 28.102646532127263 0.023577265611765933 0 0 0
1785 4 50.547341762693584 24.86003349202926 0.023577265611767644 -1 0 0
1940 1 48.67482121361473 25.94050052243834 1.742070476980417 0 0 0
1784 1 52.41906823677173 25.94050052243834 1.742070476980417 -1 0 0
1942 4 48.67521825111497 28.102646532127263 0.023577265611765753 0 0 0
1786 4 52.41946527427197 28.102646532127263 0.023577265611766117 -1 0 0
1791 4 54.291588785850585 24.86003349202926 0.023577265611766648 -1 0 0
1797 4 58.03583580900759 24.86003349202926 0.02357726561176674 -1 0 0
1790 1 56.16331525992873 25.94050052243834 1.7420704769804167 -1 0 0
1792 4 56.163712297428965 28.102646532127263 0.023577265611766186 -1 0 0
1803 4 61.78008283216458 24.86003349202926 0.023577265611767175 -1 0 0