LAMMPS data file via write_data, version 29 Aug 2024, timestep = 104, units = metal

6912 atoms
24 atom types

0 102.72531746784 xlo xhi
0 100.083076356348 ylo yhi
-50 50 zlo zhi

Masses

1 51.9961
2 51.9961
3 51.9961
4 51.9961
5 51.9961
6 51.9961
7 51.9961
8 51.9961
9 78.971
10 78.971
11 78.971
12 78.971
13 78.971
14 78.971
15 78.971
16 78.971
17 78.971
18 78.971
19 78.971
20 78.971
21 78.971
22 78.971
23 78.971
24 78.971

Atoms # atomic

1827 2 2.566457835962725 1.1375848123448595 -0.6167613358750329 0 0 0
1831 15 3.141986517898698 0.03969730097758797 1.4169610030828792 0 0 0
1833 10 3.6444618233777017 0.3942500628710571 1.3676720329879228 0 0 0
1828 14 1.7798435687143779 3.569791383593218 2.0836433575783597 0 0 0
1834 16 5.524921659991211 2.040190706789876 1.6455219544057829 0 0 0
1830 4 0.20731389471774606 3.672503980363237 0.3050369732059006 0 0 0
1836 12 3.576805924143059 3.6961917448169626 1.7000494066112954 0 0 0
2023 15 3.1419865178987445 5.59986820966366 1.4169610030828683 0 0 0
2029 13 5.577220369031905 5.19881925239516 1.7990160407861238 0 0 0
1826 1 1.3980689098899775 0.35551696787801557 2.1426504979251133 0 0 0
1832 9 4.949881739279221 2.138136614243475 1.8990199198235238 0 0 0
1835 11 1.806517589808645 3.5738628775329735 2.066516405766726 0 0 0
1839 2 8.986790177702742 1.1375848123448453 -0.6167613358750569 0 0 0
1843 15 9.562318859638525 0.03969730097748756 1.416961003082857 0 0 0
1845 10 10.06479416511774 0.3942500628711003 1.3676720329879184 0 0 0
1840 14 8.200175910454389 3.569791383593229 2.083643357578362 0 0 0
1842 4 6.627646236457771 3.672503980363262 0.3050369732058876 0 0 0
1848 12 9.99713826588305 3.6961917448169572 1.700049406611307 0 0 0
2035 15 9.562318859638653 5.599868209663583 1.4169610030828577 0 0 0
1838 1 7.818401251629993 0.3555169678780606 2.1426504979251106 0 0 0
1844 9 11.370214081019236 2.1381366142434812 1.8990199198235196 0 0 0
1847 11 8.226849931548674 3.5738628775329735 2.0665164057667265 0 0 0
1846 16 11.94525400173122 2.040190706789878 1.6455219544057884 0 0 0
1851 2 15.407122519442762 1.1375848123448307 -0.6167613358750892 0 0 0
1855 15 15.982651201378372 0.03969730097738511 1.416961003082819 0 0 0
1852 14 14.62050825219438 3.5697913835932367 2.0836433575783793 0 0 0
1854 4 13.047978578197798 3.6725039803632558 0.3050369732058965 0 0 0
1860 12 16.417470607623073 3.6961917448169546 1.700049406611307 0 0 0
2041 13 11.997552710771918 5.198819252395167 1.7990160407861178 0 0 0
2047 15 15.982651201378424 5.599868209663443 1.4169610030828452 0 0 0
1857 10 16.485126506857736 0.39425006287112824 1.3676720329879142 0 0 0
1850 1 14.238733593370027 0.355516967878053 2.142650497925087 0 0 0
1859 11 14.647182273288696 3.5738628775329566 2.0665164057667518 0 0 0
1863 2 21.82745486118278 1.1375848123448373 -0.6167613358750892 0 0 0
1867 15 22.402983543118342 0.03969730097738218 1.4169610030828321 0 0 0
1858 16 18.365586343471207 2.040190706789867 1.6455219544057853 0 0 0
1864 14 21.040840593934384 3.5697913835932176 2.0836433575783735 0 0 0
1866 4 19.46831091993777 3.672503980363259 0.3050369732058975 0 0 0
2053 13 18.41788505251191 5.1988192523951575 1.7990160407861426 0 0 0
2059 15 22.402983543118573 5.599868209663542 1.4169610030828677 0 0 0
1856 9 17.790546422759185 2.138136614243483 1.8990199198235405 0 0 0
1862 1 20.65906593511002 0.3555169678780603 2.1426504979250653 0 0 0
1871 11 21.067514615028678 3.573862877532955 2.066516405766741 0 0 0
1872 12 22.83780294936304 3.696191744816953 1.7000494066113057 0 0 0
1869 10 22.90545884859775 0.3942500628710964 1.3676720329878975 0 0 0
1875 2 28.24778720292279 1.137584812344821 -0.6167613358750942 0 0 0
1870 16 24.785918685211186 2.0401907067898524 1.6455219544057924 0 0 0
1876 14 27.46117293567437 3.569791383593201 2.083643357578374 0 0 0
1878 4 25.888643261677757 3.6725039803632384 0.30503697320591355 0 0 0
2065 13 24.83821739425189 5.198819252395139 1.7990160407861417 0 0 0
1868 9 24.210878764499185 2.138136614243458 1.8990199198235351 0 0 0
1874 1 27.079398276850025 0.35551696787807835 2.1426504979250804 0 0 0
1883 11 27.487846956768646 3.5738628775329593 2.06651640576673 0 0 0
1879 15 28.82331588485828 0.03969730097732572 1.4169610030828266 0 0 0
1881 10 29.32579119033776 0.39425006287112807 1.3676720329879177 0 0 0
1882 16 31.206251026951172 2.0401907067898364 1.645521954405779 0 0 0
1888 14 33.88150527741438 3.5697913835931807 2.083643357578367 0 0 0
1884 12 29.258135291103056 3.6961917448169594 1.7000494066112997 0 0 0
1890 4 32.30897560341772 3.6725039803632438 0.30503697320589407 0 0 0
2071 15 28.823315884858772 5.599868209663671 1.4169610030828863 0 0 0
2077 13 31.258549735991867 5.198819252395126 1.7990160407861495 0 0 0
1880 9 30.631211106239146 2.1381366142434453 1.8990199198235376 0 0 0
1886 1 33.49973061858996 0.3555169678780096 2.1426504979250858 0 0 0
1895 11 33.90817929850862 3.5738628775329646 2.066516405766718 0 0 0
1887 2 34.66811954466276 1.1375848123448677 -0.6167613358750326 0 0 0
1891 15 35.24364822659898 0.03969730097775382 1.4169610030829047 0 0 0
1893 10 35.74612353207769 0.3942500628710604 1.3676720329879473 0 0 0
1894 16 37.626583368691186 2.040190706789842 1.6455219544057769 0 0 0
1896 12 35.67846763284301 3.6961917448169586 1.7000494066113025 0 0 0
1902 4 38.72930794515773 3.6725039803632393 0.3050369732058732 0 0 0
2083 15 35.24364822659896 5.599868209663778 1.416961003082894 0 0 0
2089 13 37.67888207773189 5.198819252395125 1.7990160407861269 0 0 0
1892 9 37.05154344797921 2.1381366142434315 1.899019919823508 0 0 0
1898 1 39.920062960329986 0.3555169678780432 2.142650497925131 0 0 0
1899 2 41.08845188640272 1.1375848123448589 -0.61676133587504 0 0 0
1903 15 41.663980568338765 0.039697300977644456 1.4169610030828939 0 0 0
1905 10 42.16645587381772 0.39425006287107817 1.3676720329879282 0 0 0
1900 14 40.301837619154405 3.569791383593177 2.0836433575783655 0 0 0
1906 16 44.04691571043118 2.040190706789845 1.6455219544057664 0 0 0
1908 12 42.098799974583024 3.6961917448169594 1.7000494066113 0 0 0
1914 4 45.149640286897736 3.6725039803632438 0.305036973205882 0 0 0
2095 15 41.66398056833893 5.599868209663775 1.4169610030828836 0 0 0
2101 13 44.09921441947187 5.198819252395122 1.7990160407861266 0 0 0
1904 9 43.47187578971918 2.1381366142434395 1.8990199198235151 0 0 0
1907 11 40.32851164024864 3.573862877532962 2.0665164057667207 0 0 0
1911 2 47.50878422814272 1.1375848123448735 -0.6167613358750413 0 0 0
1915 15 48.08431291007899 0.03969730097778363 1.416961003082898 0 0 0
1917 10 48.58678821555767 0.3942500628710953 1.367672032987941 0 0 0
1912 14 46.72216996089439 3.569791383593187 2.083643357578356 0 0 0
1918 16 50.46724805217117 2.0401907067898373 1.6455219544057662 0 0 0
1920 12 48.519132316323024 3.6961917448169617 1.7000494066113028 0 0 0
2107 15 48.084312910078964 5.599868209663795 1.4169610030828885 0 0 0
1921 13 50.51954676121186 5.198819252395112 1.7990160407861324 -1 0 0
1910 1 46.34039530206992 0.3555169678780559 2.1426504979250964 0 0 0
1916 9 49.89220813145921 2.1381366142434195 1.8990199198234932 0 0 0
1919 11 46.74884398198862 3.573862877532974 2.066516405766711 0 0 0
1731 2 53.92911656988269 1.1375848123448775 -0.6167613358750392 -1 0 0
1735 15 54.504645251818985 0.03969730097779402 1.4169610030829067 -1 0 0
1737 10 55.00712055729767 0.39425006287109626 1.3676720329879346 -1 0 0
1732 14 53.1425023026344 3.5697913835931665 2.0836433575783606 -1 0 0
1738 16 56.88758039391117 2.040190706789852 1.6455219544057549 -1 0 0
1734 4 51.56997262863772 3.672503980363237 0.30503697320587186 -1 0 0
1740 12 54.93946465806302 3.69619174481696 1.7000494066113008 -1 0 0
1927 15 54.50464525181909 5.59986820966387 1.4169610030829038 -1 0 0
1933 13 56.93987910295187 5.198819252395132 1.799016040786132 -1 0 0
1730 1 52.76072764380992 0.3555169678780318 2.1426504979251195 -1 0 0
1736 9 56.3125404731992 2.138136614243438 1.8990199198234925 -1 0 0
1739 11 53.169176323728614 3.5738628775329673 2.0665164057667065 -1 0 0
1743 2 60.349448911622694 1.1375848123448864 -0.616761335875014 -1 0 0
1749 10 61.42745289903765 0.3942500628711037 1.3676720329879497 -1 0 0
1747 15 60.92497759355902 0.039697300977814085 1.416961003082913 -1 0 0
1744 14 59.562834644374384 3.5697913835931847 2.0836433575783344 -1 0 0
1746 4 57.99030497037773 3.6725039803632495 0.3050369732058766 -1 0 0
1752 12 61.35979699980303 3.6961917448169523 1.7000494066113006 -1 0 0
1939 15 60.92497759355908 5.599868209663856 1.4169610030828914 -1 0 0
1742 1 59.181059985549915 0.3555169678780223 2.1426504979250955 -1 0 0
1748 9 62.73287281493928 2.1381366142434834 1.8990199198234905 -1 0 0
1751 11 59.589508665468614 3.573862877532978 2.066516405766683 -1 0 0
1750 16 63.30791273565123 2.0401907067898963 1.6455219544057795 -1 0 0
1755 2 66.76978125336275 1.1375848123448176 -0.6167613358750742 -1 0 0
1759 15 67.34530993529843 0.03969730097740352 1.4169610030828217 -1 0 0
1756 14 65.9831669861144 3.5697913835932495 2.083643357578404 -1 0 0
1758 4 64.41063731211784 3.6725039803632686 0.3050369732059358 -1 0 0
1764 12 67.78012934154312 3.6961917448169612 1.7000494066113054 -1 0 0
1945 13 63.36021144469194 5.198819252395177 1.7990160407861175 -1 0 0
1951 15 67.34530993529836 5.599868209663423 1.4169610030828583 -1 0 0
1761 10 67.84778524077775 0.39425006287113346 1.3676720329879206 -1 0 0
1754 1 65.60139232729001 0.3555169678780666 2.142650497925103 -1 0 0
1763 11 66.0098410072087 3.5738628775329775 2.066516405766773 -1 0 0
1767 2 73.19011359510274 1.1375848123448777 -0.6167613358750427 -1 0 0
1771 15 73.7656422770386 0.03969730097759328 1.4169610030828923 -1 0 0
1762 16 69.72824507739125 2.040190706789868 1.6455219544057726 -1 0 0
1768 14 72.40349932785439 3.5697913835932518 2.0836433575783384 -1 0 0
1770 4 70.83096965385778 3.6725039803632917 0.3050369732058832 -1 0 0
1957 13 69.78054378643189 5.198819252395166 1.7990160407861626 -1 0 0
1963 15 73.76564227703852 5.599868209663499 1.4169610030828426 -1 0 0
1760 9 69.15320515667916 2.138136614243499 1.8990199198235722 -1 0 0
1766 1 72.02172466902998 0.3555169678780296 2.142650497925057 -1 0 0
1775 11 72.4301733489487 3.5738628775329806 2.0665164057667096 -1 0 0
1776 12 74.20046168328305 3.6961917448169554 1.7000494066113063 -1 0 0
1773 10 74.26811758251772 0.3942500628710635 1.3676720329879053 -1 0 0
1779 2 79.61044593684277 1.137584812344833 -0.61676133587508 -1 0 0
1774 16 76.1485774191312 2.040190706789885 1.6455219544058197 -1 0 0
1780 14 78.82383166959436 3.5697913835932633 2.083643357578379 -1 0 0
1782 4 77.25130199559779 3.67250398036324 0.3050369732059226 -1 0 0
1969 13 76.20087612817188 5.198819252395179 1.799016040786099 -1 0 0
1772 9 75.57353749841928 2.138136614243468 1.899019919823518 -1 0 0
1778 1 78.44205701077 0.3555169678780559 2.142650497925097 -1 0 0
1787 11 78.85050569068868 3.5738628775329797 2.0665164057667553 -1 0 0
1783 15 80.1859746187784 0.039697300977396585 1.4169610030828124 -1 0 0
1785 10 80.68844992425778 0.3942500628711345 1.3676720329879057 -1 0 0
1786 16 82.56890976087121 2.040190706789899 1.6455219544057993 -1 0 0
1792 14 85.24416401133436 3.5697913835932606 2.0836433575783464 -1 0 0
1788 12 80.62079402502313 3.696191744816965 1.7000494066113 -1 0 0
1794 4 83.67163433733778 3.6725039803632713 0.3050369732059016 -1 0 0
1975 15 80.18597461877839 5.599868209663429 1.4169610030828381 -1 0 0
1981 13 82.6212084699119 5.198819252395188 1.7990160407861413 -1 0 0
1784 9 81.99386984015922 2.138136614243507 1.8990199198235478 -1 0 0
1790 1 84.86238935251004 0.3555169678780501 2.1426504979250605 -1 0 0
1799 11 85.2708380324287 3.5738628775329566 2.0665164057667273 -1 0 0
1791 2 86.03077827858277 1.1375848123448642 -0.6167613358750695 -1 0 0
1795 15 86.60630696051842 0.039697300977450875 1.4169610030828526 -1 0 0
1797 10 87.10878226599777 0.3942500628710311 1.3676720329878689 -1 0 0
1798 16 88.98924210261121 2.0401907067899065 1.6455219544058095 -1 0 0
1800 12 87.04112636676314 3.6961917448169612 1.7000494066112986 -1 0 0
1806 4 90.09196667907783 3.672503980363259 0.30503697320591777 -1 0 0
1987 15 86.60630696051841 5.599868209663418 1.4169610030828257 -1 0 0
1993 13 89.04154081165197 5.198819252395201 1.7990160407861089 -1 0 0
1796 9 88.4142021818993 2.138136614243498 1.899019919823497 -1 0 0
1802 1 91.28272169424993 0.35551696787808695 2.1426504979250844 -1 0 0
1803 2 92.45111062032275 1.137584812344842 -0.6167613358750724 -1 0 0
1807 15 93.0266393022586 0.03969730097753239 1.4169610030828486 -1 0 0
1809 10 93.52911460773772 0.3942500628711261 1.3676720329879277 -1 0 0
1804 14 91.6644963530744 3.569791383593248 2.0836433575783975 -1 0 0
1810 16 95.4095744443512 2.0401907067898755 1.6455219544057882 -1 0 0
1812 12 93.46145870850313 3.69619174481696 1.7000494066113039 -1 0 0
1818 4 96.51229902081772 3.672503980363282 0.3050369732058913 -1 0 0
1999 15 93.02663930225833 5.599868209663367 1.4169610030828492 -1 0 0
2005 13 95.4618731533919 5.198819252395162 1.799016040786157 -1 0 0
1808 9 94.8345345236392 2.138136614243482 1.899019919823533 -1 0 0
1811 11 91.69117037416872 3.5738628775329624 2.0665164057667718 -1 0 0
2017 13 101.88220549513188 5.198819252395144 1.79901604078612 -1 0 0
1815 2 98.87144296206276 1.137584812344847 -0.6167613358750901 -1 0 0
1819 15 99.44697164399837 0.039697300977443305 1.4169610030828579 -1 0 0
1821 10 99.9494469494778 0.39425006287109415 1.3676720329878866 -1 0 0
1816 14 98.08482869481438 3.5697913835932225 2.0836433575783433 -1 0 0
1822 16 101.82990678609119 2.0401907067898715 1.6455219544058028 -1 0 0
1824 12 99.88179105024311 3.696191744816965 1.7000494066112934 -1 0 0
2011 15 99.44697164399864 5.59986820966358 1.4169610030828514 -1 0 0
1814 1 97.70305403599001 0.35551696787811143 2.142650497925085 -1 0 0
1820 9 101.25486686537923 2.138136614243457 1.8990199198235311 -1 0 0
1823 11 98.11150271590867 3.573862877532953 2.0665164057667185 -1 0 0
2019 2 2.5664578359627397 6.697755721030876 -0.6167613358750682 0 0 0
2025 10 3.644461823377703 5.954420971557092 1.3676720329879042 0 0 0
2020 14 1.779843568714386 9.129962292279219 2.083643357578349 0 0 0
2026 16 5.524921659991205 7.600361615475889 1.6455219544057802 0 0 0
2022 4 0.20731389471773717 9.23267488904925 0.30503697320589057 0 0 0
2028 12 3.5768059241430312 9.25636265350296 1.7000494066113019 0 0 0
2215 15 3.1419865178987174 11.160039118349625 1.4169610030828612 0 0 0
2221 13 5.577220369031894 10.758990161081174 1.7990160407861011 0 0 0
2217 10 3.6444618233777115 11.514591880243096 1.3676720329879075 0 0 0
2018 1 1.39806890988996 5.915687876564047 2.14265049792507 0 0 0
2024 9 4.9498817392792445 7.69830752292948 1.8990199198235058 0 0 0
2027 11 1.8065175898086552 9.13403378621896 2.0665164057667234 0 0 0
2210 1 1.3980689098899564 11.475858785250065 2.142650497925079 0 0 0
2031 2 8.98679017770274 6.697755721030861 -0.616761335875069 0 0 0
2037 10 10.064794165117725 5.9544209715570915 1.3676720329878984 0 0 0
2032 14 8.200175910454377 9.12996229227925 2.083643357578347 0 0 0
2034 4 6.6276462364577675 9.232674889049266 0.30503697320587875 0 0 0
2040 12 9.997138265883056 9.256362653502963 1.7000494066112988 0 0 0
2227 15 9.56231885963861 11.160039118349571 1.4169610030828466 0 0 0
2229 10 10.064794165117727 11.514591880243103 1.3676720329878924 0 0 0
2030 1 7.818401251629993 5.915687876564056 2.142650497925086 0 0 0
2036 9 11.370214081019238 7.698307522929468 1.8990199198235023 0 0 0
2039 11 8.226849931548664 9.134033786218986 2.0665164057667194 0 0 0
2222 1 7.818401251629988 11.475858785250065 2.142650497925062 0 0 0
2038 16 11.945254001731197 7.600361615475879 1.6455219544057762 0 0 0
2043 2 15.407122519442737 6.697755721030859 -0.6167613358750632 0 0 0
2044 14 14.620508252194377 9.129962292279236 2.0836433575783424 0 0 0
2046 4 13.047978578197753 9.232674889049266 0.30503697320588025 0 0 0
2052 12 16.417470607623063 9.256362653502965 1.700049406611296 0 0 0
2233 13 11.997552710771883 10.758990161081163 1.7990160407861135 0 0 0
2239 15 15.982651201378669 11.160039118349601 1.4169610030828477 0 0 0
2049 10 16.485126506857746 5.954420971557056 1.3676720329878789 0 0 0
2241 10 16.48512650685771 11.514591880243104 1.367672032987897 0 0 0
2042 1 14.238733593370029 5.91568787656404 2.142650497925094 0 0 0
2051 11 14.647182273288655 9.13403378621898 2.066516405766709 0 0 0
2234 1 14.23873359336998 11.47585878525006 2.1426504979250702 0 0 0
2055 2 21.82745486118272 6.697755721030866 -0.6167613358750544 0 0 0
2050 16 18.36558634347122 7.6003616154759 1.645521954405778 0 0 0
2056 14 21.04084059393439 9.129962292279258 2.083643357578341 0 0 0
2058 4 19.468310919937775 9.232674889049283 0.30503697320587086 0 0 0
2245 13 18.417885052511924 10.758990161081183 1.7990160407861184 0 0 0
2251 15 22.402983543118438 11.160039118349454 1.4169610030828323 0 0 0
2048 9 17.790546422759245 7.698307522929497 1.899019919823519 0 0 0
2054 1 20.659065935110004 5.915687876564036 2.142650497925106 0 0 0
2063 11 21.067514615028696 9.134033786218975 2.066516405766722 0 0 0
2246 1 20.659065935110014 11.475858785250068 2.1426504979250747 0 0 0
2064 12 22.837802949363027 9.256362653502958 1.7000494066112999 0 0 0
2061 10 22.905458848597732 5.954420971557067 1.3676720329878935 0 0 0
2067 2 28.247787202922712 6.69775572103088 -0.6167613358750452 0 0 0
2062 16 24.7859186852112 7.600361615475886 1.6455219544057844 0 0 0
2068 14 27.461172935674373 9.129962292279249 2.0836433575783477 0 0 0
2070 4 25.88864326167776 9.232674889049267 0.305036973205887 0 0 0
2257 13 24.838217394251892 10.758990161081167 1.7990160407861169 0 0 0
2253 10 22.905458848597753 11.514591880243097 1.3676720329878829 0 0 0
2060 9 24.210878764499256 7.698307522929475 1.8990199198235018 0 0 0
2066 1 27.079398276849968 5.915687876564023 2.1426504979251013 0 0 0
2075 11 27.487846956768664 9.13403378621898 2.066516405766721 0 0 0
2258 1 27.079398276849982 11.475858785250063 2.1426504979250707 0 0 0
2073 10 29.325791190337693 5.9544209715570675 1.3676720329879066 0 0 0
2074 16 31.206251026951172 7.6003616154758635 1.645521954405769 0 0 0
2080 14 33.88150527741438 9.129962292279206 2.0836433575783366 0 0 0
2076 12 29.258135291103056 9.256362653502967 1.7000494066112934 0 0 0
2082 4 32.30897560341773 9.232674889049253 0.3050369732058762 0 0 0
2263 15 28.823315884858577 11.160039118349552 1.4169610030828486 0 0 0
2269 13 31.25854973599186 10.758990161081138 1.7990160407861302 0 0 0
2265 10 29.325791190337725 11.5145918802431 1.3676720329878949 0 0 0
2072 9 30.63121110623922 7.698307522929443 1.8990199198234965 0 0 0
2078 1 33.49973061858993 5.915687876564044 2.1426504979251084 0 0 0
2087 11 33.90817929850862 9.134033786218984 2.066516405766693 0 0 0
2270 1 33.49973061858993 11.475858785250056 2.1426504979250742 0 0 0
2079 2 34.66811954466269 6.6977557210308785 -0.6167613358750392 0 0 0
2085 10 35.74612353207766 5.954420971557102 1.3676720329879262 0 0 0
2086 16 37.62658336869116 7.600361615475856 1.64552195440576 0 0 0
2088 12 35.67846763284302 9.256362653502965 1.7000494066112999 0 0 0
2094 4 38.72930794515771 9.232674889049255 0.3050369732058666 0 0 0
2275 15 35.243648226599 11.1600391183498 1.4169610030828867 0 0 0
2281 13 37.678882077731856 10.758990161081131 1.7990160407861249 0 0 0
2277 10 35.74612353207767 11.51459188024312 1.3676720329879293 0 0 0
2084 9 37.05154344797923 7.698307522929434 1.899019919823475 0 0 0
2090 1 39.92006296032991 5.9156878765640695 2.142650497925092 0 0 0
2282 1 39.92006296032991 11.475858785250061 2.1426504979250733 0 0 0
2091 2 41.0884518864027 6.697755721030883 -0.6167613358750618 0 0 0
2097 10 42.16645587381768 5.954420971557109 1.3676720329879084 0 0 0
2092 14 40.30183761915438 9.129962292279188 2.0836433575783406 0 0 0
2098 16 44.04691571043118 7.600361615475862 1.6455219544057627 0 0 0
2100 12 42.09879997458305 9.256362653502963 1.7000494066112886 0 0 0
2106 4 45.149640286897736 9.23267488904926 0.3050369732058754 0 0 0
2287 15 41.66398056833895 11.16003911834982 1.4169610030828859 0 0 0
2293 13 44.09921441947187 10.758990161081133 1.799016040786125 0 0 0
2289 10 42.16645587381767 11.51459188024311 1.3676720329879049 0 0 0
2096 9 43.47187578971922 7.69830752292944 1.8990199198234947 0 0 0
2099 11 40.328511640248614 9.134033786218971 2.0665164057666927 0 0 0
2103 2 47.50878422814271 6.697755721030885 -0.616761335875053 0 0 0
2109 10 48.58678821555768 5.954420971557107 1.367672032987921 0 0 0
2104 14 46.722169960894384 9.129962292279203 2.0836433575783526 0 0 0
2110 16 50.46724805217112 7.600361615475827 1.645521954405752 0 0 0
2112 12 48.51913231632301 9.256362653502961 1.700049406611306 0 0 0
2299 15 48.084312910079 11.1600391183498 1.4169610030828899 0 0 0
2113 13 50.51954676121184 10.758990161081096 1.7990160407861286 -1 0 0
2301 10 48.58678821555767 11.514591880243126 1.3676720329879342 0 0 0
2102 1 46.34039530206991 5.915687876564055 2.142650497925087 0 0 0
2108 9 49.89220813145919 7.698307522929401 1.899019919823466 0 0 0
2111 11 46.74884398198863 9.134033786218984 2.066516405766705 0 0 0
2294 1 46.34039530206992 11.47585878525007 2.1426504979250884 0 0 0
1923 2 53.9291165698827 6.697755721030896 -0.6167613358750539 -1 0 0
1929 10 55.00712055729766 5.95442097155711 1.3676720329879297 -1 0 0
1924 14 53.142502302634384 9.12996229227913 2.0836433575783477 -1 0 0
1930 16 56.8875803939112 7.600361615475877 1.6455219544057587 -1 0 0
1926 4 51.56997262863767 9.232674889049227 0.3050369732058605 -1 0 0
1932 12 54.93946465806304 9.256362653502967 1.7000494066112894 -1 0 0
2119 15 54.50464525181948 11.160039118350099 1.4169610030829312 -1 0 0
2125 13 56.93987910295189 10.758990161081158 1.7990160407861033 -1 0 0
2121 10 55.00712055729764 11.51459188024311 1.3676720329879597 -1 0 0
1922 1 52.7607276438099 5.9156878765640535 2.1426504979250924 -1 0 0
1928 9 56.31254047319922 7.698307522929464 1.8990199198235016 -1 0 0
1931 11 53.169176323728564 9.134033786218964 2.06651640576668 -1 0 0
2114 1 52.760727643809844 11.475858785250047 2.142650497925073 -1 0 0
1935 2 60.34944891162272 6.697755721030894 -0.6167613358750558 -1 0 0
1941 10 61.42745289903767 5.954420971557111 1.367672032987925 -1 0 0
1936 14 59.56283464437439 9.12996229227923 2.0836433575783357 -1 0 0
1938 4 57.990304970377764 9.232674889049264 0.3050369732058664 -1 0 0
1944 12 61.35979699980303 9.25636265350296 1.7000494066112963 -1 0 0
2131 15 60.924977593558744 11.16003911834965 1.416961003082849 -1 0 0
2133 10 61.427452899037704 11.514591880243112 1.3676720329878944 -1 0 0
1934 1 59.18105998554993 5.915687876564043 2.142650497925083 -1 0 0
1940 9 62.73287281493928 7.698307522929505 1.8990199198235078 -1 0 0
1943 11 59.58950866546865 9.134033786218984 2.066516405766707 -1 0 0
2126 1 59.181059985549965 11.475858785250061 2.1426504979250685 -1 0 0
1942 16 63.30791273565122 7.600361615475915 1.645521954405785 -1 0 0
1947 2 66.76978125336274 6.697755721030862 -0.6167613358750511 -1 0 0
1948 14 65.98316698611438 9.129962292279282 2.083643357578331 -1 0 0
1950 4 64.41063731211777 9.232674889049287 0.30503697320586903 -1 0 0
1956 12 67.78012934154313 9.25636265350296 1.700049406611295 -1 0 0
2137 13 63.36021144469192 10.758990161081206 1.7990160407860893 -1 0 0
2143 15 67.34530993529835 11.160039118349411 1.4169610030828106 -1 0 0
1953 10 67.84778524077778 5.954420971557047 1.3676720329878689 -1 0 0
2145 10 67.84778524077777 11.514591880243108 1.3676720329878607 -1 0 0
1946 1 65.60139232729006 5.915687876564025 2.142650497925105 -1 0 0
1955 11 66.0098410072087 9.134033786219007 2.06651640576669 -1 0 0
2138 1 65.60139232729001 11.475858785250074 2.1426504979250414 -1 0 0
1959 2 73.19011359510273 6.697755721030844 -0.6167613358750691 -1 0 0
1954 16 69.72824507739125 7.600361615475948 1.6455219544057886 -1 0 0
1960 14 72.4034993278544 9.129962292279306 2.083643357578382 -1 0 0
1962 4 70.83096965385786 9.232674889049305 0.305036973205914 -1 0 0
2149 13 69.78054378643198 10.758990161081238 1.7990160407861076 -1 0 0
2155 15 73.76564227703793 11.160039118349163 1.4169610030828095 -1 0 0
1952 9 69.1532051566793 7.698307522929554 1.8990199198234967 -1 0 0
1958 1 72.02172466903004 5.9156878765640535 2.14265049792511 -1 0 0
1967 11 72.43017334894877 9.134033786218982 2.0665164057667615 -1 0 0
2150 1 72.02172466903016 11.47585878525005 2.1426504979250782 -1 0 0
1968 12 74.20046168328311 9.256362653502954 1.7000494066112921 -1 0 0
1965 10 74.26811758251773 5.954420971557126 1.3676720329879017 -1 0 0
1971 2 79.61044593684274 6.697755721030863 -0.6167613358750795 -1 0 0
1966 16 76.14857741913124 7.600361615475908 1.6455219544058013 -1 0 0
1972 14 78.82383166959438 9.129962292279284 2.0836433575783406 -1 0 0
1974 4 77.2513019955978 9.232674889049292 0.3050369732058895 -1 0 0
2161 13 76.20087612817193 10.758990161081194 1.7990160407861433 -1 0 0
2157 10 74.26811758251786 11.514591880243028 1.367672032987825 -1 0 0
1964 9 75.57353749841927 7.698307522929504 1.899019919823539 -1 0 0
1970 1 78.44205701077001 5.915687876564035 2.142650497925053 -1 0 0
1979 11 78.85050569068872 9.134033786218975 2.066516405766737 -1 0 0
2162 1 78.44205701077004 11.475858785250063 2.1426504979250915 -1 0 0
1977 10 80.68844992425774 5.954420971557061 1.3676720329878655 -1 0 0
1978 16 82.56890976087116 7.6003616154759 1.645521954405804 -1 0 0
1984 14 85.24416401133438 9.129962292279215 2.083643357578364 -1 0 0
1980 12 80.62079402502309 9.256362653502958 1.7000494066113079 -1 0 0
1986 4 83.67163433733774 9.232674889049266 0.3050369732058801 -1 0 0
2167 15 80.1859746187783 11.160039118349381 1.416961003082823 -1 0 0
2173 13 82.62120846991189 10.758990161081172 1.79901604078615 -1 0 0
2169 10 80.68844992425777 11.514591880243103 1.367672032987867 -1 0 0
1976 9 81.99386984015926 7.698307522929487 1.899019919823505 -1 0 0
1982 1 84.86238935251005 5.915687876564042 2.1426504979250995 -1 0 0
1991 11 85.27083803242866 9.134033786218945 2.066516405766738 -1 0 0
2174 1 84.86238935251001 11.475858785250058 2.1426504979250875 -1 0 0
1983 2 86.03077827858276 6.697755721030841 -0.6167613358750715 -1 0 0
1989 10 87.10878226599776 5.95442097155707 1.367672032987888 -1 0 0
1990 16 88.98924210261123 7.600361615475896 1.6455219544057884 -1 0 0
1992 12 87.04112636676325 9.25636265350298 1.7000494066112692 -1 0 0
1998 4 90.0919666790778 9.232674889049276 0.30503697320590833 -1 0 0
2179 15 86.60630696051862 11.160039118349598 1.416961003082864 -1 0 0
2185 13 89.04154081165191 10.758990161081192 1.7990160407861198 -1 0 0
2181 10 87.10878226599773 11.514591880243053 1.3676720329878755 -1 0 0
1988 9 88.41420218189924 7.698307522929498 1.8990199198235478 -1 0 0
1994 1 91.28272169425006 5.915687876564042 2.142650497925083 -1 0 0
2186 1 91.28272169425004 11.475858785250038 2.1426504979250574 -1 0 0
1995 2 92.45111062032278 6.697755721030856 -0.6167613358750748 -1 0 0
2001 10 93.52911460773781 5.954420971557028 1.367672032987869 -1 0 0
1996 14 91.66449635307437 9.129962292279295 2.083643357578331 -1 0 0
2002 16 95.40957444435129 7.600361615475925 1.6455219544057769 -1 0 0
2004 12 93.46145870850313 9.256362653502965 1.700049406611299 -1 0 0
2010 4 96.51229902081788 9.232674889049314 0.30503697320590367 -1 0 0
2191 15 93.02663930225839 11.160039118349419 1.4169610030828266 -1 0 0
2197 13 95.46187315339199 10.758990161081226 1.7990160407861264 -1 0 0
2193 10 93.52911460773775 11.5145918802431 1.367672032987881 -1 0 0
2000 9 94.83453452363929 7.6983075229295395 1.899019919823518 -1 0 0
2003 11 91.69117037416869 9.134033786218996 2.0665164057667194 -1 0 0
2209 13 101.8822054951319 10.758990161081154 1.7990160407861397 -1 0 0
2007 2 98.87144296206273 6.6977557210308625 -0.6167613358750637 -1 0 0
2013 10 99.94944694947776 5.954420971557082 1.3676720329878915 -1 0 0
2008 14 98.08482869481442 9.129962292279327 2.0836433575783664 -1 0 0
2014 16 101.82990678609119 7.600361615475877 1.645521954405807 -1 0 0
2016 12 99.88179105024308 9.256362653502952 1.7000494066112948 -1 0 0
2203 15 99.44697164399793 11.16003911834916 1.4169610030828264 -1 0 0
2205 10 99.94944694947785 11.514591880243078 1.3676720329878498 -1 0 0
2006 1 97.70305403598996 5.915687876564055 2.142650497925103 -1 0 0
2012 9 101.25486686537924 7.698307522929465 1.8990199198235367 -1 0 0
2015 11 98.11150271590878 9.134033786218987 2.0665164057667686 -1 0 0
2198 1 97.70305403599012 11.475858785250065 2.1426504979250933 -1 0 0
2211 2 2.5664578359627446 12.257926629716872 -0.6167613358750732 0 0 0
2212 14 1.7798435687143643 14.690133200965226 2.08364335757835 0 0 0
2218 16 5.524921659991201 13.16053252416187 1.6455219544057678 0 0 0
2214 4 0.2073138947177344 14.792845797735241 0.3050369732058882 0 0 0
2220 12 3.5768059241430428 14.816533562188964 1.7000494066113023 0 0 0
2407 15 3.1419865178987463 16.72021002703564 1.4169610030828668 0 0 0
2409 10 3.6444618233777017 17.074762788929085 1.3676720329879177 0 0 0
2413 13 5.577220369031891 16.319161069767155 1.7990160407861082 0 0 0
2216 9 4.949881739279237 13.25847843161546 1.899019919823493 0 0 0
2219 11 1.806517589808631 14.694204694904965 2.0665164057667327 0 0 0
2402 1 1.398068909889956 17.03602969393604 2.142650497925068 0 0 0
2223 2 8.986790177702757 12.257926629716854 -0.6167613358750882 0 0 0
2224 14 8.20017591045438 14.690133200965224 2.0836433575783477 0 0 0
2226 4 6.627646236457759 14.792845797735259 0.3050369732058767 0 0 0
2232 12 9.997138265883057 14.816533562188962 1.7000494066113014 0 0 0
2419 15 9.562318859638719 16.720210027035616 1.4169610030828574 0 0 0
2421 10 10.064794165117712 17.074762788929096 1.3676720329879062 0 0 0
2228 9 11.370214081019238 13.25847843161548 1.8990199198235116 0 0 0
2231 11 8.226849931548653 14.694204694904974 2.066516405766715 0 0 0
2414 1 7.818401251629972 17.036029693936058 2.142650497925075 0 0 0
2230 16 11.945254001731218 13.160532524161884 1.6455219544057762 0 0 0
2235 2 15.407122519442742 12.25792662971687 -0.6167613358750779 0 0 0
2236 14 14.620508252194377 14.690133200965255 2.0836433575783495 0 0 0
2238 4 13.047978578197782 14.79284579773527 0.3050369732058877 0 0 0