LAMMPS data file via write_data, version 29 Aug 2024, timestep = 0, units = metal

3456 atoms
12 atom types

0 102.72531746784 xlo xhi
0 100.083076356348 ylo yhi
0 18.14752888541 zlo zhi

Masses

1 78.95999999999999
2 78.95999999999999
3 78.95999999999999
4 51.9961
5 78.95999999999999
6 78.95999999999999
7 78.95999999999999
8 78.95999999999999
9 51.9961
10 51.9961
11 51.9961
12 78.971

Atoms # atomic

1827 2 1.6050830854349982 0.9266951514480013 0 0 0 0
1825 9 0 0 1.5737644427050004 0 0 0
1831 11 3.2101661708699964 0 1.5737644427050004 0 0 0
1833 6 4.815249256305002 0.9266951514480013 0 0 0 0
1837 9 6.42033234174 0 1.5737644427050004 0 0 0
1839 2 8.025415427174998 0.9266951514480013 0 0 0 0
1843 11 9.630498512609996 0 1.5737644427050004 0 0 0
1845 6 11.235581598045002 0.9266951514480013 0 0 0 0
1849 9 12.84066468348 0 1.5737644427050004 0 0 0
1851 2 14.445747768914998 0.9266951514480013 0 0 0 0
1855 11 16.050830854349996 0 1.5737644427050004 0 0 0
1857 6 17.655913939784995 0.9266951514480013 0 0 0 0
1863 2 20.866080110655005 0.9266951514480013 0 0 0 0
1861 9 19.260997025219993 0 1.5737644427050004 0 0 0
1867 11 22.471163196090004 0 1.5737644427050004 0 0 0
1869 6 24.076246281525002 0.9266951514480013 0 0 0 0
1873 9 25.68132936696 0 1.5737644427050004 0 0 0
1875 2 27.286412452395 0.9266951514480013 0 0 0 0
1879 11 28.891495537829996 0 1.5737644427050004 0 0 0
1881 6 30.496578623264995 0.9266951514480013 0 0 0 0
1885 9 32.10166170869999 0 1.5737644427050004 0 0 0
1887 2 33.706744794135005 0.9266951514480013 0 0 0 0
1891 11 35.311827879570004 0 1.5737644427050004 0 0 0
1893 6 36.916910965005 0.9266951514480013 0 0 0 0
1897 9 38.52199405044 0 1.5737644427050004 0 0 0
1899 2 40.127077135875 0.9266951514480013 0 0 0 0
1903 11 41.73216022131 0 1.5737644427050004 0 0 0
1905 6 43.337243306744995 0.9266951514480013 0 0 0 0
1909 9 44.94232639217999 0 1.5737644427050004 0 0 0
1911 2 46.547409477615005 0.9266951514480013 0 0 0 0
1915 11 48.152492563050004 0 1.5737644427050004 0 0 0
1917 6 49.757575648485 0.9266951514480013 0 0 0 0
1729 9 51.36265873392 0 1.5737644427050004 -1 0 0
1731 2 52.967741819355 0.9266951514480013 0 -1 0 0
1735 11 54.57282490479 0 1.5737644427050004 -1 0 0
1737 6 56.177907990225 0.9266951514480013 0 -1 0 0
1741 9 57.78299107566 0 1.5737644427050004 -1 0 0
1743 2 59.388074161095 0.9266951514480013 0 -1 0 0
1749 6 62.598240331965 0.9266951514480013 0 -1 0 0
1747 11 60.993157246530004 0 1.5737644427050004 -1 0 0
1753 9 64.2033234174 0 1.5737644427050004 -1 0 0
1755 2 65.808406502835 0.9266951514480013 0 -1 0 0
1759 11 67.41348958827 0 1.5737644427050004 -1 0 0
1761 6 69.018572673705 0.9266951514480013 0 -1 0 0
1765 9 70.62365575914001 0 1.5737644427050004 -1 0 0
1767 2 72.22873884457499 0.9266951514480013 0 -1 0 0
1771 11 73.83382193001 0 1.5737644427050004 -1 0 0
1773 6 75.438905015445 0.9266951514480013 0 -1 0 0
1777 9 77.04398810088 0 1.5737644427050004 -1 0 0
1779 2 78.649071186315 0.9266951514480013 0 -1 0 0
1783 11 80.25415427175 0 1.5737644427050004 -1 0 0
1785 6 81.859237357185 0.9266951514480013 0 -1 0 0
1789 9 83.46432044262 0 1.5737644427050004 -1 0 0
1791 2 85.069403528055 0.9266951514480013 0 -1 0 0
1795 11 86.67448661348999 0 1.5737644427050004 -1 0 0
1797 6 88.279569698925 0.9266951514480013 0 -1 0 0
1801 9 89.88465278436 0 1.5737644427050004 -1 0 0
1803 2 91.489735869795 0.9266951514480013 0 -1 0 0
1807 11 93.09481895523 0 1.5737644427050004 -1 0 0
1809 6 94.699902040665 0.9266951514480013 0 -1 0 0
1813 9 96.30498512610001 0 1.5737644427050004 -1 0 0
1815 2 97.91006821153499 0.9266951514480013 0 -1 0 0
1819 11 99.51515129697 0 1.5737644427050004 -1 0 0
1821 6 101.120234382405 0.9266951514480013 0 -1 0 0
1828 10 1.6050830854349982 2.780085454343002 1.5737644427050004 0 0 0
1834 12 4.815249256305002 2.780085454343002 1.5737644427050004 0 0 0
1840 10 8.025415427174998 2.780085454343002 1.5737644427050004 0 0 0
1846 12 11.235581598045002 2.780085454343002 1.5737644427050004 0 0 0
1852 10 14.445747768914998 2.780085454343002 1.5737644427050004 0 0 0
1858 12 17.655913939784995 2.780085454343002 1.5737644427050004 0 0 0
1864 10 20.866080110655005 2.780085454343002 1.5737644427050004 0 0 0
1870 12 24.076246281525002 2.780085454343002 1.5737644427050004 0 0 0
1876 10 27.286412452395 2.780085454343002 1.5737644427050004 0 0 0
1882 12 30.496578623264995 2.780085454343002 1.5737644427050004 0 0 0
1888 10 33.706744794135005 2.780085454343002 1.5737644427050004 0 0 0
1894 12 36.916910965005 2.780085454343002 1.5737644427050004 0 0 0
1900 10 40.127077135875 2.780085454343002 1.5737644427050004 0 0 0
1906 12 43.337243306744995 2.780085454343002 1.5737644427050004 0 0 0
1912 10 46.547409477615005 2.780085454343002 1.5737644427050004 0 0 0
1918 12 49.757575648485 2.780085454343002 1.5737644427050004 0 0 0
1732 10 52.967741819355 2.780085454343002 1.5737644427050004 -1 0 0
1738 12 56.177907990225 2.780085454343002 1.5737644427050004 -1 0 0
1744 10 59.388074161095 2.780085454343002 1.5737644427050004 -1 0 0
1750 12 62.598240331965 2.780085454343002 1.5737644427050004 -1 0 0
1756 10 65.808406502835 2.780085454343002 1.5737644427050004 -1 0 0
1762 12 69.018572673705 2.780085454343002 1.5737644427050004 -1 0 0
1768 10 72.22873884457499 2.780085454343002 1.5737644427050004 -1 0 0
1774 12 75.438905015445 2.780085454343002 1.5737644427050004 -1 0 0
1780 10 78.649071186315 2.780085454343002 1.5737644427050004 -1 0 0
1786 12 81.859237357185 2.780085454343002 1.5737644427050004 -1 0 0
1792 10 85.069403528055 2.780085454343002 1.5737644427050004 -1 0 0
1798 12 88.279569698925 2.780085454343002 1.5737644427050004 -1 0 0
1804 10 91.489735869795 2.780085454343002 1.5737644427050004 -1 0 0
1810 12 94.699902040665 2.780085454343002 1.5737644427050004 -1 0 0
1816 10 97.91006821153499 2.780085454343002 1.5737644427050004 -1 0 0
1822 12 101.120234382405 2.780085454343002 1.5737644427050004 -1 0 0
1830 4 0 3.706780605790996 0 0 0 0
1836 8 3.2101661708699964 3.706780605790996 0 0 0 0
1842 4 6.42033234174 3.706780605790996 0 0 0 0
1848 8 9.630498512609996 3.706780605790996 0 0 0 0
1854 4 12.84066468348 3.706780605790996 0 0 0 0
1860 8 16.050830854349996 3.706780605790996 0 0 0 0
1866 4 19.260997025219993 3.706780605790996 0 0 0 0
1872 8 22.471163196090004 3.706780605790996 0 0 0 0
1878 4 25.68132936696 3.706780605790996 0 0 0 0
1884 8 28.891495537829996 3.706780605790996 0 0 0 0
1890 4 32.10166170869999 3.706780605790996 0 0 0 0
1896 8 35.311827879570004 3.706780605790996 0 0 0 0
1902 4 38.52199405044 3.706780605790996 0 0 0 0
1908 8 41.73216022131 3.706780605790996 0 0 0 0
1914 4 44.94232639217999 3.706780605790996 0 0 0 0
1920 8 48.152492563050004 3.706780605790996 0 0 0 0
1734 4 51.36265873392 3.706780605790996 0 -1 0 0
1740 8 54.57282490479 3.706780605790996 0 -1 0 0
1746 4 57.78299107566 3.706780605790996 0 -1 0 0
1752 8 60.993157246530004 3.706780605790996 0 -1 0 0
1758 4 64.2033234174 3.706780605790996 0 -1 0 0
1764 8 67.41348958827 3.706780605790996 0 -1 0 0
1770 4 70.62365575914001 3.706780605790996 0 -1 0 0
1776 8 73.83382193001 3.706780605790996 0 -1 0 0
1782 4 77.04398810088 3.706780605790996 0 -1 0 0
1788 8 80.25415427175 3.706780605790996 0 -1 0 0
1794 4 83.46432044262 3.706780605790996 0 -1 0 0
1800 8 86.67448661348999 3.706780605790996 0 -1 0 0
1806 4 89.88465278436 3.706780605790996 0 -1 0 0
1812 8 93.09481895523 3.706780605790996 0 -1 0 0
1818 4 96.30498512610001 3.706780605790996 0 -1 0 0
1824 8 99.51515129697 3.706780605790996 0 -1 0 0
2019 2 1.6050830854349982 6.486866060133998 0 0 0 0
2017 9 0 5.560170908685997 1.5737644427050004 0 0 0
2023 11 3.2101661708699964 5.560170908685997 1.5737644427050004 0 0 0
2025 6 4.815249256305002 6.486866060133998 0 0 0 0
2029 9 6.42033234174 5.560170908685997 1.5737644427050004 0 0 0
2031 2 8.025415427174998 6.486866060133998 0 0 0 0
2035 11 9.630498512609996 5.560170908685997 1.5737644427050004 0 0 0
2037 6 11.235581598045002 6.486866060133998 0 0 0 0
2041 9 12.84066468348 5.560170908685997 1.5737644427050004 0 0 0
2043 2 14.445747768914998 6.486866060133998 0 0 0 0
2047 11 16.050830854349996 5.560170908685997 1.5737644427050004 0 0 0
2049 6 17.655913939784995 6.486866060133998 0 0 0 0
2055 2 20.866080110655005 6.486866060133998 0 0 0 0
2053 9 19.260997025219993 5.560170908685997 1.5737644427050004 0 0 0
2059 11 22.471163196090004 5.560170908685997 1.5737644427050004 0 0 0
2061 6 24.076246281525002 6.486866060133998 0 0 0 0
2065 9 25.68132936696 5.560170908685997 1.5737644427050004 0 0 0
2067 2 27.286412452395 6.486866060133998 0 0 0 0
2071 11 28.891495537829996 5.560170908685997 1.5737644427050004 0 0 0
2073 6 30.496578623264995 6.486866060133998 0 0 0 0
2077 9 32.10166170869999 5.560170908685997 1.5737644427050004 0 0 0
2079 2 33.706744794135005 6.486866060133998 0 0 0 0
2083 11 35.311827879570004 5.560170908685997 1.5737644427050004 0 0 0
2085 6 36.916910965005 6.486866060133998 0 0 0 0
2089 9 38.52199405044 5.560170908685997 1.5737644427050004 0 0 0
2091 2 40.127077135875 6.486866060133998 0 0 0 0
2095 11 41.73216022131 5.560170908685997 1.5737644427050004 0 0 0
2097 6 43.337243306744995 6.486866060133998 0 0 0 0
2101 9 44.94232639217999 5.560170908685997 1.5737644427050004 0 0 0
2103 2 46.547409477615005 6.486866060133998 0 0 0 0
2107 11 48.152492563050004 5.560170908685997 1.5737644427050004 0 0 0
2109 6 49.757575648485 6.486866060133998 0 0 0 0
1921 9 51.36265873392 5.560170908685997 1.5737644427050004 -1 0 0
1923 2 52.967741819355 6.486866060133998 0 -1 0 0
1927 11 54.57282490479 5.560170908685997 1.5737644427050004 -1 0 0
1929 6 56.177907990225 6.486866060133998 0 -1 0 0
1933 9 57.78299107566 5.560170908685997 1.5737644427050004 -1 0 0
1935 2 59.388074161095 6.486866060133998 0 -1 0 0
1941 6 62.598240331965 6.486866060133998 0 -1 0 0
1939 11 60.993157246530004 5.560170908685997 1.5737644427050004 -1 0 0
1945 9 64.2033234174 5.560170908685997 1.5737644427050004 -1 0 0
1947 2 65.808406502835 6.486866060133998 0 -1 0 0
1951 11 67.41348958827 5.560170908685997 1.5737644427050004 -1 0 0
1953 6 69.018572673705 6.486866060133998 0 -1 0 0
1957 9 70.62365575914001 5.560170908685997 1.5737644427050004 -1 0 0
1959 2 72.22873884457499 6.486866060133998 0 -1 0 0
1963 11 73.83382193001 5.560170908685997 1.5737644427050004 -1 0 0
1965 6 75.438905015445 6.486866060133998 0 -1 0 0
1969 9 77.04398810088 5.560170908685997 1.5737644427050004 -1 0 0
1971 2 78.649071186315 6.486866060133998 0 -1 0 0
1975 11 80.25415427175 5.560170908685997 1.5737644427050004 -1 0 0
1977 6 81.859237357185 6.486866060133998 0 -1 0 0
1981 9 83.46432044262 5.560170908685997 1.5737644427050004 -1 0 0
1983 2 85.069403528055 6.486866060133998 0 -1 0 0
1987 11 86.67448661348999 5.560170908685997 1.5737644427050004 -1 0 0
1989 6 88.279569698925 6.486866060133998 0 -1 0 0
1993 9 89.88465278436 5.560170908685997 1.5737644427050004 -1 0 0
1995 2 91.489735869795 6.486866060133998 0 -1 0 0
1999 11 93.09481895523 5.560170908685997 1.5737644427050004 -1 0 0
2001 6 94.699902040665 6.486866060133998 0 -1 0 0
2005 9 96.30498512610001 5.560170908685997 1.5737644427050004 -1 0 0
2007 2 97.91006821153499 6.486866060133998 0 -1 0 0
2011 11 99.51515129697 5.560170908685997 1.5737644427050004 -1 0 0
2013 6 101.120234382405 6.486866060133998 0 -1 0 0
2020 10 1.6050830854349982 8.340256363028999 1.5737644427050004 0 0 0
2026 12 4.815249256305002 8.340256363028999 1.5737644427050004 0 0 0
2032 10 8.025415427174998 8.340256363028999 1.5737644427050004 0 0 0
2038 12 11.235581598045002 8.340256363028999 1.5737644427050004 0 0 0
2044 10 14.445747768914998 8.340256363028999 1.5737644427050004 0 0 0
2050 12 17.655913939784995 8.340256363028999 1.5737644427050004 0 0 0
2056 10 20.866080110655005 8.340256363028999 1.5737644427050004 0 0 0
2062 12 24.076246281525002 8.340256363028999 1.5737644427050004 0 0 0
2068 10 27.286412452395 8.340256363028999 1.5737644427050004 0 0 0
2074 12 30.496578623264995 8.340256363028999 1.5737644427050004 0 0 0
2080 10 33.706744794135005 8.340256363028999 1.5737644427050004 0 0 0
2086 12 36.916910965005 8.340256363028999 1.5737644427050004 0 0 0
2092 10 40.127077135875 8.340256363028999 1.5737644427050004 0 0 0
2098 12 43.337243306744995 8.340256363028999 1.5737644427050004 0 0 0
2104 10 46.547409477615005 8.340256363028999 1.5737644427050004 0 0 0
2110 12 49.757575648485 8.340256363028999 1.5737644427050004 0 0 0
1924 10 52.967741819355 8.340256363028999 1.5737644427050004 -1 0 0
1930 12 56.177907990225 8.340256363028999 1.5737644427050004 -1 0 0
1936 10 59.388074161095 8.340256363028999 1.5737644427050004 -1 0 0
1942 12 62.598240331965 8.340256363028999 1.5737644427050004 -1 0 0
1948 10 65.808406502835 8.340256363028999 1.5737644427050004 -1 0 0
1954 12 69.018572673705 8.340256363028999 1.5737644427050004 -1 0 0
1960 10 72.22873884457499 8.340256363028999 1.5737644427050004 -1 0 0
1966 12 75.438905015445 8.340256363028999 1.5737644427050004 -1 0 0
1972 10 78.649071186315 8.340256363028999 1.5737644427050004 -1 0 0
1978 12 81.859237357185 8.340256363028999 1.5737644427050004 -1 0 0
1984 10 85.069403528055 8.340256363028999 1.5737644427050004 -1 0 0
1990 12 88.279569698925 8.340256363028999 1.5737644427050004 -1 0 0
1996 10 91.489735869795 8.340256363028999 1.5737644427050004 -1 0 0
2002 12 94.699902040665 8.340256363028999 1.5737644427050004 -1 0 0
2008 10 97.91006821153499 8.340256363028999 1.5737644427050004 -1 0 0
2014 12 101.120234382405 8.340256363028999 1.5737644427050004 -1 0 0
2022 4 0 9.266951514477 0 0 0 0
2028 8 3.2101661708699964 9.266951514477 0 0 0 0
2034 4 6.42033234174 9.266951514477 0 0 0 0
2040 8 9.630498512609996 9.266951514477 0 0 0 0
2046 4 12.84066468348 9.266951514477 0 0 0 0
2052 8 16.050830854349996 9.266951514477 0 0 0 0
2058 4 19.260997025219993 9.266951514477 0 0 0 0
2064 8 22.471163196090004 9.266951514477 0 0 0 0
2070 4 25.68132936696 9.266951514477 0 0 0 0
2076 8 28.891495537829996 9.266951514477 0 0 0 0
2082 4 32.10166170869999 9.266951514477 0 0 0 0
2088 8 35.311827879570004 9.266951514477 0 0 0 0
2094 4 38.52199405044 9.266951514477 0 0 0 0
2100 8 41.73216022131 9.266951514477 0 0 0 0
2106 4 44.94232639217999 9.266951514477 0 0 0 0
2112 8 48.152492563050004 9.266951514477 0 0 0 0
1926 4 51.36265873392 9.266951514477 0 -1 0 0
1932 8 54.57282490479 9.266951514477 0 -1 0 0
1938 4 57.78299107566 9.266951514477 0 -1 0 0
1944 8 60.993157246530004 9.266951514477 0 -1 0 0
1950 4 64.2033234174 9.266951514477 0 -1 0 0
1956 8 67.41348958827 9.266951514477 0 -1 0 0
1962 4 70.62365575914001 9.266951514477 0 -1 0 0
1968 8 73.83382193001 9.266951514477 0 -1 0 0
1974 4 77.04398810088 9.266951514477 0 -1 0 0
1980 8 80.25415427175 9.266951514477 0 -1 0 0
1986 4 83.46432044262 9.266951514477 0 -1 0 0
1992 8 86.67448661348999 9.266951514477 0 -1 0 0
1998 4 89.88465278436 9.266951514477 0 -1 0 0
2004 8 93.09481895523 9.266951514477 0 -1 0 0
2010 4 96.30498512610001 9.266951514477 0 -1 0 0
2016 8 99.51515129697 9.266951514477 0 -1 0 0
2211 2 1.6050830854349982 12.047036968820002 0 0 0 0
2209 9 0 11.120341817372001 1.5737644427050004 0 0 0
2215 11 3.2101661708699964 11.120341817372001 1.5737644427050004 0 0 0
2217 6 4.815249256305002 12.047036968820002 0 0 0 0
2221 9 6.42033234174 11.120341817372001 1.5737644427050004 0 0 0
2223 2 8.025415427174998 12.047036968820002 0 0 0 0
2227 11 9.630498512609996 11.120341817372001 1.5737644427050004 0 0 0
2229 6 11.235581598045002 12.047036968820002 0 0 0 0
2233 9 12.84066468348 11.120341817372001 1.5737644427050004 0 0 0
2235 2 14.445747768914998 12.047036968820002 0 0 0 0
2239 11 16.050830854349996 11.120341817372001 1.5737644427050004 0 0 0
2241 6 17.655913939784995 12.047036968820002 0 0 0 0
2247 2 20.866080110655005 12.047036968820002 0 0 0 0
2245 9 19.260997025219993 11.120341817372001 1.5737644427050004 0 0 0
2251 11 22.471163196090004 11.120341817372001 1.5737644427050004 0 0 0
2253 6 24.076246281525002 12.047036968820002 0 0 0 0
2257 9 25.68132936696 11.120341817372001 1.5737644427050004 0 0 0
2259 2 27.286412452395 12.047036968820002 0 0 0 0
2263 11 28.891495537829996 11.120341817372001 1.5737644427050004 0 0 0
2265 6 30.496578623264995 12.047036968820002 0 0 0 0
2269 9 32.10166170869999 11.120341817372001 1.5737644427050004 0 0 0
2271 2 33.706744794135005 12.047036968820002 0 0 0 0
2275 11 35.311827879570004 11.120341817372001 1.5737644427050004 0 0 0
2277 6 36.916910965005 12.047036968820002 0 0 0 0
2281 9 38.52199405044 11.120341817372001 1.5737644427050004 0 0 0
2283 2 40.127077135875 12.047036968820002 0 0 0 0
2287 11 41.73216022131 11.120341817372001 1.5737644427050004 0 0 0
2289 6 43.337243306744995 12.047036968820002 0 0 0 0
2293 9 44.94232639217999 11.120341817372001 1.5737644427050004 0 0 0
2295 2 46.547409477615005 12.047036968820002 0 0 0 0
2299 11 48.152492563050004 11.120341817372001 1.5737644427050004 0 0 0
2301 6 49.757575648485 12.047036968820002 0 0 0 0
2113 9 51.36265873392 11.120341817372001 1.5737644427050004 -1 0 0
2115 2 52.967741819355 12.047036968820002 0 -1 0 0
2119 11 54.57282490479 11.120341817372001 1.5737644427050004 -1 0 0
2121 6 56.177907990225 12.047036968820002 0 -1 0 0
2125 9 57.78299107566 11.120341817372001 1.5737644427050004 -1 0 0
2127 2 59.388074161095 12.047036968820002 0 -1 0 0
2133 6 62.598240331965 12.047036968820002 0 -1 0 0
2131 11 60.993157246530004 11.120341817372001 1.5737644427050004 -1 0 0
2137 9 64.2033234174 11.120341817372001 1.5737644427050004 -1 0 0
2139 2 65.808406502835 12.047036968820002 0 -1 0 0
2143 11 67.41348958827 11.120341817372001 1.5737644427050004 -1 0 0
2145 6 69.018572673705 12.047036968820002 0 -1 0 0
2149 9 70.62365575914001 11.120341817372001 1.5737644427050004 -1 0 0
2151 2 72.22873884457499 12.047036968820002 0 -1 0 0
2155 11 73.83382193001 11.120341817372001 1.5737644427050004 -1 0 0
2157 6 75.438905015445 12.047036968820002 0 -1 0 0
2161 9 77.04398810088 11.120341817372001 1.5737644427050004 -1 0 0
2163 2 78.649071186315 12.047036968820002 0 -1 0 0
2167 11 80.25415427175 11.120341817372001 1.5737644427050004 -1 0 0
2169 6 81.859237357185 12.047036968820002 0 -1 0 0
2173 9 83.46432044262 11.120341817372001 1.5737644427050004 -1 0 0
2175 2 85.069403528055 12.047036968820002 0 -1 0 0
2179 11 86.67448661348999 11.120341817372001 1.5737644427050004 -1 0 0
2181 6 88.279569698925 12.047036968820002 0 -1 0 0
2185 9 89.88465278436 11.120341817372001 1.5737644427050004 -1 0 0
2187 2 91.489735869795 12.047036968820002 0 -1 0 0
2191 11 93.09481895523 11.120341817372001 1.5737644427050004 -1 0 0
2193 6 94.699902040665 12.047036968820002 0 -1 0 0
2197 9 96.30498512610001 11.120341817372001 1.5737644427050004 -1 0 0
2199 2 97.91006821153499 12.047036968820002 0 -1 0 0
2203 11 99.51515129697 11.120341817372001 1.5737644427050004 -1 0 0
2205 6 101.120234382405 12.047036968820002 0 -1 0 0
2212 10 1.6050830854349982 13.900427271714996 1.5737644427050004 0 0 0
2218 12 4.815249256305002 13.900427271714996 1.5737644427050004 0 0 0
2224 10 8.025415427174998 13.900427271714996 1.5737644427050004 0 0 0
2230 12 11.235581598045002 13.900427271714996 1.5737644427050004 0 0 0
2236 10 14.445747768914998 13.900427271714996 1.5737644427050004 0 0 0
2242 12 17.655913939784995 13.900427271714996 1.5737644427050004 0 0 0
2248 10 20.866080110655005 13.900427271714996 1.5737644427050004 0 0 0
2254 12 24.076246281525002 13.900427271714996 1.5737644427050004 0 0 0
2260 10 27.286412452395 13.900427271714996 1.5737644427050004 0 0 0
2266 12 30.496578623264995 13.900427271714996 1.5737644427050004 0 0 0
2272 10 33.706744794135005 13.900427271714996 1.5737644427050004 0 0 0
2278 12 36.916910965005 13.900427271714996 1.5737644427050004 0 0 0
2284 10 40.127077135875 13.900427271714996 1.5737644427050004 0 0 0
2290 12 43.337243306744995 13.900427271714996 1.5737644427050004 0 0 0
2296 10 46.547409477615005 13.900427271714996 1.5737644427050004 0 0 0
2302 12 49.757575648485 13.900427271714996 1.5737644427050004 0 0 0
2116 10 52.967741819355 13.900427271714996 1.5737644427050004 -1 0 0
2122 12 56.177907990225 13.900427271714996 1.5737644427050004 -1 0 0
2128 10 59.388074161095 13.900427271714996 1.5737644427050004 -1 0 0
2134 12 62.598240331965 13.900427271714996 1.5737644427050004 -1 0 0
2140 10 65.808406502835 13.900427271714996 1.5737644427050004 -1 0 0
2146 12 69.018572673705 13.900427271714996 1.5737644427050004 -1 0 0
2152 10 72.22873884457499 13.900427271714996 1.5737644427050004 -1 0 0
2158 12 75.438905015445 13.900427271714996 1.5737644427050004 -1 0 0
2164 10 78.649071186315 13.900427271714996 1.5737644427050004 -1 0 0
2170 12 81.859237357185 13.900427271714996 1.5737644427050004 -1 0 0
2176 10 85.069403528055 13.900427271714996 1.5737644427050004 -1 0 0
2182 12 88.279569698925 13.900427271714996 1.5737644427050004 -1 0 0
2188 10 91.489735869795 13.900427271714996 1.5737644427050004 -1 0 0
2194 12 94.699902040665 13.900427271714996 1.5737644427050004 -1 0 0
2200 10 97.91006821153499 13.900427271714996 1.5737644427050004 -1 0 0
2206 12 101.120234382405 13.900427271714996 1.5737644427050004 -1 0 0
2214 4 0 14.827122423162997 0 0 0 0
2220 8 3.2101661708699964 14.827122423162997 0 0 0 0
2226 4 6.42033234174 14.827122423162997 0 0 0 0
2232 8 9.630498512609996 14.827122423162997 0 0 0 0
2238 4 12.84066468348 14.827122423162997 0 0 0 0
2244 8 16.050830854349996 14.827122423162997 0 0 0 0
2250 4 19.260997025219993 14.827122423162997 0 0 0 0
2256 8 22.471163196090004 14.827122423162997 0 0 0 0
2262 4 25.68132936696 14.827122423162997 0 0 0 0
2268 8 28.891495537829996 14.827122423162997 0 0 0 0
2274 4 32.10166170869999 14.827122423162997 0 0 0 0
2280 8 35.311827879570004 14.827122423162997 0 0 0 0
2286 4 38.52199405044 14.827122423162997 0 0 0 0
2292 8 41.73216022131 14.827122423162997 0 0 0 0
2298 4 44.94232639217999 14.827122423162997 0 0 0 0
2304 8 48.152492563050004 14.827122423162997 0 0 0 0
2118 4 51.36265873392 14.827122423162997 0 -1 0 0
2124 8 54.57282490479 14.827122423162997 0 -1 0 0
2130 4 57.78299107566 14.827122423162997 0 -1 0 0
2136 8 60.993157246530004 14.827122423162997 0 -1 0 0
2142 4 64.2033234174 14.827122423162997 0 -1 0 0
2148 8 67.41348958827 14.827122423162997 0 -1 0 0
2154 4 70.62365575914001 14.827122423162997 0 -1 0 0
2160 8 73.83382193001 14.827122423162997 0 -1 0 0
2166 4 77.04398810088 14.827122423162997 0 -1 0 0
2172 8 80.25415427175 14.827122423162997 0 -1 0 0
2178 4 83.46432044262 14.827122423162997 0 -1 0 0
2184 8 86.67448661348999 14.827122423162997 0 -1 0 0
2190 4 89.88465278436 14.827122423162997 0 -1 0 0
2196 8 93.09481895523 14.827122423162997 0 -1 0 0
2202 4 96.30498512610001 14.827122423162997 0 -1 0 0
2208 8 99.51515129697 14.827122423162997 0 -1 0 0
2401 9 0 16.680512726058005 1.5737644427050004 0 0 0
2407 11 3.2101661708699964 16.680512726058005 1.5737644427050004 0 0 0
2413 9 6.42033234174 16.680512726058005 1.5737644427050004 0 0 0
2419 11 9.630498512609996 16.680512726058005 1.5737644427050004 0 0 0
2425 9 12.84066468348 16.680512726058005 1.5737644427050004 0 0 0
2431 11 16.050830854349996 16.680512726058005 1.5737644427050004 0 0 0
2437 9 19.260997025219993 16.680512726058005 1.5737644427050004 0 0 0
2443 11 22.471163196090004 16.680512726058005 1.5737644427050004 0 0 0
2449 9 25.68132936696 16.680512726058005 1.5737644427050004 0 0 0
2455 11 28.891495537829996 16.680512726058005 1.5737644427050004 0 0 0
2461 9 32.10166170869999 16.680512726058005 1.5737644427050004 0 0 0
2467 11 35.311827879570004 16.680512726058005 1.5737644427050004 0 0 0
2473 9 38.52199405044 16.680512726058005 1.5737644427050004 0 0 0
2479 11 41.73216022131 16.680512726058005 1.5737644427050004 0 0 0
2485 9 44.94232639217999 16.680512726058005 1.5737644427050004 0 0 0
2491 11 48.152492563050004 16.680512726058005 1.5737644427050004 0 0 0
2305 9 51.36265873392 16.680512726058005 1.5737644427050004 -1 0 0
2311 11 54.57282490479 16.680512726058005 1.5737644427050004 -1 0 0
2317 9 57.78299107566 16.680512726058005 1.5737644427050004 -1 0 0
2323 11 60.993157246530004 16.680512726058005 1.5737644427050004 -1 0 0
2329 9 64.2033234174 16.680512726058005 1.5737644427050004 -1 0 0
2335 11 67.41348958827 16.680512726058005 1.5737644427050004 -1 0 0
2341 9 70.62365575914001 16.680512726058005 1.5737644427050004 -1 0 0
2347 11 73.83382193001 16.680512726058005 1.5737644427050004 -1 0 0
2353 9 77.04398810088 16.680512726058005 1.5737644427050004 -1 0 0
2359 11 80.25415427175 16.680512726058005 1.5737644427050004 -1 0 0
2365 9 83.46432044262 16.680512726058005 1.5737644427050004 -1 0 0
2371 11 86.67448661348999 16.680512726058005 1.5737644427050004 -1 0 0
2377 9 89.88465278436 16.680512726058005 1.5737644427050004 -1 0 0
2383 11 93.09481895523 16.680512726058005 1.5737644427050004 -1 0 0
2389 9 96.30498512610001 16.680512726058005 1.5737644427050004 -1 0 0
2395 11 99.51515129697 16.680512726058005 1.5737644427050004 -1 0 0
2403 2 1.6050830854349982 17.607207877505992 0 0 0 0
2409 6 4.815249256305002 17.607207877505992 0 0 0 0
2415 2 8.025415427174998 17.607207877505992 0 0 0 0
2421 6 11.235581598045002 17.607207877505992 0 0 0 0
2427 2 14.445747768914998 17.607207877505992 0 0 0 0
2433 6 17.655913939784995 17.607207877505992 0 0 0 0
2439 2 20.866080110655005 17.607207877505992 0 0 0 0
2445 6 24.076246281525002 17.607207877505992 0 0 0 0
2451 2 27.286412452395 17.607207877505992 0 0 0 0
2457 6 30.496578623264995 17.607207877505992 0 0 0 0
2463 2 33.706744794135005 17.607207877505992 0 0 0 0
2469 6 36.916910965005 17.607207877505992 0 0 0 0
2475 2 40.127077135875 17.607207877505992 0 0 0 0
2481 6 43.337243306744995 17.607207877505992 0 0 0 0
2487 2 46.547409477615005 17.607207877505992 0 0 0 0
2493 6 49.757575648485 17.607207877505992 0 0 0 0
2307 2 52.967741819355 17.607207877505992 0 -1 0 0
2313 6 56.177907990225 17.607207877505992 0 -1 0 0
2319 2 59.388074161095 17.607207877505992 0 -1 0 0
2325 6 62.598240331965 17.607207877505992 0 -1 0 0
2331 2 65.808406502835 17.607207877505992 0 -1 0 0
2337 6 69.018572673705 17.607207877505992 0 -1 0 0
2343 2 72.22873884457499 17.607207877505992 0 -1 0 0
2349 6 75.438905015445 17.607207877505992 0 -1 0 0
2355 2 78.649071186315 17.607207877505992 0 -1 0 0
2361 6 81.859237357185 17.607207877505992 0 -1 0 0
2367 2 85.069403528055 17.607207877505992 0 -1 0 0
2373 6 88.279569698925 17.607207877505992 0 -1 0 0
2379 2 91.489735869795 17.607207877505992 0 -1 0 0
2385 6 94.699902040665 17.607207877505992 0 -1 0 0
2391 2 97.91006821153499 17.607207877505992 0 -1 0 0
2397 6 101.120234382405 17.607207877505992 0 -1 0 0
2406 4 0 20.387293331849 0 0 0 0
2404 10 1.6050830854349982 19.460598180401 1.5737644427050004 0 0 0
2412 8 3.2101661708699964 20.387293331849 0 0 0 0
2410 12 4.815249256305002 19.460598180401 1.5737644427050004 0 0 0
2418 4 6.42033234174 20.387293331849 0 0 0 0
2416 10 8.025415427174998 19.460598180401 1.5737644427050004 0 0 0
2424 8 9.630498512609996 20.387293331849 0 0 0 0
2422 12 11.235581598045002 19.460598180401 1.5737644427050004 0 0 0
2430 4 12.84066468348 20.387293331849 0 0 0 0
2428 10 14.445747768914998 19.460598180401 1.5737644427050004 0 0 0
2436 8 16.050830854349996 20.387293331849 0 0 0 0
2434 12 17.655913939784995 19.460598180401 1.5737644427050004 0 0 0
2442 4 19.260997025219993 20.387293331849 0 0 0 0
2440 10 20.866080110655005 19.460598180401 1.5737644427050004 0 0 0
2448 8 22.471163196090004 20.387293331849 0 0 0 0
2446 12 24.076246281525002 19.460598180401 1.5737644427050004 0 0 0
2454 4 25.68132936696 20.387293331849 0 0 0 0
2452 10 27.286412452395 19.460598180401 1.5737644427050004 0 0 0
2460 8 28.891495537829996 20.387293331849 0 0 0 0
2458 12 30.496578623264995 19.460598180401 1.5737644427050004 0 0 0
2466 4 32.10166170869999 20.387293331849 0 0 0 0
2464 10 33.706744794135005 19.460598180401 1.5737644427050004 0 0 0
2472 8 35.311827879570004 20.387293331849 0 0 0 0
2470 12 36.916910965005 19.460598180401 1.5737644427050004 0 0 0
2478 4 38.52199405044 20.387293331849 0 0 0 0
2484 8 41.73216022131 20.387293331849 0 0 0 0
2476 10 40.127077135875 19.460598180401 1.5737644427050004 0 0 0
2482 12 43.337243306744995 19.460598180401 1.5737644427050004 0 0 0
2490 4 44.94232639217999 20.387293331849 0 0 0 0
2488 10 46.547409477615005 19.460598180401 1.5737644427050004 0 0 0
2496 8 48.152492563050004 20.387293331849 0 0 0 0
2494 12 49.757575648485 19.460598180401 1.5737644427050004 0 0 0
2310 4 51.36265873392 20.387293331849 0 -1 0 0
2308 10 52.967741819355 19.460598180401 1.5737644427050004 -1 0 0
2316 8 54.57282490479 20.387293331849 0 -1 0 0
2314 12 56.177907990225 19.460598180401 1.5737644427050004 -1 0 0
2322 4 57.78299107566 20.387293331849 0 -1 0 0
2320 10 59.388074161095 19.460598180401 1.5737644427050004 -1 0 0
2328 8 60.993157246530004 20.387293331849 0 -1 0 0
2326 12 62.598240331965 19.460598180401 1.5737644427050004 -1 0 0
2334 4 64.2033234174 20.387293331849 0 -1 0 0
2332 10 65.808406502835 19.460598180401 1.5737644427050004 -1 0 0
2340 8 67.41348958827 20.387293331849 0 -1 0 0
2338 12 69.018572673705 19.460598180401 1.5737644427050004 -1 0 0
2346 4 70.62365575914001 20.387293331849 0 -1 0 0
2344 10 72.22873884457499 19.460598180401 1.5737644427050004 -1 0 0
2352 8 73.83382193001 20.387293331849 0 -1 0 0
2350 12 75.438905015445 19.460598180401 1.5737644427050004 -1 0 0
2358 4 77.04398810088 20.387293331849 0 -1 0 0
2356 10 78.649071186315 19.460598180401 1.5737644427050004 -1 0 0
2364 8 80.25415427175 20.387293331849 0 -1 0 0
2370 4 83.46432044262 20.387293331849 0 -1 0 0
2362 12 81.859237357185 19.460598180401 1.5737644427050004 -1 0 0
2368 10 85.069403528055 19.460598180401 1.5737644427050004 -1 0 0
2376 8 86.67448661348999 20.387293331849 0 -1 0 0
2374 12 88.279569698925 19.460598180401 1.5737644427050004 -1 0 0
2382 4 89.88465278436 20.387293331849 0 -1 0 0
2380 10 91.489735869795 19.460598180401 1.5737644427050004 -1 0 0
2388 8 93.09481895523 20.387293331849 0 -1 0 0
2386 12 94.699902040665 19.460598180401 1.5737644427050004 -1 0 0
2394 4 96.30498512610001 20.387293331849 0 -1 0 0