LAMMPS data file via write_data, version 29 Aug 2024, timestep = 184, units = metal

10368 atoms
36 atom types

0 102.72531746784 xlo xhi
0 100.083076356348 ylo yhi
-50 50 zlo zhi

Masses

1 51.9961
2 51.9961
3 51.9961
4 51.9961
5 51.9961
6 51.9961
7 51.9961
8 51.9961
9 51.9961
10 51.9961
11 51.9961
12 51.9961
13 78.971
14 78.971
15 78.971
16 78.971
17 78.971
18 78.971
19 78.971
20 78.971
21 78.971
22 78.971
23 78.971
24 78.971
25 78.971
26 78.971
27 78.971
28 78.971
29 78.971
30 78.971
31 78.971
32 78.971
33 78.971
34 78.971
35 78.971
36 78.971

Atoms # atomic

1831 19 3.354176588049019 0.12020126954600535 2.1817662674057288 0 0 0
1833 14 3.4018977630478187 1.002633148156986 1.7762065779322034 0 0 0
1828 18 1.821576493496459 4.007558861042963 2.3286998236668968 0 0 0
1830 4 0.9711158540131289 2.7154053846949537 0.5245717724670583 0 0 0
1836 16 4.20142473663777 3.534236860947511 1.7081628926600598 0 0 0
2023 19 3.3541765880441896 5.680372178223952 2.181766267398498 0 0 0
2019 2 4.18733856329666 5.188999060883607 -0.006050004920890184 0 0 0
1826 1 1.3117928290172138 0.2736925365078716 0.8997685673367863 0 0 0
1832 13 4.706791957224621 0.6806808963378493 2.757556952699934 0 0 0
1835 15 1.928015173459259 4.002908841631947 2.283898787859123 0 0 0
2018 1 1.311792829024437 5.833863445192264 0.8997685673071644 0 0 0
1834 20 5.968713382999064 1.8948539739935146 2.250527180371332 0 0 0
1843 19 9.774508929722895 0.12020126948325717 2.1817662674490625 0 0 0
1845 14 9.822230104814182 1.0026331481832809 1.7762065778722773 0 0 0
1840 18 8.241908835238696 4.007558861059828 2.3286998236664 0 0 0
1842 4 7.3914481957675235 2.715405384712885 0.5245717724597483 0 0 0
1848 16 10.621757078340028 3.53423686093614 1.7081628927488026 0 0 0
2029 17 5.807016315273758 4.485931795480739 0.4955697263648107 0 0 0
2035 19 9.774508929763057 5.68037217820081 2.181766267419845 0 0 0
2031 2 10.607670905022692 5.188999060815033 -0.006050004886623955 0 0 0
1838 1 7.732125170758149 0.2736925365552474 0.899768567315621 0 0 0
1844 13 11.127124299085047 0.6806808964096968 2.757556952661232 0 0 0
1841 3 5.9272049992884375 4.198158929947639 2.848936180024985 0 0 0
1847 15 8.34834751520449 4.0029088416493845 2.2838987878573938 0 0 0
2030 1 7.732125170762035 5.833863445211965 0.8997685673115599 0 0 0
1846 20 12.389045724753736 1.8948539740066668 2.2505271803615106 0 0 0
1855 19 16.194841271540252 0.1202012695597508 2.181766267379719 0 0 0
1852 18 14.662241176981851 4.007558861084128 2.3286998236634884 0 0 0
1854 4 13.811780537524337 2.7154053847319815 0.5245717724546243 0 0 0
1860 16 17.042089420032852 3.5342368609276793 1.7081628928465624 0 0 0
2041 17 12.227348657023304 4.48593179549338 0.4955697263513322 0 0 0
2047 19 16.19484127148072 5.680372178176271 2.1817662674386757 0 0 0
1857 14 16.242562446529583 1.00263314815315 1.77620657792745 0 0 0
2043 2 17.028003246754285 5.188999060741695 -0.006050004850547757 0 0 0
1850 1 14.152457512514324 0.27369253649359127 0.8997685673035631 0 0 0
1853 3 12.347537341028895 4.198158929961519 2.8489361800124593 0 0 0
1859 15 14.768679856952561 4.0029088416739524 2.2838987878527797 0 0 0
2042 1 14.15245751250306 5.833863445233777 0.8997685673065164 0 0 0
1867 19 22.615173613248643 0.12020126953253205 2.181766267412659 0 0 0
1858 20 18.809378066475553 1.8948539740019947 2.2505271803766163 0 0 0
1864 18 21.082573518715467 4.007558861068928 2.3286998236668905 0 0 0
1866 4 20.232112879252902 2.7154053847083532 0.524571772466162 0 0 0
2053 17 18.64768099876054 4.4859317954775015 0.4955697263494417 0 0 0
2059 19 22.61517361324611 5.680372178198555 2.1817662674141998 0 0 0
1869 14 22.66289478827857 1.002633148159092 1.7762065779214813 0 0 0
1856 13 17.547456640682896 0.6806808963052849 2.757556952715142 0 0 0
1862 1 20.57278985424195 0.27369253651989267 0.8997685673301156 0 0 0
1865 3 18.767869682762967 4.19815892996129 2.8489361800126627 0 0 0
1871 15 21.189012198686314 4.00290884165804 2.2838987878560277 0 0 0
2054 1 20.572789854247542 5.833863445210633 0.8997685672957637 0 0 0
1872 16 23.462421761817065 3.5342368609398247 1.708162892752937 0 0 0
1870 20 25.229710408233107 1.8948539740075836 2.2505271803644447 0 0 0
1876 18 27.50290586046331 4.007558861084155 2.328699823660748 0 0 0
1878 4 26.652445221002488 2.7154053847295856 0.5245717724550003 0 0 0
2065 17 25.06801334050138 4.485931795490932 0.495569726352258 0 0 0
2055 2 23.448335588512954 5.188999060811992 -0.0060500048888037245 0 0 0
1868 13 23.967788982482137 0.680680896338328 2.757556952694838 0 0 0
1874 1 26.993122195989194 0.27369253648688757 0.8997685673223619 0 0 0
1877 3 25.188202024511543 4.198158929963243 2.848936180013805 0 0 0
1883 15 27.609344540433252 4.002908841673879 2.2838987878502497 0 0 0
2066 1 26.99312219598263 5.83386344523156 0.8997685673019147 0 0 0
1879 19 29.03550595502945 0.12020126956951742 2.181766267377751 0 0 0
1881 14 29.083227130004754 1.00263314814555 1.776206577945839 0 0 0
1882 20 31.650042749969526 1.8948539740142267 2.250527180370799 0 0 0
1888 18 33.92323820220139 4.007558861090095 2.3286998236604033 0 0 0
1884 16 29.88275410351366 3.534236860931024 1.7081628928469637 0 0 0
1890 4 33.07277756274326 2.7154053847263646 0.5245717724601123 0 0 0
2071 19 29.03550595496246 5.680372178175629 2.1817662674370477 0 0 0
2077 17 31.488345682243335 4.485931795488992 0.49556972634487606 0 0 0
2067 2 29.86866793023609 5.18899906074238 -0.006050004852766199 0 0 0
1880 13 30.38812132415476 0.6806808962920564 2.757556952717362 0 0 0
1886 1 33.41345453772188 0.27369253651447417 0.899768567332656 0 0 0
1889 3 31.60853436624871 4.198158929973554 2.848936180008367 0 0 0
1895 15 34.029676882174826 4.0029088416793845 2.283898787848468 0 0 0
2078 1 33.413454537724625 5.833863445230488 0.8997685672911915 0 0 0
1891 19 35.45583829673878 0.12020126953994151 2.181766267405494 0 0 0
1893 14 35.50355947175591 1.0026331481575725 1.7762065779264369 0 0 0
1894 20 38.07037509171341 1.8948539740156498 2.2505271803677758 0 0 0
1896 16 36.30308644524901 3.5342368609321455 1.7081628928551815 0 0 0
1902 4 39.49310990448726 2.7154053847298467 0.5245717724583225 0 0 0
2083 19 35.455838296702595 5.680372178173052 2.181766267434444 0 0 0
2089 17 37.90867802398561 4.485931795490788 0.49556972634281365 0 0 0
2079 2 36.289000271981095 5.188999060735327 -0.006050004852366684 0 0 0
1892 13 36.808453665952904 0.680680896332328 2.757556952695802 0 0 0
1901 3 38.028866707990105 4.1981589299744355 2.8489361800062927 0 0 0
1898 1 39.83378687946751 0.273692536485463 0.8997685673163512 0 0 0
2090 1 39.83378687946483 5.833863445234259 0.8997685672907667 0 0 0
1903 19 41.87617063850779 0.12020126956855556 2.181766267374526 0 0 0
1905 14 41.923891813482 1.0026331481500528 1.776206577936785 0 0 0
1900 18 40.3435705439431 4.007558861093803 2.3286998236594783 0 0 0
1906 20 44.49070743343535 1.8948539740044001 2.250527180377896 0 0 0
1908 16 42.72341878698031 3.534236860931232 1.7081628928692834 0 0 0
2095 19 41.87617063843701 5.680372178171083 2.1817662674364127 0 0 0
2101 17 44.32901036572154 4.4859317954769455 0.4955697263467864 0 0 0
2091 2 42.70933261371928 5.188999060725659 -0.0060500048465363014 0 0 0
1904 13 43.228786007635065 0.6806808962937894 2.7575569527163175 0 0 0
1907 15 40.45000922391667 4.002908841683331 2.2838987878475567 0 0 0
1913 3 44.449199049722424 4.19815892996467 2.8489361800106647 0 0 0
1914 4 45.91344224621435 2.715405384707834 0.5245717724674913 0 0 0
1915 19 48.29650298023424 0.1202012695482626 2.1817662673984994 0 0 0
1917 14 48.344224155229284 1.0026331481548842 1.7762065779291758 0 0 0
1912 18 46.763902885675265 4.007558861071596 2.3286998236665664 0 0 0
1918 20 50.91103977518751 1.8948539740026238 2.250527180369459 0 0 0
1920 16 49.14375112877315 3.534236860940018 1.7081628927578478 0 0 0
2107 19 48.29650298020342 5.680372178199251 2.1817662674135065 0 0 0
1921 17 50.749342707461274 4.485931795487231 0.4955697263539286 -1 0 0
2103 2 49.12966495547486 5.188999060809327 -0.006050004886688643 0 0 0
1910 1 46.25411922120196 0.2736925365033114 0.8997685673279714 0 0 0
1916 13 49.64911834939582 0.6806808963340361 2.757556952702838 0 0 0
1919 15 46.87034156564727 4.002908841660629 2.283898787855281 0 0 0
1733 3 50.869531391467234 4.198158929958608 2.8489361800153907 -1 0 0
2102 1 46.254119221208 5.833863445210944 0.8997685672921479 0 0 0
1735 19 54.716835321891836 0.12020126947004611 2.1817662674630474 -1 0 0
1737 14 54.76455649699948 1.0026331481900042 1.776206577863959 -1 0 0
1732 18 53.18423522741977 4.007558861075525 2.328699823666088 -1 0 0
1734 4 52.33377458795848 2.715405384722198 0.52457177245988 -1 0 0
1740 16 55.564083470489805 3.5342368609302417 1.7081628928119619 -1 0 0
1927 19 54.716835321926816 5.6803721781869285 2.1817662674304796 -1 0 0
1923 2 55.549997297200434 5.188999060768187 -0.006050004862307356 -1 0 0
1730 1 52.674451562937605 0.273692536568015 0.8997685673159783 -1 0 0
1736 13 56.06945069127549 0.6806808964280047 2.7575569526594226 -1 0 0
1739 15 53.2906739073897 4.002908841665065 2.283898787855596 -1 0 0
1922 1 52.674451562944334 5.8338634452234155 0.8997685673053014 -1 0 0
1738 20 57.33137211690885 1.894853973996251 2.250527180371831 -1 0 0
1749 14 61.18488883870794 1.0026331481618878 1.7762065779155436 -1 0 0
1747 19 61.13716766370467 0.12020126955392664 2.181766267381541 -1 0 0
1744 18 59.604567569152614 4.007558861056197 2.3286998236660468 -1 0 0
1746 4 58.7541069296847 2.715405384705037 0.524571772461513 -1 0 0
1752 16 61.98441581227443 3.5342368609405432 1.7081628927050159 -1 0 0
1933 17 57.16967504919861 4.485931795479803 0.4955697263510663 -1 0 0
1939 19 61.13716766368953 5.680372178213093 2.1817662674062546 -1 0 0
1935 2 61.97032963895883 5.188999060850542 -0.006050004900675585 -1 0 0
1742 1 59.09478390469666 0.2736925364965218 0.8997685672878092 -1 0 0
1748 13 62.4897830328764 0.6806808963003481 2.7575569527203383 -1 0 0
1745 3 57.28986373320087 4.198158929953648 2.8489361800129456 -1 0 0
1751 15 59.711006249121034 4.002908841645268 2.283898787856215 -1 0 0
1934 1 59.094783904690004 5.833863445203882 0.8997685673002284 -1 0 0
1750 20 63.75170445860954 1.8948539739730688 2.250527180393871 -1 0 0
1759 19 67.55750000551517 0.12020126962472054 2.181766267335681 -1 0 0
1756 18 66.024899910883 4.007558861004577 2.3286998236721823 -1 0 0
1758 4 65.17443927138721 2.715405384660529 0.52457177247511 -1 0 0
1764 16 68.4047481541281 3.5342368609658394 1.7081628924601144 -1 0 0
1945 17 63.590007390920256 4.485931795452544 0.49556972637362107 -1 0 0
1951 19 67.55750000549094 5.680372178272867 2.1817662673566756 -1 0 0
1761 14 67.60522118042064 1.0026331481230724 1.7762065779935758 -1 0 0
1947 2 68.39066198072727 5.188999061036375 -0.006050004992868881 -1 0 0
1754 1 65.5151162464328 0.2736925364430032 0.8997685673258775 -1 0 0
1757 3 63.71019607493664 4.1981589299311235 2.848936180034883 -1 0 0
1763 15 66.13133859084245 4.002908841592556 2.2838987878657107 -1 0 0
1946 1 65.5151162464319 5.833863445154043 0.8997685673048847 -1 0 0
1771 19 73.97783234718096 0.12020126955359293 2.181766267405379 -1 0 0
1762 20 70.17203680038514 1.8948539739824959 2.2505271803786275 -1 0 0
1768 18 72.44523225263991 4.007558861033124 2.32869982366212 -1 0 0
1770 4 71.59477161314213 2.715405384701263 0.5245717724574745 -1 0 0
1957 17 70.01033973265764 4.485931795477675 0.4955697263879819 -1 0 0
1963 19 73.97783234718251 5.680372178224525 2.1817662674044223 -1 0 0
1773 14 74.0255535221911 1.0026331481464807 1.7762065779550762 -1 0 0
1760 13 68.91011537449276 0.6806808962132886 2.757556952760131 -1 0 0
1766 1 71.93544858815716 0.27369253651107334 0.8997685673560775 -1 0 0
1769 3 70.13052841669591 4.198158929933452 2.848936180045514 -1 0 0
1775 15 72.55167093259651 4.002908841622094 2.2838987878566193 -1 0 0
1958 1 71.93544858815856 5.8338634451941935 0.8997685673214489 -1 0 0
1776 16 74.82508049577942 3.534236860945765 1.7081628926563786 -1 0 0
1774 20 76.59236914213636 1.8948539740003993 2.2505271803726536 -1 0 0
1780 18 78.86556459438026 4.00755886106227 2.3286998236600525 -1 0 0
1782 4 78.01510395490196 2.7154053847156017 0.5245717724569929 -1 0 0
1969 17 76.43067207441108 4.4859317954862 0.4955697263647593 -1 0 0
1959 2 74.81099432242763 5.188999060887686 -0.006050004919095961 -1 0 0
1772 13 75.33044771637351 0.6806808963047745 2.7575569527120956 -1 0 0
1778 1 78.35578092991074 0.2736925364502176 0.8997685673285946 -1 0 0
1781 3 76.55086075843202 4.198158929955663 2.848936180025162 -1 0 0
1787 15 78.97200327434595 4.002908841651353 2.2838987878510766 -1 0 0
1970 1 78.35578092990296 5.833863445213705 0.8997685673054542 -1 0 0
1783 19 80.39816468899208 0.1202012696179031 2.181766267338891 -1 0 0
1785 14 80.44588586390483 1.0026331481268556 1.7762065779852583 -1 0 0
1786 20 83.0127014838713 1.8948539740028278 2.250527180379923 -1 0 0
1792 18 85.28589693611717 4.007558861063549 2.32869982366237 -1 0 0
1788 16 81.24541283747271 3.5342368609395107 1.708162892755696 -1 0 0
1794 4 84.43543629664212 2.7154053847085486 0.5245717724638633 -1 0 0
1975 19 80.39816468890092 5.680372178199672 2.1817662674206955 -1 0 0
1981 17 82.85100441615275 4.485931795480777 0.4955697263590633 -1 0 0
1971 2 81.23132666416676 5.188999060814667 -0.006050004883343372 -1 0 0
1784 13 81.75078005798945 0.6806808962257408 2.757556952749401 -1 0 0
1790 1 84.77611327163658 0.2736925365107491 0.899768567349085 -1 0 0
1793 3 82.97119310016788 4.198158929961268 2.8489361800213 -1 0 0
1799 15 85.39233561608539 4.002908841652243 2.2838987878523316 -1 0 0
1982 1 84.77611327164543 5.83386344520816 0.8997685672969913 -1 0 0
1795 19 86.81849703066118 0.12020126954729175 2.1817662674073777 -1 0 0
1797 14 86.86621820567147 1.0026331481514927 1.7762065779423548 -1 0 0
1798 20 89.43303382562748 1.8948539740101968 2.2505271803671882 -1 0 0
1800 16 87.66574517922004 3.5342368609417667 1.708162892744041 -1 0 0
1806 4 90.855768638394 2.715405384728704 0.5245717724538164 -1 0 0
1987 19 86.81849703064657 5.680372178202158 2.1817662674148233 -1 0 0
1993 17 89.2713367578976 4.48593179549449 0.49556972635446034 -1 0 0
1983 2 87.65165900591428 5.188999060822309 -0.006050004889828612 -1 0 0
1796 13 88.171112399858 0.6806808963210047 2.7575569527029606 -1 0 0
1805 3 89.39152544191275 4.198158929966367 2.8489361800158406 -1 0 0
1802 1 91.1964456133884 0.2736925364892402 0.8997685673228245 -1 0 0
1994 1 91.19644561338353 5.833863445228594 0.8997685672990542 -1 0 0
1807 19 93.23882937242197 0.12020126956802889 2.1817662673797624 -1 0 0
1809 14 93.28655054740402 1.0026331481479898 1.7762065779457417 -1 0 0
1804 18 91.70622927786283 4.007558861080523 2.328699823657223 -1 0 0
1810 20 95.85336616733758 1.8948539739993049 2.2505271803847884 -1 0 0
1812 16 94.0860775209157 3.5342368609321286 1.7081628928350665 -1 0 0
1999 19 93.23882937236229 5.680372178179999 2.181766267434345 -1 0 0
2005 17 95.6916690996331 4.485931795471708 0.4955697263542567 -1 0 0
1995 2 94.0719913476404 5.188999060753529 -0.006050004855182269 -1 0 0
1808 13 94.59144474156291 0.6806808962855582 2.7575569527220494 -1 0 0
1811 15 91.81266795783237 4.0029088416697025 2.283898787846725 -1 0 0
1817 3 95.81185778364296 4.198158929959967 2.848936180017712 -1 0 0
2017 17 102.11200144136804 4.4859317954704325 0.4955697263709834 -1 0 0
1818 4 97.27610098011509 2.715405384693131 0.5245717724688078 -1 0 0
1819 19 99.65916171420241 0.1202012696050098 2.1817662673489626 -1 0 0
1821 14 99.70688288912638 1.002633148133496 1.7762065779746632 -1 0 0
1816 18 98.12656161959241 4.007558861051532 2.328699823663506 -1 0 0
1822 20 102.27369850908347 1.8948539739888093 2.2505271803837226 -1 0 0
1824 16 100.50640986273251 3.534236860950482 1.708162892664248 -1 0 0
2011 19 99.6591617141452 5.680372178222058 2.181766267393907 -1 0 0
2007 2 100.49232368940832 5.188999060881909 -0.00605000492126087 -1 0 0
1829 3 102.23219012538871 4.198158929944682 2.848936180031764 -1 0 0
1814 1 97.61677795512875 0.27369253645763614 0.8997685673264456 -1 0 0
1820 13 101.01177708322997 0.6806808962446521 2.7575569527422488 -1 0 0
1823 15 98.23300029956047 4.002908841639909 2.283898787853714 -1 0 0
2006 1 97.61677795513005 5.833863445192446 0.8997685672897965 -1 0 0
2025 14 3.4018977630500347 6.56280405685217 1.7762065779058815 0 0 0
2020 18 1.8215764935009642 9.567729769757383 2.328699823663504 0 0 0
2022 4 0.9711158540327643 8.275576293413382 0.5245717724536471 0 0 0
2028 16 4.201424736571316 9.094407769615703 1.7081628928070705 0 0 0
2215 19 3.354176588008094 11.240543086872744 2.1817662674340874 0 0 0
2211 2 4.1873385632751114 10.749169969458412 -0.006050004862870598 0 0 0
2024 13 4.706791957239497 6.240851805024802 2.75755695269485 0 0 0
2027 15 1.9280151734678543 9.56307975034695 2.283898787854081 0 0 0
2210 1 1.3117928290202736 11.394034353912149 0.8997685673138405 0 0 0
2026 20 5.9687133829998205 7.455024882689129 2.250527180371276 0 0 0
2037 14 9.822230104800482 6.562804056857222 1.7762065778932834 0 0 0
2032 18 8.241908835236341 9.567729769758184 2.328699823665812 0 0 0
2034 4 7.391448195773968 8.275576293402475 0.5245717724615466 0 0 0
2040 16 10.62175707832379 9.09440776962069 1.7081628927791237 0 0 0
2221 17 5.807016315279655 10.046102704170092 0.49556972635157975 0 0 0
2227 19 9.77450892975635 11.240543086879649 2.1817662674224865 0 0 0
2223 2 10.60767090502747 10.749169969479107 -0.006050004875800834 0 0 0
2036 13 11.127124299016916 6.240851805060731 2.7575569526791717 0 0 0
2033 3 5.927204999283971 9.758329838646631 2.848936180013834 0 0 0
2039 15 8.348347515207276 9.563079750347384 2.283898787854798 0 0 0
2222 1 7.732125170765609 11.394034353903846 0.8997685673006429 0 0 0
2038 20 12.389045724746042 7.455024882688517 2.2505271803673055 0 0 0
2044 18 14.662241176977663 9.567729769761986 2.3286998236669243 0 0 0
2046 4 13.811780537518834 8.275576293408102 0.5245717724593871 0 0 0
2052 16 17.042089420053557 9.094407769616646 1.708162892805875 0 0 0
2233 17 12.227348657021004 10.046102704172595 0.49556972635231655 0 0 0
2239 19 16.194841271488396 11.24054308687384 2.181766267429935 0 0 0
2049 14 16.242562446552558 6.562804056867795 1.7762065778729403 0 0 0
2235 2 17.02800324676216 10.749169969459217 -0.006050004864040294 0 0 0
2045 3 12.347537341024676 9.758329838644698 2.848936180013977 0 0 0
2051 15 14.768679856948514 9.563079750351534 2.2838987878558936 0 0 0
2234 1 14.152457512504355 11.394034353909573 0.8997685673049026 0 0 0
2050 20 18.809378066491323 7.455024882694542 2.2505271803629734 0 0 0
2056 18 21.08257351871791 9.567729769771969 2.3286998236659406 0 0 0
2058 4 20.232112879264438 8.275576293417366 0.5245717724567213 0 0 0
2245 17 18.647680998764205 10.04610270418003 0.49556972634714824 0 0 0
2251 19 22.61517361321912 11.240543086862356 2.181766267440469 0 0 0
2061 14 22.662894788282472 6.562804056861046 1.7762065778818368 0 0 0
2048 13 17.547456640798586 6.240851805088184 2.7575569526664854 0 0 0
2057 3 18.76786968276366 9.758329838651031 2.848936180008981 0 0 0
2063 15 21.189012198691657 9.563079750361432 2.2838987878537895 0 0 0
2246 1 20.57278985424469 11.394034353919604 0.8997685673040668 0 0 0
2064 16 23.46242176177365 9.094407769611518 1.7081628928493133 0 0 0
2062 20 25.22971040822967 7.45502488269543 2.2505271803653617 0 0 0
2068 18 27.502905860457567 9.567729769771876 2.328699823665332 0 0 0
2070 4 26.652445221003447 8.275576293414824 0.5245717724581072 0 0 0
2257 17 25.0680133405045 10.046102704178386 0.49556972634522795 0 0 0
2247 2 23.448335588498804 10.749169969426763 -0.0060500048467084355 0 0 0
2060 13 23.96778898249464 6.240851805058943 2.75755695267899 0 0 0
2069 3 25.188202024503486 9.758329838652928 2.8489361800076605 0 0 0
2075 15 27.609344540431476 9.563079750361277 2.283898787853061 0 0 0
2258 1 26.993122195985755 11.394034353917238 0.8997685672999309 0 0 0
2073 14 29.08322713003058 6.56280405686991 1.7762065778675973 0 0 0
2074 20 31.65004274995561 7.455024882685978 2.2505271803706104 0 0 0
2080 18 33.92323820219105 9.567729769754335 2.32869982367128 0 0 0
2076 16 29.88275410351464 9.09440776961281 1.7081628928434045 0 0 0
2082 4 33.07277756273402 8.275576293398744 0.524571772463935 0 0 0
2263 19 29.035505954958307 11.240543086864998 2.1817662674363376 0 0 0
2269 17 31.488345682241086 10.046102704167938 0.4955697263487219 0 0 0
2259 2 29.868667930241557 10.749169969431293 -0.006050004849548674 0 0 0
2072 13 30.38812132427304 6.2408518050940245 2.7575569526649244 0 0 0
2081 3 31.608534366236825 9.758329838643974 2.8489361800111834 0 0 0
2087 15 34.02967688216416 9.56307975034338 2.2838987878592287 0 0 0
2270 1 33.41345453772757 11.394034353900244 0.8997685673032273 0 0 0
2085 14 35.50355947177085 6.5628040568724995 1.7762065778585103 0 0 0
2086 20 38.07037509171976 7.4550248826942624 2.2505271803573583 0 0 0
2088 16 36.303086445297545 9.094407769619334 1.7081628927551717 0 0 0
2094 4 39.493109904488406 8.275576293426644 0.5245717724519694 0 0 0
2275 19 35.45583829672149 11.240543086885728 2.181766267420063 0 0 0
2281 17 37.90867802398388 10.046102704185438 0.49556972635065716 0 0 0
2271 2 36.2890002719919 10.74916996949688 -0.006050004881530281 0 0 0
2084 13 36.8084536660163 6.2408518050955815 2.757556952661038 0 0 0
2093 3 38.028866707986545 9.758329838648343 2.848936180011387 0 0 0
2282 1 39.833786879461414 11.394034353928648 0.8997685673108854 0 0 0
2097 14 41.92389181351248 6.56280405687491 1.7762065778559644 0 0 0
2092 18 40.34357054394073 9.56772976977679 2.328699823665341 0 0 0
2098 20 44.490707433443916 7.4550248826927445 2.2505271803662965 0 0 0
2100 16 42.72341878697625 9.094407769606052 1.7081628928855712 0 0 0
2287 19 41.87617063842777 11.240543086853984 2.181766267449529 0 0 0
2293 17 44.32901036572536 10.046102704173899 0.49556972634188085 0 0 0
2283 2 42.70933261370834 10.749169969398364 -0.00605000483224831 0 0 0
2096 13 43.22878600776233 6.240851805094043 2.757556952663272 0 0 0
2099 15 40.450009223913625 9.563079750366592 2.2838987878533987 0 0 0
2105 3 44.44919904971751 9.758329838651278 2.8489361800049213 0 0 0
2106 4 45.91344224622261 8.27557629340837 0.5245717724612354 0 0 0
2109 14 48.344224155242074 6.562804056862696 1.7762065778792726 0 0 0
2104 18 46.76390288567298 9.567729769767427 2.3286998236690546 0 0 0
2110 20 50.9110397751898 7.455024882692549 2.25052718036425 0 0 0
2112 16 49.14375112875137 9.094407769615279 1.708162892809259 0 0 0
2299 19 48.29650298018918 11.240543086872274 2.181766267429746 0 0 0
2113 17 50.749342707463335 10.046102704178583 0.49556972634848234 -1 0 0
2295 2 49.12966495546701 10.7491699694563 -0.006050004862223933 0 0 0
2108 13 49.64911834945224 6.24085180505627 2.7575569526819095 0 0 0
2111 15 46.87034156564831 9.563079750356602 2.283898787856241 0 0 0
1925 3 50.86953139146403 9.758329838648857 2.8489361800103 -1 0 0
2294 1 46.25411922120737 11.39403435391152 0.8997685672996105 0 0 0
1929 14 54.764556496987765 6.562804056863243 1.7762065778808214 -1 0 0
1924 18 53.184235227417844 9.56772976976825 2.3286998236659855 -1 0 0
1926 4 52.33377458796217 8.275576293414614 0.5245717724570668 -1 0 0
1932 16 55.56408347047921 9.094407769612996 1.7081628928344486 -1 0 0
2119 19 54.71683532192162 11.240543086866806 2.181766267436544 -1 0 0
2115 2 55.54999729720027 10.749169969438187 -0.006050004852013326 -1 0 0
1928 13 56.06945069121797 6.240851805070357 2.7575569526769677 -1 0 0
1931 15 53.29067390739048 9.563079750357593 2.283898787854253 -1 0 0
2114 1 52.674451562945045 11.394034353916277 0.8997685673044591 -1 0 0
1930 20 57.33137211691486 7.455024882687701 2.2505271803701983 -1 0 0
1941 14 61.18488883871796 6.5628040568543256 1.776206577901816 -1 0 0
1936 18 59.60456756915353 9.56772976975267 2.328699823665361 -1 0 0
1938 4 58.75410692968999 8.275576293398956 0.524571772460348 -1 0 0
1944 16 61.984415812254234 9.09440776962229 1.70816289275372 -1 0 0
2125 17 57.16967504919963 10.046102704170387 0.4955697263487193 -1 0 0
2131 19 61.137167663679264 11.240543086887412 2.1817662674172897 -1 0 0
2127 2 61.970329638954695 10.749169969500615 -0.006050004882235662 -1 0 0
1940 13 62.4897830329178 6.240851805025419 2.75755695269844 -1 0 0
1937 3 57.28986373320113 9.758329838645622 2.848936180011046 -1 0 0
1943 15 59.71100624912422 9.563079750341624 2.2838987878544295 -1 0 0
2126 1 59.09478390468861 11.394034353898872 0.8997685672986466 -1 0 0
1942 20 63.75170445863681 7.455024882677889 2.2505271803799993 -1 0 0
1948 18 66.02489991089024 9.567729769728496 2.3286998236666983 -1 0 0
1950 4 65.17443927141072 8.275576293380418 0.5245717724651309 -1 0 0
1956 16 68.40474815404356 9.09440776963345 1.7081628926439756 -1 0 0
2137 17 63.59000739093002 10.0461027041604 0.4955697263614389 -1 0 0
2143 19 67.55750000544522 11.240543086914753 2.1817662673962332 -1 0 0
1953 14 67.60522118043147 6.562804056832944 1.7762065779466023 -1 0 0
2139 2 68.3906619807069 10.749169969585129 -0.006050004922384256 -1 0 0
1949 3 63.7101960749411 9.758329838635529 2.8489361800229376 -1 0 0
1955 15 66.13133859085616 9.563079750316998 2.2838987878575763 -1 0 0
2138 1 65.51511624642917 11.394034353877144 0.8997685673019329 -1 0 0
1954 20 70.1720368003767 7.4550248826723555 2.2505271803828153 -1 0 0
1960 18 72.44523225263242 9.567729769721138 2.3286998236671512 -1 0 0
1962 4 71.59477161314453 8.275576293379393 0.5245717724649113 -1 0 0
2149 17 70.01033973266411 10.04610270415959 0.4955697263735658 -1 0 0
2155 19 73.97783234718811 11.240543086917777 2.1817662673943494 -1 0 0
1965 14 74.02555352218717 6.562804056849466 1.7762065779158127 -1 0 0
1952 13 68.9101153745467 6.240851804950959 2.7575569527343604 -1 0 0
1961 3 70.13052841668512 9.758329838627732 2.848936180033558 -1 0 0
1967 15 72.551670932595 9.563079750309681 2.2838987878592647 -1 0 0
2150 1 71.9354485881648 11.394034353874694 0.8997685673110574 -1 0 0
1968 16 74.82508049578965 9.09440776963278 1.7081628926281338 -1 0 0
1966 20 76.59236914211878 7.4550248826669945 2.2505271803784406 -1 0 0
1972 18 78.8655645943718 9.567729769718197 2.328699823669027 -1 0 0
1974 4 78.01510395488762 8.2755762933782 0.5245717724634262 -1 0 0
2161 17 76.43067207440535 10.046102704156644 0.4955697263731216 -1 0 0
2151 2 74.81099432243965 10.749169969593806 -0.00605000492923086 -1 0 0
1964 13 75.33044771637259 6.240851805026473 2.7575569526986032 -1 0 0
1973 3 76.55086075842365 9.758329838620934 2.8489361800326214 -1 0 0
1979 15 78.97200327433332 9.56307975030711 2.28389878786164 -1 0 0
2162 1 78.35578092990409 11.394034353873689 0.8997685673151234 -1 0 0
1977 14 80.44588586393868 6.562804056861647 1.7762065778902763 -1 0 0
1978 20 83.0127014838631 7.455024882667351 2.250527180376124 -1 0 0
1984 18 85.28589693611111 9.567729769722293 2.3286998236726903 -1 0 0
1980 16 81.24541283753578 9.094407769632529 1.7081628926153856 -1 0 0
1986 4 84.43543629663273 8.27557629338319 0.5245717724638014 -1 0 0
2167 19 80.39816468892906 11.240543086922226 2.181766267391498 -1 0 0
2173 17 82.85100441614793 10.046102704159688 0.49556972637237695 -1 0 0
2163 2 81.23132666417783 10.749169969602226 -0.006050004933596654 -1 0 0
1976 13 81.7507800581515 6.240851805057656 2.7575569526865604 -1 0 0
1985 3 82.97119310016147 9.758329838620694 2.8489361800315587 -1 0 0
1991 15 85.39233561607398 9.563079750311386 2.2838987878648482 -1 0 0
2174 1 84.7761132716441 11.39403435387895 0.8997685673198017 -1 0 0
1989 14 86.86621820567758 6.5628040568610455 1.7762065778865486 -1 0 0
1990 20 89.43303382560654 7.455024882670176 2.250527180372644 -1 0 0
1992 16 87.6657451792677 9.094407769627574 1.7081628926392587 -1 0 0
1998 4 90.85576863837471 8.275576293388523 0.5245717724602853 -1 0 0
2179 19 86.81849703066383 11.240543086915995 2.1817662673998415 -1 0 0
2185 17 89.27133675788897 10.046102704164012 0.49556972636944113 -1 0 0
2175 2 87.65165900591448 10.749169969584113 -0.006050004922293333 -1 0 0
1988 13 88.17111239987916 6.240851805052974 2.7575569526883226 -1 0 0
1997 3 89.39152544190203 9.758329838623524 2.848936180028605 -1 0 0
2186 1 91.19644561338391 11.394034353884535 0.8997685673184465 -1 0 0
2001 14 93.28655054742727 6.5628040568694175 1.7762065778720177 -1 0 0
1996 18 91.70622927785178 9.567729769727238 2.3286998236701453 -1 0 0
2002 20 95.8533661673435 7.455024882670727 2.2505271803735774 -1 0 0
2004 16 94.08607752099473 9.094407769624897 1.7081628926656318 -1 0 0
2191 19 93.23882937239725 11.240543086908676 2.181766267405522 -1 0 0
2197 17 95.69166909962907 10.046102704161173 0.49556972636821744 -1 0 0
2187 2 94.0719913476519 10.74916996956436 -0.0060500049121966016 -1 0 0
2000 13 94.59144474166726 6.240851805080212 2.7575569526728927 -1 0 0
2003 15 91.81266795781568 9.563079750316254 2.2838987878618275 -1 0 0
2009 3 95.81185778364068 9.758329838624704 2.8489361800280033 -1 0 0
2209 17 102.11200144137494 10.046102704178 0.4955697263633998 -1 0 0
2010 4 97.27610098011488 8.275576293385724 0.5245717724624142 -1 0 0
2013 14 99.70688288915078 6.562804056856189 1.7762065778970375 -1 0 0
2008 18 98.1265616195907 9.567729769727 2.328699823671193 -1 0 0
2014 20 102.27369850910797 7.455024882685851 2.250527180364298 -1 0 0
2016 16 100.50640986274334 9.09440776962806 1.7081628926518047 -1 0 0
2203 19 99.6591617141446 11.240543086910876 2.1817662674020033 -1 0 0
2199 2 100.49232368939477 10.749169969574403 -0.006050004919413288 -1 0 0
2021 3 102.2321901253905 9.75832983863872 2.848936180023012 -1 0 0
2012 13 101.01177708333798 6.240851805020052 2.7575569526964374 -1 0 0
2015 15 98.23300029955516 9.563079750315978 2.283898787862588 -1 0 0
2198 1 97.61677795512453 11.394034353882109 0.899768567316188 -1 0 0
2217 14 3.4018977630662266 12.122974965548329 1.7762065778858014 0 0 0
2212 18 1.8215764934925758 15.127900678417962 2.3286998236693877 0 0 0
2214 4 0.9711158540153366 13.835747202075877 0.5245717724621918 0 0 0
2220 16 4.20142473662961 14.654578678311653 1.7081628926793981 0 0 0
2407 19 3.3541765880362164 16.800713995591202 2.181766267407175 0 0 0
2403 2 4.187338563292493 16.30934087824034 -0.00605000490867252 0 0 0