LAMMPS data file via write_data, version 29 Aug 2024, timestep = 2, units = metal

10044 atoms
9 atom types

0 101.589592724525 xlo xhi
0 102.16935645624 ylo yhi
-50 50 zlo zhi

Masses

1 44.955908
2 44.955908
3 44.955908
4 15.999
5 15.999
6 15.999
7 15.999
8 15.999
9 15.999

Atoms # atomic

1773 5 1.6385425865391032 1.892025040845886 0.05919052865350691 0 0 0
1772 1 3.2770778823035784 2.838030304484635 0.9383385700755543 0 0 0
1779 5 4.915626222814102 1.8920250408458876 0.05919052865350881 0 0 0
1768 5 7.684025560892172e-07 4.730062720185891 0.0591905286535169 0 0 0
1774 5 3.277084404677564 4.73006272018589 0.0591905286535157 0 0 0
1775 4 3.277084261879327 0.9460123483763031 1.8168375267750823 0 0 0
1776 4 1.6385424437409488 3.7840500277163067 1.81683752677508 0 0 0
1782 4 4.915626080015948 3.784050027716304 1.8168375267750778 0 0 0
1769 4 6.256043008079359e-07 0.9460123483763002 1.8168375267750796 0 0 0
1957 1 1.638536064163877 5.67606798382461 0.9383385700755481 0 0 0
1963 1 4.915619700438862 5.676067983824616 0.9383385700755534 0 0 0
1778 1 6.554161518578577 2.838030304484635 0.9383385700755541 0 0 0
1785 5 8.192709859089106 1.8920250408458894 0.059190528653510016 0 0 0
1784 1 9.831245154853558 2.8380303044846356 0.9383385700755554 0 0 0
1791 5 11.469793495364112 1.892025040845887 0.05919052865350813 0 0 0
1780 5 6.554168040952567 4.730062720185887 0.059190528653513104 0 0 0
1786 5 9.831251677227566 4.730062720185888 0.05919052865351347 0 0 0
1781 4 6.554167898154326 0.9460123483763055 1.8168375267750854 0 0 0
1787 4 9.831251534429333 0.9460123483763028 1.8168375267750825 0 0 0
1788 4 8.192709716290953 3.7840500277163036 1.8168375267750767 0 0 0
1794 4 11.469793352565956 3.7840500277163036 1.8168375267750787 0 0 0
1969 1 8.192703336713866 5.676067983824613 0.9383385700755518 0 0 0
1975 1 11.469786972988855 5.676067983824621 0.9383385700755555 0 0 0
1790 1 13.108328791128562 2.838030304484634 0.938338570075554 0 0 0
1797 5 14.74687713163911 1.8920250408458883 0.059190528653508975 0 0 0
1796 1 16.38541242740356 2.838030304484635 0.9383385700755552 0 0 0
1792 5 13.108335313502566 4.7300627201858845 0.05919052865351027 0 0 0
1798 5 16.385418949777563 4.730062720185891 0.05919052865351592 0 0 0
1793 4 13.108335170704324 0.9460123483763071 1.816837526775086 0 0 0
1799 4 16.385418806979327 0.9460123483763028 1.8168375267750823 0 0 0
1800 4 14.746876988840956 3.7840500277163045 1.8168375267750778 0 0 0
1981 1 14.746870609263883 5.676067983824613 0.9383385700755515 0 0 0
1803 5 18.02396076791411 1.892025040845886 0.05919052865350601 0 0 0
1802 1 19.66249606367856 2.838030304484635 0.9383385700755538 0 0 0
1809 5 21.3010444041891 1.8920250408458836 0.05919052865350522 0 0 0
1808 1 22.93957969995359 2.838030304484636 0.9383385700755565 0 0 0
1804 5 19.66250258605257 4.730062720185887 0.059190528653512486 0 0 0
1810 5 22.939586222327573 4.7300627201858845 0.059190528653510335 0 0 0
1805 4 19.662502443254336 0.9460123483763 1.8168375267750803 0 0 0
1811 4 22.939586079529324 0.9460123483763067 1.816837526775086 0 0 0
1806 4 18.023960625115954 3.7840500277163054 1.8168375267750803 0 0 0
1812 4 21.30104426139095 3.7840500277163063 1.8168375267750803 0 0 0
1987 1 18.023954245538857 5.676067983824616 0.9383385700755537 0 0 0
1993 1 21.301037881813844 5.6760679838246215 0.938338570075557 0 0 0
1815 5 24.5781280404641 1.8920250408458916 0.05919052865351194 0 0 0
1814 1 26.216663336228557 2.8380303044846356 0.9383385700755551 0 0 0
1821 5 27.85521167673911 1.892025040845886 0.05919052865350611 0 0 0
1820 1 29.49374697250356 2.838030304484635 0.9383385700755538 0 0 0
1816 5 26.216669858602565 4.73006272018589 0.059190528653515276 0 0 0
1822 5 29.49375349487757 4.730062720185887 0.05919052865351242 0 0 0
1817 4 26.21666971580433 0.9460123483763051 1.816837526775085 0 0 0
1823 4 29.493753352079334 0.9460123483763 1.8168375267750803 0 0 0
1818 4 24.578127897665947 3.7840500277163014 1.8168375267750745 0 0 0
1824 4 27.855211533940953 3.784050027716305 1.81683752677508 0 0 0
1999 1 24.57812151808887 5.676067983824609 0.93833857007555 0 0 0
2005 1 27.855205154363855 5.676067983824616 0.9383385700755535 0 0 0
1827 5 31.132295313014097 1.8920250408458836 0.059190528653505096 0 0 0
1826 1 32.77083060877859 2.8380303044846356 0.9383385700755554 0 0 0
1833 5 34.4093789492891 1.892025040845892 0.05919052865351274 0 0 0
1828 5 32.77083713115257 4.7300627201858845 0.059190528653510224 0 0 0
1829 4 32.77083698835432 0.9460123483763067 1.816837526775086 0 0 0
1830 4 31.132295170215947 3.7840500277163063 1.8168375267750803 0 0 0
1836 4 34.40937880649095 3.784050027716301 1.8168375267750736 0 0 0
2011 1 31.132288790638842 5.676067983824621 0.938338570075556 0 0 0
2017 1 34.409372426913876 5.67606798382461 0.9383385700755511 0 0 0
1832 1 36.04791424505356 2.8380303044846356 0.9383385700755548 0 0 0
1839 5 37.6864625855641 1.892025040845883 0.059190528653504146 0 0 0
1838 1 39.3249978813286 2.838030304484635 0.9383385700755554 0 0 0
1845 5 40.9635462218391 1.8920250408458925 0.05919052865351298 0 0 0
1834 5 36.04792076742756 4.73006272018589 0.05919052865351564 0 0 0
1840 5 39.32500440370257 4.730062720185885 0.059190528653511404 0 0 0
1835 4 36.047920624629334 0.9460123483763013 1.816837526775081 0 0 0
1841 4 39.32500426090432 0.9460123483763059 1.816837526775085 0 0 0
1842 4 37.68646244276595 3.784050027716307 1.8168375267750816 0 0 0
1848 4 40.96354607904095 3.7840500277163005 1.8168375267750734 0 0 0
2023 1 37.68645606318886 5.676067983824621 0.9383385700755559 0 0 0
2029 1 40.96353969946388 5.67606798382461 0.9383385700755509 0 0 0
1844 1 42.60208151760356 2.8380303044846356 0.9383385700755551 0 0 0
1851 5 44.24062985811411 1.8920250408458863 0.059190528653506186 0 0 0
1850 1 45.87916515387856 2.8380303044846356 0.9383385700755547 0 0 0
1857 5 47.5177134943891 1.8920250408458827 0.05919052865350406 0 0 0
1846 5 42.602088039977566 4.73006272018589 0.05919052865351537 0 0 0
1852 5 45.87917167625257 4.730062720185886 0.0591905286535116 0 0 0
1847 4 42.60208789717933 0.946012348376305 1.8168375267750847 0 0 0
1853 4 45.87917153345433 0.9460123483763005 1.8168375267750811 0 0 0
1854 4 44.24062971531596 3.7840500277163054 1.81683752677508 0 0 0
1860 4 47.51771335159095 3.7840500277163076 1.8168375267750818 0 0 0
2035 1 44.24062333573887 5.676067983824616 0.9383385700755535 0 0 0
2041 1 47.517706972013855 5.676067983824621 0.938338570075556 0 0 0
1856 1 49.1562487901536 2.8380303044846373 0.9383385700755574 0 0 0
1677 5 50.7947971306641 1.8920250408458896 0.059190528653510724 -1 0 0
1676 1 52.433332426428585 2.8380303044846356 0.9383385700755547 -1 0 0
1858 5 49.15625531252757 4.7300627201858845 0.05919052865351034 0 0 0
1678 5 52.433338948802565 4.73006272018589 0.05919052865351637 -1 0 0
1859 4 49.15625516972932 0.9460123483763047 1.816837526775084 0 0 0
1679 4 52.43333880600433 0.9460123483763029 1.8168375267750818 -1 0 0
1680 4 50.79479698786594 3.7840500277163027 1.8168375267750758 -1 0 0
1861 1 50.79479060828888 5.676067983824613 0.9383385700755527 -1 0 0
1683 5 54.0718807669391 1.8920250408458876 0.05919052865350873 -1 0 0
1682 1 55.71041606270359 2.838030304484634 0.9383385700755521 -1 0 0
1689 5 57.34896440321411 1.8920250408458903 0.05919052865351104 -1 0 0
1688 1 58.98749969897856 2.8380303044846364 0.9383385700755571 -1 0 0
1684 5 55.71042258507757 4.730062720185888 0.05919052865351445 -1 0 0
1690 5 58.987506221352575 4.730062720185888 0.059190528653513146 -1 0 0
1685 4 55.71042244227933 0.9460123483763044 1.8168375267750836 -1 0 0
1691 4 58.98750607855434 0.9460123483763027 1.8168375267750827 -1 0 0
1686 4 54.07188062414095 3.7840500277163036 1.8168375267750776 -1 0 0
1692 4 57.34896426041596 3.7840500277163023 1.8168375267750758 -1 0 0
1867 1 54.071874244563865 5.676067983824616 0.9383385700755534 -1 0 0
1873 1 57.34895788083887 5.676067983824613 0.9383385700755524 -1 0 0
1695 5 60.62604803948911 1.8920250408458839 0.05919052865350442 -1 0 0
1694 1 62.26458333525358 2.838030304484635 0.9383385700755549 -1 0 0
1701 5 63.90313167576411 1.8920250408458894 0.059190528653510995 -1 0 0
1700 1 65.54166697152857 2.838030304484637 0.9383385700755565 -1 0 0
1696 5 62.26458985762758 4.7300627201858845 0.05919052865350914 -1 0 0
1702 5 65.54167349390256 4.730062720185887 0.059190528653512584 -1 0 0
1697 4 62.264589714829334 0.946012348376303 1.8168375267750831 -1 0 0
1703 4 65.54167335110432 0.9460123483763059 1.8168375267750863 -1 0 0
1698 4 60.626047896690956 3.7840500277163067 1.816837526775082 -1 0 0
1704 4 63.90313153296595 3.7840500277163023 1.8168375267750754 -1 0 0
1879 1 60.626041517113855 5.676067983824619 0.9383385700755551 -1 0 0
1885 1 63.90312515338887 5.676067983824616 0.9383385700755519 -1 0 0
1707 5 67.18021531203911 1.892025040845887 0.05919052865350656 -1 0 0
1706 1 68.81875060780358 2.838030304484632 0.9383385700755501 -1 0 0
1713 5 70.4572989483141 1.892025040845884 0.059190528653506484 -1 0 0
1708 5 68.81875713017756 4.730062720185891 0.059190528653515845 -1 0 0
1709 4 68.81875698737933 0.9460123483763017 1.816837526775081 -1 0 0
1710 4 67.18021516924095 3.7840500277163063 1.8168375267750805 -1 0 0
1716 4 70.45729880551595 3.7840500277163054 1.8168375267750794 -1 0 0
1891 1 67.18020878966388 5.67606798382461 0.938338570075551 -1 0 0
1897 1 70.45729242593885 5.676067983824624 0.9383385700755603 -1 0 0
1712 1 72.0958342440786 2.8380303044846387 0.9383385700755598 -1 0 0
1719 5 73.7343825845891 1.8920250408458914 0.05919052865351077 -1 0 0
1718 1 75.37291788035357 2.838030304484635 0.9383385700755547 -1 0 0
1725 5 77.01146622086412 1.8920250408458898 0.059190528653510516 -1 0 0
1714 5 72.09584076645258 4.730062720185885 0.05919052865351152 -1 0 0
1720 5 75.37292440272758 4.730062720185892 0.059190528653517496 -1 0 0
1715 4 72.09584062365433 0.9460123483763057 1.816837526775085 -1 0 0
1721 4 75.37292425992933 0.9460123483763038 1.8168375267750827 -1 0 0
1722 4 73.73438244179094 3.7840500277163027 1.816837526775076 -1 0 0
1728 4 77.01146607806596 3.784050027716301 1.8168375267750756 -1 0 0
1903 1 73.73437606221388 5.676067983824606 0.9383385700755463 -1 0 0
1909 1 77.01145969848885 5.67606798382462 0.9383385700755577 -1 0 0
1724 1 78.65000151662855 2.838030304484632 0.9383385700755507 -1 0 0
1731 5 80.28854985713912 1.8920250408458843 0.05919052865350651 -1 0 0
1730 1 81.92708515290357 2.838030304484639 0.9383385700755594 -1 0 0
1737 5 83.56563349341411 1.8920250408458865 0.05919052865350618 -1 0 0
1726 5 78.65000803900257 4.73006272018588 0.05919052865350481 -1 0 0
1732 5 81.92709167527757 4.73006272018589 0.05919052865351596 -1 0 0
1727 4 78.65000789620433 0.9460123483763078 1.8168375267750871 -1 0 0
1733 4 81.92709153247931 0.9460123483763009 1.816837526775081 -1 0 0
1734 4 80.28854971434096 3.7840500277163054 1.8168375267750794 -1 0 0
1740 4 83.56563335061595 3.784050027716307 1.8168375267750803 -1 0 0
1915 1 80.28854333476392 5.676067983824621 0.9383385700755555 -1 0 0
1921 1 83.56562697103888 5.676067983824606 0.9383385700755463 -1 0 0
1736 1 85.20416878917858 2.838030304484633 0.9383385700755505 -1 0 0
1743 5 86.84271712968909 1.89202504084588 0.059190528653501766 -1 0 0
1742 1 88.48125242545363 2.838030304484635 0.9383385700755552 -1 0 0
1738 5 85.20417531155256 4.730062720185891 0.05919052865351606 -1 0 0
1744 5 88.48125894782758 4.730062720185891 0.05919052865351544 -1 0 0
1739 4 85.20417516875433 0.9460123483763009 1.81683752677508 -1 0 0
1745 4 88.48125880502934 0.946012348376301 1.816837526775081 -1 0 0
1746 4 86.84271698689095 3.7840500277163094 1.8168375267750836 -1 0 0
1927 1 86.84271060731385 5.676067983824621 0.9383385700755557 -1 0 0
1749 5 90.11980076596409 1.8920250408458905 0.05919052865351121 -1 0 0
1748 1 91.7583360617286 2.8380303044846387 0.9383385700755595 -1 0 0
1755 5 93.39688440223911 1.8920250408458945 0.059190528653515366 -1 0 0
1754 1 95.03541969800354 2.838030304484631 0.9383385700755503 -1 0 0
1750 5 91.75834258410258 4.730062720185886 0.059190528653513846 -1 0 0
1756 5 95.03542622037756 4.730062720185877 0.0591905286535018 -1 0 0
1751 4 91.75834244130435 0.9460123483763082 1.8168375267750867 -1 0 0
1757 4 95.03542607757932 0.9460123483763136 1.8168375267750936 -1 0 0
1752 4 90.11980062316593 3.7840500277163023 1.8168375267750763 -1 0 0
1758 4 93.39688425944095 3.784050027716297 1.8168375267750712 -1 0 0
1933 1 90.11979424358883 5.676067983824613 0.938338570075556 -1 0 0
1939 1 93.39687787986385 5.676067983824615 0.9383385700755531 -1 0 0
1766 1 101.58958697055357 2.838030304484636 0.9383385700755558 -1 0 0
1761 5 96.67396803851413 1.8920250408458936 0.05919052865351514 -1 0 0
1760 1 98.31250333427849 2.8380303044846356 0.938338570075555 -1 0 0
1767 5 99.95105167478913 1.8920250408458767 0.05919052865349758 -1 0 0
1762 5 98.31250985665255 4.730062720185888 0.0591905286535134 -1 0 0
1763 4 98.31250971385431 0.9460123483762991 1.816837526775079 -1 0 0
1764 4 96.67396789571599 3.7840500277162983 1.8168375267750707 -1 0 0
1770 4 99.95105153199097 3.784050027716312 1.8168375267750885 -1 0 0
1945 1 96.67396151613892 5.676067983824613 0.9383385700755486 -1 0 0
1951 1 99.95104515241391 5.676067983824623 0.9383385700755609 -1 0 0
1959 5 1.6385425865391026 7.568100399525899 0.05919052865351183 0 0 0
1965 5 4.915626222814101 7.568100399525901 0.059190528653513985 0 0 0
1958 1 3.2770778823035798 8.514105663164596 0.9383385700755513 0 0 0
1954 5 7.684025564600601e-07 10.4061380788659 0.059190528653508614 0 0 0
1960 5 3.2770844046775642 10.406138078865899 0.05919052865350815 0 0 0
1961 4 3.277084261879327 6.622087707056316 1.8168375267750778 0 0 0
1962 4 1.6385424437409484 9.460125386396317 1.8168375267750863 0 0 0
1968 4 4.915626080015947 9.460125386396316 1.816837526775084 0 0 0
1955 4 6.256043008079359e-07 6.6220877070563136 1.8168375267750754 0 0 0
2143 1 1.6385360641638758 11.352143342504622 0.9383385700755513 0 0 0
2149 1 4.915619700438862 11.352143342504627 0.9383385700755567 0 0 0
1971 5 8.192709859089106 7.5681003995259015 0.05919052865351443 0 0 0
1977 5 11.46979349536411 7.5681003995259 0.05919052865351401 0 0 0
1964 1 6.554161518578578 8.514105663164596 0.9383385700755514 0 0 0
1970 1 9.831245154853562 8.514105663164598 0.9383385700755524 0 0 0
1966 5 6.554168040952567 10.406138078865895 0.05919052865350548 0 0 0
1972 5 9.831251677227566 10.406138078865897 0.05919052865350586 0 0 0
1967 4 6.5541678981543265 6.622087707056319 1.8168375267750805 0 0 0
1973 4 9.831251534429333 6.622087707056316 1.816837526775078 0 0 0
1974 4 8.19270971629095 9.460125386396314 1.8168375267750834 0 0 0
1980 4 11.469793352565954 9.460125386396314 1.8168375267750838 0 0 0
2155 1 8.192703336713866 11.352143342504624 0.9383385700755552 0 0 0
2161 1 11.469786972988855 11.352143342504633 0.9383385700755589 0 0 0
1983 5 14.74687713163911 7.568100399525901 0.05919052865351404 0 0 0
1976 1 13.108328791128562 8.514105663164596 0.938338570075551 0 0 0
1982 1 16.385412427403562 8.514105663164596 0.938338570075551 0 0 0
1978 5 13.108335313502568 10.406138078865894 0.059190528653503154 0 0 0
1984 5 16.385418949777563 10.406138078865899 0.05919052865350792 0 0 0
1979 4 13.108335170704322 6.62208770705632 1.8168375267750816 0 0 0
1985 4 16.385418806979327 6.622087707056315 1.8168375267750776 0 0 0
1986 4 14.746876988840956 9.460125386396316 1.816837526775084 0 0 0
2167 1 14.74687060926388 11.352143342504625 0.938338570075555 0 0 0
1989 5 18.023960767914108 7.568100399525899 0.05919052865351113 0 0 0
1995 5 21.3010444041891 7.568100399525897 0.059190528653510245 0 0 0
1988 1 19.662496063678564 8.514105663164598 0.938338570075552 0 0 0
1994 1 22.93957969995359 8.514105663164598 0.9383385700755531 0 0 0
1990 5 19.66250258605257 10.406138078865895 0.05919052865350431 0 0 0
1996 5 22.939586222327573 10.406138078865894 0.059190528653502564 0 0 0
1991 4 19.662502443254336 6.6220877070563136 1.8168375267750756 0 0 0
1997 4 22.939586079529324 6.62208770705632 1.8168375267750818 0 0 0
1992 4 18.023960625115954 9.460125386396316 1.8168375267750863 0 0 0
1998 4 21.301044261390945 9.460125386396316 1.8168375267750871 0 0 0
2173 1 18.023954245538857 11.352143342504627 0.9383385700755574 0 0 0
2179 1 21.301037881813844 11.352143342504636 0.9383385700755602 0 0 0
2001 5 24.5781280404641 7.568100399525904 0.05919052865351716 0 0 0
2007 5 27.855211676739106 7.568100399525899 0.059190528653511244 0 0 0
2000 1 26.21666333622856 8.514105663164596 0.9383385700755503 0 0 0
2006 1 29.493746972503562 8.514105663164598 0.938338570075552 0 0 0
2002 5 26.216669858602565 10.406138078865899 0.059190528653507775 0 0 0
2008 5 29.49375349487757 10.406138078865895 0.059190528653504236 0 0 0
2003 4 26.21666971580433 6.622087707056318 1.81683752677508 0 0 0
2009 4 29.493753352079334 6.6220877070563136 1.8168375267750756 0 0 0
2004 4 24.578127897665947 9.460125386396312 1.8168375267750807 0 0 0
2010 4 27.855211533940953 9.460125386396316 1.8168375267750863 0 0 0
2185 1 24.57812151808887 11.35214334250462 0.9383385700755535 0 0 0
2191 1 27.855205154363855 11.352143342504627 0.9383385700755573 0 0 0
2013 5 31.132295313014097 7.568100399525897 0.05919052865351012 0 0 0
2019 5 34.4093789492891 7.568100399525905 0.059190528653518246 0 0 0
2012 1 32.770830608778596 8.514105663164598 0.9383385700755518 0 0 0
2014 5 32.77083713115257 10.406138078865894 0.059190528653502494 0 0 0
2015 4 32.77083698835432 6.62208770705632 1.8168375267750818 0 0 0
2016 4 31.132295170215944 9.460125386396316 1.8168375267750871 0 0 0
2022 4 34.40937880649095 9.460125386396312 1.8168375267750798 0 0 0
2197 1 31.132288790638842 11.352143342504634 0.9383385700755591 0 0 0
2203 1 34.409372426913876 11.352143342504622 0.9383385700755549 0 0 0
2025 5 37.6864625855641 7.568100399525896 0.05919052865350908 0 0 0
2031 5 40.9635462218391 7.568100399525906 0.05919052865351851 0 0 0
2018 1 36.04791424505356 8.514105663164598 0.9383385700755519 0 0 0
2024 1 39.3249978813286 8.514105663164598 0.9383385700755518 0 0 0
2020 5 36.04792076742756 10.406138078865899 0.05919052865350738 0 0 0
2026 5 39.32500440370257 10.406138078865894 0.05919052865350363 0 0 0
2021 4 36.047920624629334 6.622087707056314 1.8168375267750765 0 0 0
2027 4 39.32500426090432 6.622087707056319 1.8168375267750805 0 0 0
2028 4 37.68646244276595 9.460125386396317 1.816837526775088 0 0 0
2034 4 40.96354607904095 9.460125386396312 1.8168375267750796 0 0 0
2209 1 37.68645606318886 11.352143342504634 0.9383385700755591 0 0 0
2215 1 40.96353969946388 11.352143342504622 0.9383385700755549 0 0 0
2037 5 44.24062985811411 7.568100399525899 0.05919052865351156 0 0 0
2043 5 47.5177134943891 7.568100399525896 0.05919052865350903 0 0 0
2030 1 42.60208151760356 8.514105663164596 0.9383385700755514 0 0 0
2036 1 45.87916515387856 8.514105663164596 0.9383385700755519 0 0 0
2032 5 42.602088039977566 10.406138078865899 0.05919052865350751 0 0 0
2038 5 45.87917167625257 10.406138078865895 0.059190528653503126 0 0 0
2033 4 42.60208789717933 6.622087707056318 1.8168375267750805 0 0 0
2039 4 45.87917153345433 6.622087707056314 1.8168375267750767 0 0 0
2040 4 44.24062971531596 9.460125386396316 1.8168375267750865 0 0 0
2046 4 47.51771335159095 9.460125386396317 1.8168375267750883 0 0 0
2221 1 44.24062333573887 11.352143342504627 0.9383385700755575 0 0 0
2227 1 47.517706972013855 11.352143342504636 0.9383385700755594 0 0 0
1863 5 50.7947971306641 7.568100399525902 0.0591905286535162 -1 0 0
2042 1 49.1562487901536 8.514105663164598 0.9383385700755539 0 0 0
1862 1 52.433332426428585 8.514105663164596 0.9383385700755513 -1 0 0
2044 5 49.15625531252757 10.406138078865894 0.05919052865350235 0 0 0
1864 5 52.433338948802565 10.406138078865899 0.059190528653508954 -1 0 0
2045 4 49.15625516972932 6.622087707056318 1.8168375267750798 0 0 0
1865 4 52.43333880600433 6.622087707056316 1.8168375267750771 -1 0 0
1866 4 50.79479698786594 9.460125386396314 1.8168375267750823 -1 0 0
2047 1 50.79479060828888 11.352143342504625 0.9383385700755561 -1 0 0
1869 5 54.0718807669391 7.568100399525901 0.05919052865351395 -1 0 0
1875 5 57.34896440321411 7.568100399525903 0.05919052865351625 -1 0 0
1868 1 55.71041606270359 8.514105663164594 0.9383385700755486 -1 0 0
1874 1 58.98749969897856 8.514105663164598 0.9383385700755537 -1 0 0
1870 5 55.71042258507757 10.406138078865897 0.059190528653506914 -1 0 0
1876 5 58.987506221352575 10.406138078865897 0.05919052865350572 -1 0 0
1871 4 55.71042244227933 6.622087707056318 1.8168375267750791 -1 0 0
1877 4 58.98750607855434 6.622087707056316 1.8168375267750785 -1 0 0
1872 4 54.07188062414095 9.460125386396316 1.8168375267750838 -1 0 0
1878 4 57.34896426041596 9.460125386396314 1.816837526775082 -1 0 0
2053 1 54.071874244563865 11.352143342504627 0.9383385700755563 -1 0 0
2059 1 57.34895788083887 11.352143342504625 0.9383385700755558 -1 0 0
1881 5 60.62604803948911 7.568100399525896 0.05919052865350935 -1 0 0
1887 5 63.90313167576411 7.568100399525902 0.059190528653515796 -1 0 0
1880 1 62.26458333525358 8.514105663164596 0.9383385700755521 -1 0 0
1886 1 65.54166697152857 8.5141056631646 0.938338570075554 -1 0 0
1882 5 62.26458985762758 10.406138078865894 0.05919052865350157 -1 0 0
1888 5 65.54167349390256 10.406138078865895 0.05919052865350479 -1 0 0
1883 4 62.264589714829334 6.622087707056316 1.8168375267750787 -1 0 0
1889 4 65.54167335110432 6.62208770705632 1.8168375267750816 -1 0 0
1884 4 60.626047896690956 9.460125386396317 1.8168375267750883 -1 0 0
1890 4 63.90313153296595 9.460125386396312 1.8168375267750816 -1 0 0
2065 1 60.626041517113855 11.35214334250463 0.9383385700755579 -1 0 0
2071 1 63.90312515338887 11.352143342504629 0.9383385700755549 -1 0 0
1893 5 67.18021531203911 7.5681003995259 0.05919052865351154 -1 0 0
1899 5 70.4572989483141 7.568100399525897 0.05919052865351141 -1 0 0
1892 1 68.81875060780358 8.514105663164594 0.9383385700755471 -1 0 0
1894 5 68.81875713017756 10.406138078865899 0.05919052865350758 -1 0 0
1895 4 68.81875698737933 6.622087707056315 1.8168375267750767 -1 0 0
1896 4 67.18021516924095 9.460125386396317 1.8168375267750865 -1 0 0
1902 4 70.45729880551595 9.460125386396316 1.816837526775086 -1 0 0
2077 1 67.18020878966388 11.352143342504622 0.9383385700755548 -1 0 0
2083 1 70.45729242593885 11.352143342504638 0.9383385700755636 -1 0 0
1905 5 73.7343825845891 7.568100399525904 0.059190528653516095 -1 0 0
1911 5 77.01146622086412 7.568100399525902 0.059190528653516185 -1 0 0
1898 1 72.0958342440786 8.5141056631646 0.9383385700755564 -1 0 0
1904 1 75.37291788035357 8.514105663164596 0.938338570075551 -1 0 0
1900 5 72.09584076645258 10.406138078865894 0.059190528653503736 -1 0 0
1906 5 75.37292440272758 10.4061380788659 0.059190528653509676 -1 0 0
1901 4 72.09584062365433 6.622087707056319 1.8168375267750807 -1 0 0
1907 4 75.37292425992933 6.622087707056317 1.8168375267750785 -1 0 0
1908 4 73.73438244179094 9.460125386396314 1.816837526775082 -1 0 0
1914 4 77.01146607806596 9.460125386396312 1.816837526775082 -1 0 0
2089 1 73.73437606221387 11.352143342504618 0.9383385700755502 -1 0 0
2095 1 77.01145969848885 11.35214334250463 0.9383385700755613 -1 0 0
1917 5 80.28854985713912 7.568100399525898 0.05919052865351128 -1 0 0
1923 5 83.56563349341411 7.5681003995259 0.059190528653511376 -1 0 0
1910 1 78.65000151662855 8.514105663164592 0.9383385700755477 -1 0 0
1916 1 81.92708515290357 8.5141056631646 0.9383385700755563 -1 0 0
1912 5 78.65000803900257 10.40613807886589 0.05919052865349693 -1 0 0
1918 5 81.92709167527757 10.406138078865899 0.05919052865350764 -1 0 0
1913 4 78.65000789620433 6.6220877070563215 1.8168375267750834 -1 0 0
1919 4 81.92709153247931 6.622087707056314 1.8168375267750765 -1 0 0
1920 4 80.28854971434096 9.460125386396316 1.816837526775086 -1 0 0
1926 4 83.56563335061595 9.460125386396317 1.8168375267750867 -1 0 0
2101 1 80.28854333476392 11.352143342504634 0.9383385700755591 -1 0 0
2107 1 83.56562697103888 11.352143342504618 0.9383385700755499 -1 0 0
1929 5 86.84271712968909 7.5681003995258935 0.05919052865350685 -1 0 0
1922 1 85.20416878917858 8.514105663164592 0.9383385700755467 -1 0 0
1928 1 88.48125242545363 8.514105663164596 0.9383385700755512 -1 0 0
1924 5 85.20417531155256 10.406138078865899 0.05919052865350779 -1 0 0
1930 5 88.48125894782758 10.406138078865899 0.059190528653508066 -1 0 0
1925 4 85.20417516875433 6.622087707056314 1.8168375267750758 -1 0 0
1931 4 88.48125880502934 6.622087707056314 1.8168375267750767 -1 0 0
1932 4 86.84271698689095 9.46012538639632 1.8168375267750903 -1 0 0
2113 1 86.84271060731385 11.352143342504634 0.93833857007556 -1 0 0
1935 5 90.11980076596409 7.568100399525904 0.059190528653516435 -1 0 0
1941 5 93.39688440223911 7.568100399525908 0.05919052865352098 -1 0 0
1934 1 91.7583360617286 8.5141056631646 0.9383385700755558 -1 0 0
1940 1 95.03541969800354 8.514105663164592 0.9383385700755474 -1 0 0
1936 5 91.75834258410258 10.406138078865895 0.05919052865350577 -1 0 0
1942 5 95.03542622037756 10.406138078865887 0.059190528653494126 -1 0 0
1937 4 91.75834244130435 6.6220877070563215 1.8168375267750827 -1 0 0
1943 4 95.03542607757932 6.622087707056327 1.8168375267750896 -1 0 0
1938 4 90.11980062316593 9.460125386396314 1.8168375267750823 -1 0 0
1944 4 93.39688425944095 9.460125386396307 1.816837526775077 -1 0 0
2119 1 90.11979424358883 11.352143342504625 0.9383385700755593 -1 0 0
2125 1 93.39687787986385 11.352143342504629 0.9383385700755559 -1 0 0
1952 1 101.58958697055357 8.514105663164596 0.9383385700755529 -1 0 0
1947 5 96.67396803851413 7.568100399525906 0.05919052865352035 -1 0 0
1953 5 99.95105167478913 7.56810039952589 0.059190528653502474 -1 0 0
1946 1 98.31250333427849 8.514105663164596 0.9383385700755515 -1 0 0
1948 5 98.31250985665255 10.406138078865897 0.059190528653505534 -1 0 0
1949 4 98.31250971385431 6.622087707056313 1.8168375267750745 -1 0 0
1950 4 96.67396789571599 9.460125386396308 1.8168375267750767 -1 0 0
1956 4 99.95105153199097 9.460125386396323 1.8168375267750954 -1 0 0
2131 1 96.67396151613892 11.352143342504624 0.9383385700755523 -1 0 0
2137 1 99.95104515241391 11.352143342504638 0.9383385700755645 -1 0 0
2145 5 1.6385425865391037 13.244175758205879 0.05919052865350391 0 0 0
2144 1 3.2770778823035775 14.190181021844666 0.9383385700755521 0 0 0
2151 5 4.915626222814102 13.24417575820588 0.059190528653506054 0 0 0
2140 5 7.684025558627293e-07 16.08221343754588 0.05919052865352072 0 0 0
2146 5 3.277084404677565 16.082213437545878 0.059190528653519994 0 0 0
2147 4 3.277084261879327 12.298163065736292 1.816837526775085 0 0 0
2148 4 1.6385424437409486 15.136200745076298 1.8168375267750787 0 0 0
2154 4 4.915626080015948 15.136200745076298 1.816837526775076 0 0 0
2141 4 6.256043008079359e-07 12.298163065736286 1.816837526775082 0 0 0
2329 1 1.6385360641638755 17.028218701184617 0.9383385700755466 0 0 0
2335 1 4.915619700438861 17.028218701184617 0.9383385700755513 0 0 0
2150 1 6.554161518578577 14.190181021844666 0.938338570075552 0 0 0
2157 5 8.192709859089106 13.244175758205882 0.05919052865350693 0 0 0
2156 1 9.831245154853558 14.190181021844666 0.9383385700755542 0 0 0
2163 5 11.469793495364112 13.24417575820588 0.05919052865350528 0 0 0
2152 5 6.554168040952567 16.082213437545878 0.05919052865351738 0 0 0
2158 5 9.831251677227566 16.082213437545878 0.059190528653517406 0 0 0
2153 4 6.5541678981543265 12.298163065736293 1.8168375267750871 0 0 0
2159 4 9.831251534429333 12.29816306573629 1.8168375267750847 0 0 0
2160 4 8.192709716290953 15.136200745076295 1.8168375267750756 0 0 0
2166 4 11.469793352565956 15.136200745076295 1.8168375267750774 0 0 0
2341 1 8.192703336713867 17.028218701184617 0.9383385700755504 0 0 0
2347 1 11.469786972988855 17.028218701184628 0.9383385700755532 0 0 0
2162 1 13.108328791128562 14.190181021844666 0.9383385700755525 0 0 0
2169 5 14.74687713163911 13.244175758205882 0.05919052865350613 0 0 0
2168 1 16.38541242740356 14.190181021844666 0.9383385700755534 0 0 0
2164 5 13.108335313502568 16.082213437545875 0.05919052865351424 0 0 0
2170 5 16.385418949777563 16.08221343754588 0.05919052865352018 0 0 0
2165 4 13.108335170704324 12.298163065736293 1.816837526775088 0 0 0
2171 4 16.385418806979327 12.29816306573629 1.816837526775085 0 0 0
2172 4 14.746876988840956 15.136200745076296 1.8168375267750767 0 0 0
2353 1 14.746870609263881 17.028218701184617 0.9383385700755494 0 0 0
2175 5 18.02396076791411 13.244175758205879 0.05919052865350331 0 0 0
2174 1 19.66249606367856 14.190181021844664 0.9383385700755524 0 0 0
2181 5 21.3010444041891 13.244175758205877 0.059190528653502446 0 0 0
2180 1 22.93957969995359 14.190181021844667 0.9383385700755549 0 0 0
2176 5 19.66250258605257 16.082213437545878 0.059190528653516726 0 0 0
2182 5 22.939586222327573 16.082213437545875 0.05919052865351413 0 0 0
2177 4 19.662502443254336 12.298163065736288 1.8168375267750823 0 0 0
2183 4 22.939586079529324 12.298163065736293 1.816837526775088 0 0 0
2178 4 18.023960625115954 15.136200745076298 1.8168375267750787 0 0 0
2184 4 21.30104426139095 15.136200745076298 1.8168375267750794 0 0 0
2359 1 18.023954245538857 17.028218701184617 0.9383385700755527 0 0 0
2365 1 21.301037881813844 17.028218701184624 0.9383385700755555 0 0 0
2187 5 24.5781280404641 13.244175758205886 0.05919052865350892 0 0 0
2186 1 26.216663336228557 14.190181021844666 0.9383385700755531 0 0 0
2193 5 27.85521167673911 13.24417575820588 0.05919052865350341 0 0 0
2192 1 29.49374697250356 14.190181021844664 0.9383385700755524 0 0 0
2188 5 26.216669858602565 16.08221343754588 0.05919052865351934 0 0 0
2194 5 29.49375349487757 16.082213437545878 0.05919052865351665 0 0 0
2189 4 26.21666971580433 12.298163065736292 1.816837526775087 0 0 0
2195 4 29.493753352079334 12.298163065736288 1.8168375267750823 0 0 0
2190 4 24.578127897665947 15.136200745076293 1.8168375267750743 0 0 0
2196 4 27.855211533940953 15.136200745076298 1.8168375267750785 0 0 0
2371 1 24.57812151808887 17.028218701184617 0.9383385700755486 0 0 0
2377 1 27.855205154363855 17.028218701184617 0.9383385700755527 0 0 0