LAMMPS data file via write_data, version 29 Aug 2024, timestep = 2, units = metal

6696 atoms
6 atom types

0 101.589592724525 xlo xhi
0 102.16935645624 ylo yhi
-50 50 zlo zhi

Masses

1 44.955908
2 44.955908
3 15.999
4 15.999
5 15.999
6 15.999

Atoms # atomic

1773 4 1.6385425860671028 1.892025042501468 0.05917911608500622 0 0 0
1772 1 3.2770779385067823 2.838029965760317 0.9383264487598398 0 0 0
1779 4 4.915626222342102 1.8920250425014695 0.05917911608500845 0 0 0
1768 4 7.679305380914718e-07 4.730062721841474 0.05917911608501768 0 0 0
1774 4 3.2770844042055485 4.730062721841471 0.05917911608501485 0 0 0
1775 3 3.277084208666532 0.9460124797940647 1.8168426068448502 0 0 0
1776 3 1.6385423905281653 3.7840501591340683 1.8168426068448482 0 0 0
1782 3 4.915626026803165 3.784050159134065 1.8168426068448458 0 0 0
1769 3 5.723915137423319e-07 0.9460124797940578 1.8168426068448436 0 0 0
1957 1 1.6385361203671038 5.676067645100294 0.9383264487598353 0 0 0
1963 1 4.915619756642094 5.676067645100297 0.9383264487598384 0 0 0
1778 1 6.55416157478178 2.838029965760317 0.9383264487598393 0 0 0
1785 4 8.192709858617105 1.892025042501471 0.05917911608500876 0 0 0
1784 1 9.831245211056764 2.838029965760318 0.9383264487598402 0 0 0
1791 4 11.46979349489211 1.8920250425014695 0.059179116085008546 0 0 0
1780 4 6.554168040480552 4.7300627218414695 0.05917911608501269 0 0 0
1786 4 9.831251676755551 4.73006272184147 0.059179116085013264 0 0 0
1781 3 6.5541678449415315 0.9460124797940667 1.8168426068448529 0 0 0
1787 3 9.831251481216537 0.9460124797940638 1.8168426068448504 0 0 0
1788 3 8.192709663078169 3.7840501591340647 1.8168426068448456 0 0 0
1794 3 11.469793299353173 3.7840501591340656 1.8168426068448456 0 0 0
1969 1 8.192703392917098 5.676067645100295 0.9383264487598368 0 0 0
1975 1 11.469787029192085 5.6760676451003 0.9383264487598403 0 0 0
1790 1 13.108328847331764 2.8380299657603154 0.9383264487598391 0 0 0
1797 4 14.746877131167109 1.8920250425014702 0.059179116085008615 0 0 0
1796 1 16.385412483606764 2.838029965760318 0.93832644875984 0 0 0
1792 4 13.108335313030553 4.730062721841467 0.05917911608500972 0 0 0
1798 4 16.38541894930555 4.730062721841472 0.05917911608501561 0 0 0
1793 3 13.108335117491528 0.9460124797940686 1.8168426068448538 0 0 0
1799 3 16.38541875376653 0.9460124797940637 1.8168426068448502 0 0 0
1800 3 14.746876935628173 3.784050159134066 1.8168426068448462 0 0 0
1981 1 14.746870665467114 5.676067645100295 0.9383264487598366 0 0 0
1803 4 18.02396076744211 1.892025042501468 0.059179116085006006 0 0 0
1802 1 19.662496119881766 2.8380299657603176 0.9383264487598397 0 0 0
1809 4 21.3010444037171 1.8920250425014657 0.05917911608500521 0 0 0
1808 1 22.939579756156796 2.838029965760317 0.9383264487598398 0 0 0
1804 4 19.662502585580555 4.730062721841468 0.05917911608501077 0 0 0
1810 4 22.939586221855553 4.730062721841467 0.05917911608501106 0 0 0
1805 3 19.66250239004154 0.9460124797940622 1.8168426068448493 0 0 0
1811 3 22.939586026316526 0.9460124797940669 1.8168426068448524 0 0 0
1806 3 18.02396057190317 3.7840501591340665 1.8168426068448482 0 0 0
1812 3 21.301044208178162 3.784050159134068 1.8168426068448487 0 0 0
1987 1 18.02395430174209 5.676067645100298 0.9383264487598386 0 0 0
1993 1 21.301037938017082 5.676067645100304 0.9383264487598418 0 0 0
1815 4 24.5781280399921 1.8920250425014733 0.05917911608501157 0 0 0
1814 1 26.216663392431766 2.8380299657603176 0.9383264487598398 0 0 0
1821 4 27.855211676267107 1.8920250425014682 0.05917911608500613 0 0 0
1820 1 29.493747028706764 2.8380299657603176 0.9383264487598397 0 0 0
1816 4 26.216669858130548 4.730062721841471 0.0591791160850148 0 0 0
1822 4 29.493753494405553 4.730062721841468 0.05917911608501077 0 0 0
1817 3 26.216669662591535 0.946012479794066 1.8168426068448527 0 0 0
1823 3 29.493753298866537 0.9460124797940622 1.8168426068448493 0 0 0
1818 3 24.578127844453164 3.7840501591340634 1.8168426068448427 0 0 0
1824 3 27.85521148072817 3.7840501591340665 1.816842606844848 0 0 0
1999 1 24.578121574292105 5.676067645100291 0.9383264487598352 0 0 0
2005 1 27.85520521056709 5.676067645100298 0.9383264487598385 0 0 0
1827 4 31.132295312542098 1.8920250425014657 0.05917911608500521 0 0 0
1826 1 32.770830664981794 2.838029965760317 0.9383264487598398 0 0 0
1833 4 34.4093789488171 1.892025042501474 0.05917911608501242 0 0 0
1828 4 32.770837130680555 4.730062721841467 0.05917911608501106 0 0 0
1829 3 32.770836935141524 0.9460124797940669 1.8168426068448524 0 0 0
1830 3 31.13229511700316 3.784050159134068 1.8168426068448487 0 0 0
1836 3 34.40937875327816 3.784050159134063 1.8168426068448418 0 0 0
2011 1 31.13228884684208 5.676067645100304 0.9383264487598418 0 0 0
2017 1 34.4093724831171 5.67606764510029 0.9383264487598342 0 0 0
1832 1 36.04791430125676 2.8380299657603176 0.9383264487598395 0 0 0
1839 4 37.6864625850921 1.892025042501465 0.05917911608500414 0 0 0
1838 1 39.3249979375318 2.838029965760317 0.9383264487598398 0 0 0
1845 4 40.9635462213671 1.8920250425014742 0.05917911608501267 0 0 0
1834 4 36.04792076695555 4.730062721841471 0.0591791160850148 0 0 0
1840 4 39.32500440323056 4.730062721841467 0.05917911608501106 0 0 0
1835 3 36.04792057141654 0.9460124797940624 1.8168426068448489 0 0 0
1841 3 39.32500420769153 0.9460124797940669 1.8168426068448524 0 0 0
1842 3 37.686462389553164 3.7840501591340683 1.8168426068448498 0 0 0
1848 3 40.963546025828165 3.7840501591340625 1.8168426068448416 0 0 0
2023 1 37.68645611939208 5.676067645100304 0.9383264487598426 0 0 0
2029 1 40.96353975566711 5.67606764510029 0.9383264487598342 0 0 0
1844 1 42.60208157380676 2.8380299657603176 0.9383264487598396 0 0 0
1851 4 44.24062985764211 1.8920250425014682 0.059179116085006124 0 0 0
1850 1 45.87916521008176 2.8380299657603176 0.9383264487598396 0 0 0
1857 4 47.5177134939171 1.8920250425014649 0.059179116085003945 0 0 0
1846 4 42.60208803950555 4.730062721841471 0.059179116085014805 0 0 0
1852 4 45.879171675780555 4.730062721841468 0.05917911608501078 0 0 0
1847 3 42.60208784396654 0.946012479794066 1.8168426068448527 0 0 0
1853 3 45.87917148024154 0.946012479794062 1.816842606844849 0 0 0
1854 3 44.240629662103174 3.7840501591340665 1.8168426068448482 0 0 0
1860 3 47.51771329837816 3.7840501591340683 1.81684260684485 0 0 0
2035 1 44.24062339194209 5.676067645100298 0.9383264487598383 0 0 0
2041 1 47.51770702821708 5.6760676451003045 0.9383264487598431 0 0 0
1856 1 49.156248846356796 2.8380299657603154 0.9383264487598374 0 0 0
1677 4 50.794797130192094 1.8920250425014713 0.0591791160850103 -1 0 0
1676 1 52.43333248263179 2.838029965760317 0.9383264487598398 -1 0 0
1858 4 49.156255312055556 4.730062721841467 0.05917911608500995 0 0 0
1678 4 52.43333894833055 4.730062721841472 0.05917911608501598 -1 0 0
1859 3 49.156255116516526 0.9460124797940663 1.816842606844852 0 0 0
1679 3 52.433338752791535 0.9460124797940643 1.8168426068448496 -1 0 0
1680 3 50.794796934653164 3.7840501591340643 1.8168426068448442 -1 0 0
1861 1 50.794790664492105 5.676067645100295 0.9383264487598372 -1 0 0
1683 4 54.0718807664671 1.8920250425014695 0.0591791160850085 -1 0 0
1682 1 55.710416118906785 2.8380299657603185 0.9383264487598418 -1 0 0
1689 4 57.34896440274211 1.8920250425014724 0.05917911608501055 -1 0 0
1688 1 58.987499755181766 2.838029965760316 0.9383264487598374 -1 0 0
1684 4 55.71042258460556 4.730062721841468 0.05917911608501157 -1 0 0
1690 4 58.987506220880555 4.730062721841472 0.059179116085015415 -1 0 0
1685 3 55.71042238906654 0.9460124797940673 1.816842606844854 -1 0 0
1691 3 58.987506025341546 0.9460124797940627 1.8168426068448487 -1 0 0
1686 3 54.071880570928165 3.784050159134065 1.8168426068448458 -1 0 0
1692 3 57.348964207203174 3.784050159134064 1.8168426068448438 -1 0 0
1867 1 54.07187430076709 5.676067645100298 0.9383264487598385 -1 0 0
1873 1 57.34895793704211 5.676067645100293 0.9383264487598347 -1 0 0
1695 4 60.62604803901711 1.8920250425014653 0.05917911608500381 -1 0 0
1694 1 62.26458339145679 2.838029965760317 0.9383264487598402 -1 0 0
1701 4 63.9031316752921 1.8920250425014697 0.059179116085008414 -1 0 0
1700 1 65.54166702773178 2.8380299657603185 0.9383264487598418 -1 0 0
1696 4 62.264589857155556 4.730062721841465 0.059179116085006644 -1 0 0
1702 4 65.54167349343055 4.730062721841469 0.059179116085011745 -1 0 0
1697 3 62.26458966161653 0.9460124797940666 1.8168426068448538 -1 0 0
1703 3 65.54167329789152 0.9460124797940678 1.816842606844854 -1 0 0
1698 3 60.626047843478176 3.7840501591340687 1.8168426068448498 -1 0 0
1704 3 63.90313147975316 3.784050159134065 1.8168426068448453 -1 0 0
1879 1 60.62604157331708 5.676067645100301 0.938326448759842 -1 0 0
1885 1 63.90312520959211 5.676067645100297 0.9383264487598371 -1 0 0
1707 4 67.18021531156711 1.8920250425014724 0.05917911608501075 -1 0 0
1706 1 68.81875066400676 2.8380299657603176 0.9383264487598395 -1 0 0
1713 4 70.4572989478421 1.892025042501463 0.0591791160850019 -1 0 0
1708 4 68.81875712970555 4.730062721841475 0.05917911608502017 -1 0 0
1709 3 68.81875693416654 0.9460124797940591 1.8168426068448447 -1 0 0
1710 3 67.18021511602818 3.7840501591340647 1.8168426068448442 -1 0 0
1716 3 70.45729875230317 3.78405015913407 1.816842606844852 -1 0 0
1891 1 67.18020884586711 5.676067645100292 0.9383264487598362 -1 0 0
1897 1 70.45729248214207 5.676067645100305 0.938326448759845 -1 0 0
1712 1 72.09583430028181 2.8380299657603176 0.9383264487598401 -1 0 0
1719 4 73.7343825841171 1.892025042501476 0.05917911608501481 -1 0 0
1718 1 75.37291793655676 2.838029965760314 0.9383264487598351 -1 0 0
1725 4 77.01146622039212 1.892025042501472 0.05917911608501014 -1 0 0
1714 4 72.09584076598055 4.730062721841463 0.05917911608500661 -1 0 0
1720 4 75.37292440225555 4.730062721841473 0.059179116085016414 -1 0 0
1715 3 72.09584057044152 0.9460124797940707 1.816842606844857 -1 0 0
1721 3 75.37292420671653 0.9460124797940649 1.8168426068448509 -1 0 0
1722 3 73.73438238857817 3.7840501591340607 1.8168426068448391 -1 0 0
1728 3 77.01146602485319 3.7840501591340625 1.816842606844844 -1 0 0
1903 1 73.73437611841712 5.6760676451002885 0.9383264487598315 -1 0 0
1909 1 77.0114597546921 5.676067645100298 0.9383264487598382 -1 0 0
1724 1 78.65000157283174 2.8380299657603203 0.9383264487598449 -1 0 0
1731 4 80.28854985666712 1.8920250425014664 0.059179116085006506 -1 0 0
1730 1 81.92708520910676 2.838029965760318 0.9383264487598397 -1 0 0
1737 4 83.56563349294213 1.8920250425014686 0.0591791160850057 -1 0 0
1726 4 78.65000803853054 4.7300627218414615 0.059179116085004556 -1 0 0
1732 4 81.92709167480554 4.730062721841472 0.05917911608501518 -1 0 0
1727 3 78.65000784299153 0.946012479794069 1.8168426068448555 -1 0 0
1733 3 81.92709147926651 0.9460124797940626 1.8168426068448489 -1 0 0
1734 3 80.28854966112819 3.7840501591340665 1.8168426068448476 -1 0 0
1740 3 83.56563329740318 3.7840501591340687 1.8168426068448482 -1 0 0
1915 1 80.28854339096716 5.676067645100306 0.9383264487598453 -1 0 0
1921 1 83.56562702724213 5.6760676451002885 0.9383264487598316 -1 0 0
1736 1 85.20416884538176 2.8380299657603176 0.9383264487598396 -1 0 0
1743 4 86.84271712921709 1.8920250425014593 0.05917911608499702 -1 0 0
1742 1 88.48125248165684 2.8380299657603176 0.9383264487598396 -1 0 0
1738 4 85.20417531108055 4.730062721841475 0.05917911608502038 -1 0 0
1744 4 88.48125894735557 4.730062721841472 0.059179116085015124 -1 0 0
1739 3 85.20417511554155 0.9460124797940582 1.816842606844844 -1 0 0
1745 3 88.48125875181655 0.9460124797940621 1.8168426068448489 -1 0 0
1746 3 86.84271693367816 3.7840501591340745 1.8168426068448564 -1 0 0
1927 1 86.84271066351707 5.676067645100302 0.9383264487598406 -1 0 0
1749 4 90.11980076549209 1.8920250425014762 0.05917911608501555 -1 0 0
1748 1 91.75833611793179 2.838029965760317 0.9383264487598398 -1 0 0
1755 4 93.39688440176712 1.892025042501477 0.059179116085014936 -1 0 0
1754 1 95.03541975420673 2.8380299657603167 0.9383264487598402 -1 0 0
1750 4 91.75834258363057 4.730062721841465 0.05917911608500807 -1 0 0
1756 4 95.03542621990555 4.730062721841462 0.05917911608500655 -1 0 0
1751 3 91.75834238809155 0.9460124797940738 1.8168426068448593 -1 0 0
1757 3 95.03542602436653 0.9460124797940715 1.8168426068448573 -1 0 0
1752 3 90.11980056995316 3.7840501591340603 1.8168426068448393 -1 0 0
1758 3 93.39688420622818 3.784050159134058 1.816842606844839 -1 0 0
1933 1 90.11979429979205 5.676067645100295 0.9383264487598407 -1 0 0
1939 1 93.3968779360671 5.676067645100294 0.9383264487598335 -1 0 0
1766 1 101.58958702675677 2.8380299657603154 0.9383264487598377 -1 0 0
1761 4 96.67396803804213 1.8920250425014715 0.05917911608501047 -1 0 0
1760 1 98.31250339048171 2.838029965760317 0.9383264487598397 -1 0 0
1767 4 99.95105167431713 1.8920250425014626 0.059179116085001836 -1 0 0
1762 4 98.31250985618053 4.730062721841467 0.05917911608500873 -1 0 0
1763 3 98.31250966064152 0.9460124797940642 1.8168426068448518 -1 0 0
1764 3 96.6739678425032 3.784050159134063 1.816842606844844 -1 0 0
1770 3 99.95105147877818 3.784050159134072 1.8168426068448547 -1 0 0
1945 1 96.67396157234215 5.676067645100299 0.9383264487598381 -1 0 0
1951 1 99.95104520861715 5.676067645100306 0.938326448759845 -1 0 0
1959 4 1.6385425860671021 7.56810040118148 0.059179116085011196 0 0 0
1965 4 4.915626222342101 7.568100401181482 0.05917911608501297 0 0 0
1958 1 3.2770779385067828 8.51410532444028 0.9383264487598367 0 0 0
1954 4 7.679305385948929e-07 10.406138080521483 0.05917911608500993 0 0 0
1960 4 3.2770844042055485 10.40613808052148 0.05917911608500744 0 0 0
1961 3 3.277084208666532 6.622087838474078 1.8168426068448464 0 0 0
1962 3 1.6385423905281653 9.460125517814078 1.8168426068448542 0 0 0
1968 3 4.915626026803164 9.460125517814076 1.8168426068448522 0 0 0
1955 3 5.723915137423319e-07 6.622087838474071 1.8168426068448391 0 0 0
2143 1 1.638536120367103 11.352143003780304 0.9383264487598377 0 0 0
2149 1 4.915619756642094 11.35214300378031 0.938326448759841 0 0 0
1971 4 8.192709858617105 7.568100401181483 0.05917911608501397 0 0 0
1977 4 11.469793494892109 7.568100401181482 0.059179116085012876 0 0 0
1964 1 6.554161574781783 8.51410532444028 0.9383264487598371 0 0 0
1970 1 9.831245211056766 8.514105324440278 0.9383264487598362 0 0 0
1966 4 6.554168040480552 10.406138080521478 0.059179116085005395 0 0 0
1972 4 9.831251676755551 10.40613808052148 0.059179116085005465 0 0 0
1967 3 6.554167844941531 6.62208783847408 1.8168426068448484 0 0 0
1973 3 9.831251481216537 6.622087838474077 1.8168426068448462 0 0 0
1974 3 8.192709663078167 9.460125517814076 1.8168426068448513 0 0 0
1980 3 11.469793299353173 9.460125517814076 1.8168426068448518 0 0 0
2155 1 8.192703392917098 11.352143003780306 0.9383264487598393 0 0 0
2161 1 11.469787029192085 11.352143003780313 0.9383264487598441 0 0 0
1983 4 14.746877131167109 7.568100401181482 0.05917911608501353 0 0 0
1976 1 13.108328847331766 8.51410532444028 0.938326448759837 0 0 0
1982 1 16.385412483606764 8.51410532444028 0.9383264487598376 0 0 0
1978 4 13.108335313030553 10.406138080521476 0.05917911608500195 0 0 0
1984 4 16.38541894930555 10.406138080521481 0.05917911608500792 0 0 0
1979 3 13.10833511749153 6.622087838474082 1.8168426068448498 0 0 0
1985 3 16.38541875376653 6.622087838474077 1.816842606844846 0 0 0
1986 3 14.746876935628173 9.460125517814076 1.8168426068448522 0 0 0
2167 1 14.746870665467114 11.352143003780306 0.9383264487598395 0 0 0
1989 4 18.02396076744211 7.56810040118148 0.0591791160850108 0 0 0
1995 4 21.3010444037171 7.5681004011814785 0.05917911608500986 0 0 0
1988 1 19.662496119881766 8.514105324440278 0.9383264487598367 0 0 0
1994 1 22.939579756156796 8.514105324440278 0.938326448759837 0 0 0
1990 4 19.662502585580555 10.406138080521478 0.05917911608500414 0 0 0
1996 4 22.939586221855556 10.406138080521476 0.05917911608500209 0 0 0
1991 3 19.66250239004154 6.622087838474076 1.8168426068448447 0 0 0
1997 3 22.939586026316526 6.622087838474081 1.8168426068448487 0 0 0
1992 3 18.02396057190317 9.460125517814078 1.8168426068448544 0 0 0
1998 3 21.301044208178165 9.460125517814078 1.8168426068448549 0 0 0
2173 1 18.02395430174209 11.35214300378031 0.9383264487598413 0 0 0
2179 1 21.30103793801708 11.352143003780316 0.9383264487598456 0 0 0
2001 4 24.5781280399921 7.5681004011814865 0.0591791160850165 0 0 0
2007 4 27.855211676267107 7.56810040118148 0.05917911608501094 0 0 0
2000 1 26.216663392431766 8.51410532444028 0.9383264487598371 0 0 0
2006 1 29.493747028706764 8.514105324440278 0.9383264487598367 0 0 0
2002 4 26.216669858130548 10.406138080521481 0.05917911608500748 0 0 0
2008 4 29.493753494405553 10.406138080521478 0.05917911608500413 0 0 0
2003 3 26.216669662591535 6.62208783847408 1.8168426068448484 0 0 0
2009 3 29.493753298866537 6.622087838474076 1.8168426068448447 0 0 0
2004 3 24.578127844453164 9.460125517814074 1.816842606844849 0 0 0
2010 3 27.85521148072817 9.460125517814078 1.8168426068448542 0 0 0
2185 1 24.578121574292105 11.352143003780302 0.9383264487598377 0 0 0
2191 1 27.85520521056709 11.35214300378031 0.9383264487598412 0 0 0
2013 4 31.132295312542098 7.5681004011814785 0.05917911608500986 0 0 0
2019 4 34.4093789488171 7.5681004011814865 0.059179116085017344 0 0 0
2012 1 32.770830664981794 8.514105324440278 0.938326448759837 0 0 0
2014 4 32.770837130680555 10.406138080521476 0.05917911608500209 0 0 0
2015 3 32.770836935141524 6.622087838474081 1.8168426068448484 0 0 0
2016 3 31.132295117003164 9.460125517814078 1.8168426068448549 0 0 0
2022 3 34.40937875327816 9.460125517814074 1.8168426068448482 0 0 0
2197 1 31.132288846842076 11.352143003780316 0.9383264487598456 0 0 0
2203 1 34.4093724831171 11.352143003780302 0.9383264487598367 0 0 0
2025 4 37.6864625850921 7.568100401181478 0.059179116085008567 0 0 0
2031 4 40.9635462213671 7.568100401181486 0.059179116085015415 0 0 0
2018 1 36.04791430125676 8.51410532444028 0.9383264487598371 0 0 0
2024 1 39.3249979375318 8.514105324440278 0.9383264487598368 0 0 0
2020 4 36.04792076695555 10.406138080521481 0.05917911608500709 0 0 0
2026 4 39.32500440323056 10.406138080521476 0.05917911608500336 0 0 0
2021 3 36.04792057141654 6.6220878384740764 1.8168426068448449 0 0 0
2027 3 39.32500420769153 6.622087838474081 1.8168426068448487 0 0 0
2028 3 37.686462389553164 9.46012551781408 1.816842606844856 0 0 0
2034 3 40.963546025828165 9.460125517814074 1.8168426068448502 0 0 0
2209 1 37.68645611939208 11.352143003780316 0.9383264487598464 0 0 0
2215 1 40.96353975566711 11.352143003780302 0.9383264487598362 0 0 0
2037 4 44.24062985764211 7.568100401181482 0.05917911608501313 0 0 0
2043 4 47.5177134939171 7.568100401181478 0.0591791160850084 0 0 0
2030 1 42.60208157380677 8.51410532444028 0.9383264487598367 0 0 0
2036 1 45.87916521008176 8.514105324440278 0.9383264487598371 0 0 0
2032 4 42.602088039505546 10.406138080521481 0.05917911608500748 0 0 0
2038 4 45.879171675780555 10.406138080521478 0.059179116085003064 0 0 0
2033 3 42.60208784396654 6.62208783847408 1.8168426068448484 0 0 0
2039 3 45.87917148024154 6.622087838474076 1.8168426068448449 0 0 0
2040 3 44.240629662103174 9.460125517814076 1.816842606844852 0 0 0
2046 3 47.51771329837817 9.46012551781408 1.816842606844856 0 0 0
2221 1 44.24062339194209 11.35214300378031 0.9383264487598414 0 0 0
2227 1 47.51770702821708 11.352143003780316 0.9383264487598466 0 0 0
1863 4 50.794797130192094 7.568100401181484 0.05917911608501526 -1 0 0
2042 1 49.156248846356796 8.514105324440276 0.9383264487598343 0 0 0
1862 1 52.43333248263179 8.51410532444028 0.9383264487598365 -1 0 0
2044 4 49.156255312055556 10.406138080521476 0.059179116085001995 0 0 0
1864 4 52.43333894833055 10.406138080521481 0.05917911608500848 -1 0 0
2045 3 49.156255116516526 6.62208783847408 1.816842606844848 0 0 0
1865 3 52.433338752791535 6.622087838474077 1.8168426068448456 -1 0 0
1866 3 50.794796934653164 9.460125517814076 1.8168426068448502 -1 0 0
2047 1 50.794790664492105 11.352143003780306 0.9383264487598404 -1 0 0
1869 4 54.0718807664671 7.568100401181482 0.059179116085013236 -1 0 0
1875 4 57.34896440274211 7.568100401181485 0.059179116085015394 -1 0 0
1868 1 55.71041611890679 8.514105324440282 0.9383264487598391 -1 0 0
1874 1 58.987499755181766 8.514105324440278 0.9383264487598347 -1 0 0
1870 4 55.71042258460555 10.406138080521478 0.05917911608500431 -1 0 0
1876 4 58.987506220880555 10.406138080521481 0.05917911608500752 -1 0 0
1871 3 55.71042238906654 6.62208783847408 1.8168426068448496 -1 0 0
1877 3 58.987506025341546 6.6220878384740764 1.8168426068448444 -1 0 0
1872 3 54.071880570928165 9.460125517814076 1.816842606844852 -1 0 0
1878 3 57.348964207203174 9.460125517814074 1.8168426068448496 -1 0 0
2053 1 54.07187430076709 11.35214300378031 0.9383264487598408 -1 0 0
2059 1 57.34895793704211 11.352143003780304 0.9383264487598378 -1 0 0
1881 4 60.62604803901711 7.5681004011814785 0.05917911608500851 -1 0 0
1887 4 63.9031316752921 7.568100401181482 0.059179116085012716 -1 0 0
1880 1 62.26458339145679 8.51410532444028 0.9383264487598368 -1 0 0
1886 1 65.54166702773179 8.514105324440278 0.9383264487598343 -1 0 0
1882 4 62.264589857155556 10.406138080521472 0.05917911608499874 -1 0 0
1888 4 65.54167349343055 10.406138080521478 0.05917911608500456 -1 0 0
1883 3 62.26458966161653 6.62208783847408 1.8168426068448493 -1 0 0
1889 3 65.54167329789152 6.622087838474081 1.8168426068448498 -1 0 0
1884 3 60.626047843478176 9.460125517814078 1.8168426068448564 -1 0 0
1890 3 63.90313147975316 9.460125517814076 1.816842606844852 -1 0 0
2065 1 60.62604157331708 11.352143003780315 0.9383264487598448 -1 0 0
2071 1 63.90312520959211 11.352143003780311 0.9383264487598401 -1 0 0
1893 4 67.18021531156711 7.568100401181485 0.059179116085015596 -1 0 0
1899 4 70.4572989478421 7.568100401181476 0.05917911608500673 -1 0 0
1892 1 68.81875066400676 8.514105324440282 0.9383264487598415 -1 0 0
1894 4 68.81875712970555 10.406138080521485 0.0591791160850117 -1 0 0
1895 3 68.81875693416654 6.622087838474073 1.8168426068448402 -1 0 0
1896 3 67.18021511602818 9.460125517814074 1.8168426068448502 -1 0 0
1902 3 70.45729875230317 9.460125517814081 1.8168426068448584 -1 0 0
2077 1 67.18020884586711 11.352143003780304 0.9383264487598388 -1 0 0
2083 1 70.45729248214207 11.352143003780318 0.9383264487598486 -1 0 0
1905 4 73.7343825841171 7.568100401181489 0.059179116085019766 -1 0 0
1911 4 77.01146622039212 7.568100401181484 0.05917911608501531 -1 0 0
1898 1 72.09583430028181 8.514105324440278 0.9383264487598366 -1 0 0
1904 1 75.37291793655676 8.514105324440276 0.9383264487598321 -1 0 0
1900 4 72.09584076598057 10.406138080521472 0.05917911608499895 -1 0 0
1906 4 75.37292440225555 10.406138080521481 0.0591791160850089 -1 0 0
1901 3 72.09584057044152 6.622087838474084 1.816842606844853 -1 0 0
1907 3 75.37292420671653 6.622087838474078 1.8168426068448464 -1 0 0
1908 3 73.73438238857817 9.46012551781407 1.8168426068448456 -1 0 0
1914 3 77.01146602485319 9.460125517814074 1.8168426068448504 -1 0 0
2089 1 73.73437611841712 11.3521430037803 0.9383264487598342 -1 0 0
2095 1 77.0114597546921 11.35214300378031 0.9383264487598413 -1 0 0
1917 4 80.28854985666712 7.568100401181479 0.05917911608501101 -1 0 0
1923 4 83.56563349294211 7.568100401181481 0.05917911608501076 -1 0 0
1910 1 78.65000157283174 8.514105324440282 0.9383264487598414 -1 0 0
1916 1 81.92708520910676 8.514105324440276 0.9383264487598324 -1 0 0
1912 4 78.65000803853054 10.40613808052147 0.0591791160849966 -1 0 0
1918 4 81.92709167480554 10.406138080521481 0.05917911608500774 -1 0 0
1913 3 78.65000784299153 6.622087838474082 1.8168426068448515 -1 0 0
1919 3 81.92709147926651 6.6220878384740764 1.8168426068448444 -1 0 0
1920 3 80.28854966112819 9.460125517814078 1.816842606844854 -1 0 0
1926 3 83.56563329740318 9.46012551781408 1.8168426068448544 -1 0 0
2101 1 80.28854339096716 11.352143003780318 0.9383264487598488 -1 0 0
2107 1 83.56562702724213 11.3521430037803 0.9383264487598345 -1 0 0
1929 4 86.84271712921709 7.568100401181473 0.059179116085002384 -1 0 0
1922 1 85.20416884538176 8.514105324440282 0.9383264487598412 -1 0 0
1928 1 88.48125248165684 8.514105324440274 0.9383264487598358 -1 0 0
1924 4 85.20417531108055 10.406138080521485 0.059179116085011925 -1 0 0
1930 4 88.48125894735557 10.406138080521481 0.05917911608500669 -1 0 0
1925 3 85.20417511554155 6.622087838474072 1.8168426068448396 -1 0 0
1931 3 88.48125875181655 6.622087838474077 1.8168426068448442 -1 0 0
1932 3 86.84271693367816 9.460125517814085 1.8168426068448635 -1 0 0
2113 1 86.84271066351707 11.352143003780315 0.9383264487598438 -1 0 0
1935 4 90.11980076549209 7.568100401181489 0.059179116085020717 -1 0 0
1941 4 93.39688440176711 7.568100401181489 0.059179116085020037 -1 0 0
1934 1 91.75833611793179 8.514105324440274 0.9383264487598316 -1 0 0
1940 1 95.03541975420673 8.514105324440282 0.9383264487598412 -1 0 0
1936 4 91.75834258363057 10.406138080521474 0.05917911608500104 -1 0 0
1942 4 95.03542621990555 10.406138080521472 0.05917911608499846 -1 0 0
1937 3 91.75834238809155 6.622087838474087 1.816842606844855 -1 0 0
1943 3 95.03542602436653 6.622087838474084 1.816842606844853 -1 0 0
1938 3 90.11980056995316 9.460125517814072 1.816842606844846 -1 0 0
1944 3 93.39688420622818 9.460125517814069 1.816842606844845 -1 0 0
2119 1 90.11979429979205 11.352143003780307 0.9383264487598435 -1 0 0
2125 1 93.3968779360671 11.352143003780306 0.9383264487598364 -1 0 0
1952 1 101.58958702675677 8.514105324440274 0.9383264487598355 -1 0 0
1947 4 96.67396803804213 7.568100401181484 0.059179116085015866 -1 0 0
1953 4 99.95105167431713 7.568100401181476 0.05917911608500621 -1 0 0
1946 1 98.31250339048171 8.514105324440278 0.9383264487598366 -1 0 0
1948 4 98.31250985618053 10.406138080521476 0.059179116085000566 -1 0 0
1949 3 98.31250966064152 6.622087838474077 1.8168426068448476 -1 0 0
1950 3 96.6739678425032 9.460125517814074 1.8168426068448502 -1 0 0
1956 3 99.95105147877818 9.460125517814083 1.8168426068448607 -1 0 0
2131 1 96.67396157234215 11.35214300378031 0.9383264487598416 -1 0 0
2137 1 99.95104520861715 11.352143003780318 0.9383264487598482 -1 0 0
2145 4 1.638542586067103 13.244175759861461 0.05917911608500326 0 0 0
2144 1 3.277077938506782 14.190180683120348 0.9383264487598378 0 0 0
2151 4 4.915626222342102 13.244175759861463 0.05917911608500549 0 0 0
2140 4 7.679305382115939e-07 16.082213439201464 0.05917911608502134 0 0 0
2146 4 3.277084404205549 16.08221343920146 0.05917911608501911 0 0 0
2147 3 3.277084208666532 12.298163197154052 1.8168426068448529 0 0 0
2148 3 1.638542390528165 15.13620087649406 1.816842606844847 0 0 0
2154 3 4.915626026803165 15.136200876494058 1.8168426068448442 0 0 0
2141 3 5.723915137423319e-07 12.298163197154047 1.8168426068448456 0 0 0
2329 1 1.6385361203671032 17.0282183624603 0.9383264487598338 0 0 0
2335 1 4.915619756642094 17.0282183624603 0.9383264487598371 0 0 0
2150 1 6.55416157478178 14.190180683120348 0.9383264487598375 0 0 0
2157 4 8.192709858617105 13.244175759861465 0.05917911608500574 0 0 0
2156 1 9.831245211056764 14.190180683120348 0.9383264487598395 0 0 0
2163 4 11.46979349489211 13.244175759861463 0.0591791160850053 0 0 0
2152 4 6.554168040480552 16.08221343920146 0.059179116085016935 0 0 0
2158 4 9.831251676755551 16.08221343920146 0.059179116085016775 0 0 0
2153 3 6.554167844941531 12.298163197154055 1.8168426068448553 0 0 0
2159 3 9.831251481216539 12.298163197154052 1.8168426068448529 0 0 0
2160 3 8.192709663078169 15.136200876494057 1.8168426068448444 0 0 0
2166 3 11.469793299353173 15.136200876494057 1.816842606844845 0 0 0
2341 1 8.1927033929171 17.0282183624603 0.9383264487598362 0 0 0
2347 1 11.469787029192085 17.028218362460308 0.9383264487598386 0 0 0
2162 1 13.108328847331764 14.190180683120346 0.938326448759838 0 0 0
2169 4 14.746877131167109 13.244175759861463 0.0591791160850056 0 0 0
2168 1 16.385412483606764 14.190180683120346 0.9383264487598393 0 0 0
2164 4 13.108335313030553 16.082213439201457 0.05917911608501359 0 0 0
2170 4 16.38541894930555 16.082213439201464 0.05917911608501947 0 0 0
2165 3 13.108335117491528 12.298163197154055 1.8168426068448562 0 0 0
2171 3 16.38541875376653 12.298163197154052 1.8168426068448524 0 0 0
2172 3 14.746876935628173 15.136200876494058 1.816842606844845 0 0 0
2353 1 14.746870665467114 17.0282183624603 0.9383264487598351 0 0 0
2175 4 18.02396076744211 13.244175759861461 0.05917911608500304 0 0 0
2174 1 19.662496119881766 14.190180683120346 0.9383264487598391 0 0 0
2181 4 21.3010444037171 13.24417575986146 0.059179116085002134 0 0 0
2180 1 22.939579756156796 14.190180683120346 0.9383264487598388 0 0 0
2176 4 19.662502585580555 16.08221343920146 0.05917911608501501 0 0 0
2182 4 22.939586221855553 16.082213439201457 0.05917911608501437 0 0 0
2177 3 19.662502390041542 12.298163197154048 1.8168426068448504 0 0 0
2183 3 22.93958602631653 12.298163197154055 1.8168426068448562 0 0 0
2178 3 18.02396057190317 15.13620087649406 1.8168426068448467 0 0 0
2184 3 21.301044208178162 15.13620087649406 1.8168426068448473 0 0 0
2359 1 18.02395430174209 17.0282183624603 0.938326448759838 0 0 0
2365 1 21.301037938017082 17.028218362460308 0.9383264487598413 0 0 0
2187 4 24.5781280399921 13.244175759861466 0.05917911608500835 0 0 0
2186 1 26.216663392431766 14.190180683120346 0.938326448759839 0 0 0
2193 4 27.855211676267107 13.244175759861461 0.059179116085003175 0 0 0
2192 1 29.493747028706764 14.190180683120346 0.9383264487598391 0 0 0
2188 4 26.216669858130548 16.08221343920146 0.05917911608501846 0 0 0
2194 4 29.493753494405553 16.08221343920146 0.05917911608501501 0 0 0
2189 3 26.216669662591535 12.298163197154054 1.816842606844855 0 0 0
2195 3 29.49375329886654 12.298163197154048 1.8168426068448504 0 0 0
2190 3 24.578127844453164 15.136200876494055 1.8168426068448424 0 0 0
2196 3 27.85521148072817 15.13620087649406 1.8168426068448464 0 0 0
2371 1 24.578121574292105 17.0282183624603 0.9383264487598338 0 0 0
2377 1 27.85520521056709 17.0282183624603 0.938326448759838 0 0 0