LAMMPS data file via write_data, version 29 Aug 2024, timestep = 0, units = metal

3348 atoms
3 atom types

0 101.589592724525 xlo xhi
0 102.16935645624 ylo yhi
0 16.874715344551 zlo zhi

Masses

1 44.955908
2 15.999
3 15.999

Atoms # atomic

1771 1 1.6385418181374973 0 0.9373067035689999 0 0 0
1777 1 4.915625454412499 0 0.9373067035689999 0 0 0
1783 1 8.1927090906875 0 0.9373067035689999 0 0 0
1789 1 11.469792726962496 0 0.9373067035689999 0 0 0
1795 1 14.746876363237504 0 0.9373067035689999 0 0 0
1801 1 18.0239599995125 0 0.9373067035689999 0 0 0
1807 1 21.301043635787494 0 0.9373067035689999 0 0 0
1813 1 24.578127272062503 0 0.9373067035689999 0 0 0
1819 1 27.855210908337497 0 0.9373067035689999 0 0 0
1825 1 31.132294544612492 0 0.9373067035689999 0 0 0
1831 1 34.4093781808875 0 0.9373067035689999 0 0 0
1837 1 37.686461817162495 0 0.9373067035689999 0 0 0
1843 1 40.963545453437504 0 0.9373067035689999 0 0 0
1849 1 44.2406290897125 0 0.9373067035689999 0 0 0
1855 1 47.517712725987494 0 0.9373067035689999 0 0 0
1675 1 50.7947963622625 0 0.9373067035689999 -1 0 0
1681 1 54.071879998537504 0 0.9373067035689999 -1 0 0
1687 1 57.348963634812506 0 0.9373067035689999 -1 0 0
1693 1 60.6260472710875 0 0.9373067035689999 -1 0 0
1699 1 63.9031309073625 0 0.9373067035689999 -1 0 0
1705 1 67.1802145436375 0 0.9373067035689999 -1 0 0
1711 1 70.4572981799125 0 0.9373067035689999 -1 0 0
1717 1 73.73438181618751 0 0.9373067035689999 -1 0 0
1723 1 77.0114654524625 0 0.9373067035689999 -1 0 0
1729 1 80.28854908873751 0 0.9373067035689999 -1 0 0
1735 1 83.5656327250125 0 0.9373067035689999 -1 0 0
1741 1 86.8427163612875 0 0.9373067035689999 -1 0 0
1747 1 90.1197999975625 0 0.9373067035689999 -1 0 0
1753 1 93.3968836338375 0 0.9373067035689999 -1 0 0
1759 1 96.67396727011251 0 0.9373067035689999 -1 0 0
1765 1 99.95105090638751 0 0.9373067035689999 -1 0 0
1766 1 4.973799150320701e-13 2.8380376793400046 0.9373067035689999 0 0 0
1773 3 1.6385418181374973 1.892025119560003 0 0 0 0
1772 1 3.277083636275499 2.8380376793400046 0.9373067035689999 0 0 0
1779 3 4.915625454412499 1.892025119560003 0 0 0 0
1778 1 6.554167272550501 2.8380376793400046 0.9373067035689999 0 0 0
1785 3 8.1927090906875 1.892025119560003 0 0 0 0
1784 1 9.831250908825496 2.8380376793400046 0.9373067035689999 0 0 0
1791 3 11.469792726962496 1.892025119560003 0 0 0 0
1790 1 13.108334545100497 2.8380376793400046 0.9373067035689999 0 0 0
1797 3 14.746876363237504 1.892025119560003 0 0 0 0
1796 1 16.3854181813755 2.8380376793400046 0.9373067035689999 0 0 0
1803 3 18.0239599995125 1.892025119560003 0 0 0 0
1802 1 19.662501817650494 2.8380376793400046 0.9373067035689999 0 0 0
1809 3 21.301043635787494 1.892025119560003 0 0 0 0
1808 1 22.939585453925503 2.8380376793400046 0.9373067035689999 0 0 0
1815 3 24.578127272062503 1.892025119560003 0 0 0 0
1814 1 26.216669090200497 2.8380376793400046 0.9373067035689999 0 0 0
1821 3 27.855210908337497 1.892025119560003 0 0 0 0
1820 1 29.493752726475492 2.8380376793400046 0.9373067035689999 0 0 0
1827 3 31.132294544612492 1.892025119560003 0 0 0 0
1826 1 32.7708363627505 2.8380376793400046 0.9373067035689999 0 0 0
1833 3 34.4093781808875 1.892025119560003 0 0 0 0
1832 1 36.047919999025495 2.8380376793400046 0.9373067035689999 0 0 0
1839 3 37.686461817162495 1.892025119560003 0 0 0 0
1838 1 39.325003635300504 2.8380376793400046 0.9373067035689999 0 0 0
1845 3 40.963545453437504 1.892025119560003 0 0 0 0
1844 1 42.6020872715755 2.8380376793400046 0.9373067035689999 0 0 0
1851 3 44.2406290897125 1.892025119560003 0 0 0 0
1850 1 45.879170907850494 2.8380376793400046 0.9373067035689999 0 0 0
1857 3 47.517712725987494 1.892025119560003 0 0 0 0
1856 1 49.1562545441255 2.8380376793400046 0.9373067035689999 0 0 0
1677 3 50.7947963622625 1.892025119560003 0 -1 0 0
1676 1 52.433338180400504 2.8380376793400046 0.9373067035689999 -1 0 0
1683 3 54.071879998537504 1.892025119560003 0 -1 0 0
1682 1 55.710421816675506 2.8380376793400046 0.9373067035689999 -1 0 0
1689 3 57.348963634812506 1.892025119560003 0 -1 0 0
1688 1 58.9875054529505 2.8380376793400046 0.9373067035689999 -1 0 0
1695 3 60.6260472710875 1.892025119560003 0 -1 0 0
1694 1 62.2645890892255 2.8380376793400046 0.9373067035689999 -1 0 0
1701 3 63.9031309073625 1.892025119560003 0 -1 0 0
1700 1 65.5416727255005 2.8380376793400046 0.9373067035689999 -1 0 0
1707 3 67.1802145436375 1.892025119560003 0 -1 0 0
1706 1 68.8187563617755 2.8380376793400046 0.9373067035689999 -1 0 0
1713 3 70.4572981799125 1.892025119560003 0 -1 0 0
1712 1 72.09583999805051 2.8380376793400046 0.9373067035689999 -1 0 0
1719 3 73.73438181618751 1.892025119560003 0 -1 0 0
1718 1 75.3729236343255 2.8380376793400046 0.9373067035689999 -1 0 0
1725 3 77.0114654524625 1.892025119560003 0 -1 0 0
1724 1 78.6500072706005 2.8380376793400046 0.9373067035689999 -1 0 0
1731 3 80.28854908873751 1.892025119560003 0 -1 0 0
1730 1 81.9270909068755 2.8380376793400046 0.9373067035689999 -1 0 0
1737 3 83.5656327250125 1.892025119560003 0 -1 0 0
1736 1 85.2041745431505 2.8380376793400046 0.9373067035689999 -1 0 0
1743 3 86.8427163612875 1.892025119560003 0 -1 0 0
1742 1 88.48125817942551 2.8380376793400046 0.9373067035689999 -1 0 0
1749 3 90.1197999975625 1.892025119560003 0 -1 0 0
1748 1 91.7583418157005 2.8380376793400046 0.9373067035689999 -1 0 0
1755 3 93.3968836338375 1.892025119560003 0 -1 0 0
1754 1 95.0354254519755 2.8380376793400046 0.9373067035689999 -1 0 0
1761 3 96.67396727011251 1.892025119560003 0 -1 0 0
1760 1 98.3125090882505 2.8380376793400046 0.9373067035689999 -1 0 0
1767 3 99.95105090638751 1.892025119560003 0 -1 0 0
1768 3 4.973799150320701e-13 4.730062798900001 0 0 0 0
1774 3 3.277083636275499 4.730062798900001 0 0 0 0
1780 3 6.554167272550501 4.730062798900001 0 0 0 0
1786 3 9.831250908825496 4.730062798900001 0 0 0 0
1792 3 13.108334545100497 4.730062798900001 0 0 0 0
1798 3 16.3854181813755 4.730062798900001 0 0 0 0
1804 3 19.662501817650494 4.730062798900001 0 0 0 0
1810 3 22.939585453925503 4.730062798900001 0 0 0 0
1816 3 26.216669090200497 4.730062798900001 0 0 0 0
1822 3 29.493752726475492 4.730062798900001 0 0 0 0
1828 3 32.7708363627505 4.730062798900001 0 0 0 0
1834 3 36.047919999025495 4.730062798900001 0 0 0 0
1840 3 39.325003635300504 4.730062798900001 0 0 0 0
1846 3 42.6020872715755 4.730062798900001 0 0 0 0
1852 3 45.879170907850494 4.730062798900001 0 0 0 0
1858 3 49.1562545441255 4.730062798900001 0 0 0 0
1678 3 52.433338180400504 4.730062798900001 0 -1 0 0
1684 3 55.710421816675506 4.730062798900001 0 -1 0 0
1690 3 58.9875054529505 4.730062798900001 0 -1 0 0
1696 3 62.2645890892255 4.730062798900001 0 -1 0 0
1702 3 65.5416727255005 4.730062798900001 0 -1 0 0
1708 3 68.8187563617755 4.730062798900001 0 -1 0 0
1714 3 72.09583999805051 4.730062798900001 0 -1 0 0
1720 3 75.3729236343255 4.730062798900001 0 -1 0 0
1726 3 78.6500072706005 4.730062798900001 0 -1 0 0
1732 3 81.9270909068755 4.730062798900001 0 -1 0 0
1738 3 85.2041745431505 4.730062798900001 0 -1 0 0
1744 3 88.48125817942551 4.730062798900001 0 -1 0 0
1750 3 91.7583418157005 4.730062798900001 0 -1 0 0
1756 3 95.0354254519755 4.730062798900001 0 -1 0 0
1762 3 98.3125090882505 4.730062798900001 0 -1 0 0
1957 1 1.6385418181374973 5.676075358680002 0.9373067035689999 0 0 0
1963 1 4.915625454412499 5.676075358680002 0.9373067035689999 0 0 0
1969 1 8.1927090906875 5.676075358680002 0.9373067035689999 0 0 0
1975 1 11.469792726962496 5.676075358680002 0.9373067035689999 0 0 0
1981 1 14.746876363237504 5.676075358680002 0.9373067035689999 0 0 0
1987 1 18.0239599995125 5.676075358680002 0.9373067035689999 0 0 0
1993 1 21.301043635787494 5.676075358680002 0.9373067035689999 0 0 0
1999 1 24.578127272062503 5.676075358680002 0.9373067035689999 0 0 0
2005 1 27.855210908337497 5.676075358680002 0.9373067035689999 0 0 0
2011 1 31.132294544612492 5.676075358680002 0.9373067035689999 0 0 0
2017 1 34.4093781808875 5.676075358680002 0.9373067035689999 0 0 0
2023 1 37.686461817162495 5.676075358680002 0.9373067035689999 0 0 0
2029 1 40.963545453437504 5.676075358680002 0.9373067035689999 0 0 0
2035 1 44.2406290897125 5.676075358680002 0.9373067035689999 0 0 0
2041 1 47.517712725987494 5.676075358680002 0.9373067035689999 0 0 0
1861 1 50.7947963622625 5.676075358680002 0.9373067035689999 -1 0 0
1867 1 54.071879998537504 5.676075358680002 0.9373067035689999 -1 0 0
1873 1 57.348963634812506 5.676075358680002 0.9373067035689999 -1 0 0
1879 1 60.6260472710875 5.676075358680002 0.9373067035689999 -1 0 0
1885 1 63.9031309073625 5.676075358680002 0.9373067035689999 -1 0 0
1891 1 67.1802145436375 5.676075358680002 0.9373067035689999 -1 0 0
1897 1 70.4572981799125 5.676075358680002 0.9373067035689999 -1 0 0
1903 1 73.73438181618751 5.676075358680002 0.9373067035689999 -1 0 0
1909 1 77.0114654524625 5.676075358680002 0.9373067035689999 -1 0 0
1915 1 80.28854908873751 5.676075358680002 0.9373067035689999 -1 0 0
1921 1 83.5656327250125 5.676075358680002 0.9373067035689999 -1 0 0
1927 1 86.8427163612875 5.676075358680002 0.9373067035689999 -1 0 0
1933 1 90.1197999975625 5.676075358680002 0.9373067035689999 -1 0 0
1939 1 93.3968836338375 5.676075358680002 0.9373067035689999 -1 0 0
1945 1 96.67396727011251 5.676075358680002 0.9373067035689999 -1 0 0
1951 1 99.95105090638751 5.676075358680002 0.9373067035689999 -1 0 0
1959 3 1.6385418181374973 7.568100478240005 0 0 0 0
1965 3 4.915625454412499 7.568100478240005 0 0 0 0
1971 3 8.1927090906875 7.568100478240005 0 0 0 0
1977 3 11.469792726962496 7.568100478240005 0 0 0 0
1983 3 14.746876363237504 7.568100478240005 0 0 0 0
1989 3 18.0239599995125 7.568100478240005 0 0 0 0
1995 3 21.301043635787494 7.568100478240005 0 0 0 0
2001 3 24.578127272062503 7.568100478240005 0 0 0 0
2007 3 27.855210908337497 7.568100478240005 0 0 0 0
2013 3 31.132294544612492 7.568100478240005 0 0 0 0
2019 3 34.4093781808875 7.568100478240005 0 0 0 0
2025 3 37.686461817162495 7.568100478240005 0 0 0 0
2031 3 40.963545453437504 7.568100478240005 0 0 0 0
2037 3 44.2406290897125 7.568100478240005 0 0 0 0
2043 3 47.517712725987494 7.568100478240005 0 0 0 0
1863 3 50.7947963622625 7.568100478240005 0 -1 0 0
1869 3 54.071879998537504 7.568100478240005 0 -1 0 0
1875 3 57.348963634812506 7.568100478240005 0 -1 0 0
1881 3 60.6260472710875 7.568100478240005 0 -1 0 0
1887 3 63.9031309073625 7.568100478240005 0 -1 0 0
1893 3 67.1802145436375 7.568100478240005 0 -1 0 0
1899 3 70.4572981799125 7.568100478240005 0 -1 0 0
1905 3 73.73438181618751 7.568100478240005 0 -1 0 0
1911 3 77.0114654524625 7.568100478240005 0 -1 0 0
1917 3 80.28854908873751 7.568100478240005 0 -1 0 0
1923 3 83.5656327250125 7.568100478240005 0 -1 0 0
1929 3 86.8427163612875 7.568100478240005 0 -1 0 0
1935 3 90.1197999975625 7.568100478240005 0 -1 0 0
1941 3 93.3968836338375 7.568100478240005 0 -1 0 0
1947 3 96.67396727011251 7.568100478240005 0 -1 0 0
1953 3 99.95105090638751 7.568100478240005 0 -1 0 0
1952 1 4.973799150320701e-13 8.51411303802 0.9373067035689999 0 0 0
1958 1 3.277083636275499 8.51411303802 0.9373067035689999 0 0 0
1964 1 6.554167272550501 8.51411303802 0.9373067035689999 0 0 0
1970 1 9.831250908825496 8.51411303802 0.9373067035689999 0 0 0
1976 1 13.108334545100497 8.51411303802 0.9373067035689999 0 0 0
1982 1 16.3854181813755 8.51411303802 0.9373067035689999 0 0 0
1988 1 19.662501817650494 8.51411303802 0.9373067035689999 0 0 0
1994 1 22.939585453925503 8.51411303802 0.9373067035689999 0 0 0
2000 1 26.216669090200497 8.51411303802 0.9373067035689999 0 0 0
2006 1 29.493752726475492 8.51411303802 0.9373067035689999 0 0 0
2012 1 32.7708363627505 8.51411303802 0.9373067035689999 0 0 0
2018 1 36.047919999025495 8.51411303802 0.9373067035689999 0 0 0
2024 1 39.325003635300504 8.51411303802 0.9373067035689999 0 0 0
2030 1 42.6020872715755 8.51411303802 0.9373067035689999 0 0 0
2036 1 45.879170907850494 8.51411303802 0.9373067035689999 0 0 0
2042 1 49.1562545441255 8.51411303802 0.9373067035689999 0 0 0
1862 1 52.433338180400504 8.51411303802 0.9373067035689999 -1 0 0
1868 1 55.710421816675506 8.51411303802 0.9373067035689999 -1 0 0
1874 1 58.9875054529505 8.51411303802 0.9373067035689999 -1 0 0
1880 1 62.2645890892255 8.51411303802 0.9373067035689999 -1 0 0
1886 1 65.5416727255005 8.51411303802 0.9373067035689999 -1 0 0
1892 1 68.8187563617755 8.51411303802 0.9373067035689999 -1 0 0
1898 1 72.09583999805051 8.51411303802 0.9373067035689999 -1 0 0
1904 1 75.3729236343255 8.51411303802 0.9373067035689999 -1 0 0
1910 1 78.6500072706005 8.51411303802 0.9373067035689999 -1 0 0
1916 1 81.9270909068755 8.51411303802 0.9373067035689999 -1 0 0
1922 1 85.2041745431505 8.51411303802 0.9373067035689999 -1 0 0
1928 1 88.48125817942551 8.51411303802 0.9373067035689999 -1 0 0
1934 1 91.7583418157005 8.51411303802 0.9373067035689999 -1 0 0
1940 1 95.0354254519755 8.51411303802 0.9373067035689999 -1 0 0
1946 1 98.3125090882505 8.51411303802 0.9373067035689999 -1 0 0
1954 3 4.973799150320701e-13 10.406138157580003 0 0 0 0
2143 1 1.6385418181374973 11.352150717360004 0.9373067035689999 0 0 0
1960 3 3.277083636275499 10.406138157580003 0 0 0 0
2149 1 4.915625454412499 11.352150717360004 0.9373067035689999 0 0 0
1966 3 6.554167272550501 10.406138157580003 0 0 0 0
2155 1 8.1927090906875 11.352150717360004 0.9373067035689999 0 0 0
1972 3 9.831250908825496 10.406138157580003 0 0 0 0
2161 1 11.469792726962496 11.352150717360004 0.9373067035689999 0 0 0
1978 3 13.108334545100497 10.406138157580003 0 0 0 0
2167 1 14.746876363237504 11.352150717360004 0.9373067035689999 0 0 0
1984 3 16.3854181813755 10.406138157580003 0 0 0 0
2173 1 18.0239599995125 11.352150717360004 0.9373067035689999 0 0 0
1990 3 19.662501817650494 10.406138157580003 0 0 0 0
2179 1 21.301043635787494 11.352150717360004 0.9373067035689999 0 0 0
1996 3 22.939585453925503 10.406138157580003 0 0 0 0
2185 1 24.578127272062503 11.352150717360004 0.9373067035689999 0 0 0
2002 3 26.216669090200497 10.406138157580003 0 0 0 0
2191 1 27.855210908337497 11.352150717360004 0.9373067035689999 0 0 0
2008 3 29.493752726475492 10.406138157580003 0 0 0 0
2197 1 31.132294544612492 11.352150717360004 0.9373067035689999 0 0 0
2014 3 32.7708363627505 10.406138157580003 0 0 0 0
2203 1 34.4093781808875 11.352150717360004 0.9373067035689999 0 0 0
2020 3 36.047919999025495 10.406138157580003 0 0 0 0
2209 1 37.686461817162495 11.352150717360004 0.9373067035689999 0 0 0
2026 3 39.325003635300504 10.406138157580003 0 0 0 0
2215 1 40.963545453437504 11.352150717360004 0.9373067035689999 0 0 0
2032 3 42.6020872715755 10.406138157580003 0 0 0 0
2221 1 44.2406290897125 11.352150717360004 0.9373067035689999 0 0 0
2038 3 45.879170907850494 10.406138157580003 0 0 0 0
2227 1 47.517712725987494 11.352150717360004 0.9373067035689999 0 0 0
2044 3 49.1562545441255 10.406138157580003 0 0 0 0
2047 1 50.7947963622625 11.352150717360004 0.9373067035689999 -1 0 0
1864 3 52.433338180400504 10.406138157580003 0 -1 0 0
2053 1 54.071879998537504 11.352150717360004 0.9373067035689999 -1 0 0
1870 3 55.710421816675506 10.406138157580003 0 -1 0 0
2059 1 57.348963634812506 11.352150717360004 0.9373067035689999 -1 0 0
1876 3 58.9875054529505 10.406138157580003 0 -1 0 0
2065 1 60.6260472710875 11.352150717360004 0.9373067035689999 -1 0 0
1882 3 62.2645890892255 10.406138157580003 0 -1 0 0
2071 1 63.9031309073625 11.352150717360004 0.9373067035689999 -1 0 0
1888 3 65.5416727255005 10.406138157580003 0 -1 0 0
2077 1 67.1802145436375 11.352150717360004 0.9373067035689999 -1 0 0
1894 3 68.8187563617755 10.406138157580003 0 -1 0 0
2083 1 70.4572981799125 11.352150717360004 0.9373067035689999 -1 0 0
1900 3 72.09583999805051 10.406138157580003 0 -1 0 0
2089 1 73.73438181618751 11.352150717360004 0.9373067035689999 -1 0 0
1906 3 75.3729236343255 10.406138157580003 0 -1 0 0
2095 1 77.0114654524625 11.352150717360004 0.9373067035689999 -1 0 0
1912 3 78.6500072706005 10.406138157580003 0 -1 0 0
2101 1 80.28854908873751 11.352150717360004 0.9373067035689999 -1 0 0
1918 3 81.9270909068755 10.406138157580003 0 -1 0 0
2107 1 83.5656327250125 11.352150717360004 0.9373067035689999 -1 0 0
1924 3 85.2041745431505 10.406138157580003 0 -1 0 0
2113 1 86.8427163612875 11.352150717360004 0.9373067035689999 -1 0 0
1930 3 88.48125817942551 10.406138157580003 0 -1 0 0
2119 1 90.1197999975625 11.352150717360004 0.9373067035689999 -1 0 0
1936 3 91.7583418157005 10.406138157580003 0 -1 0 0
2125 1 93.3968836338375 11.352150717360004 0.9373067035689999 -1 0 0
1942 3 95.0354254519755 10.406138157580003 0 -1 0 0
2131 1 96.67396727011251 11.352150717360004 0.9373067035689999 -1 0 0
1948 3 98.3125090882505 10.406138157580003 0 -1 0 0
2137 1 99.95105090638751 11.352150717360004 0.9373067035689999 -1 0 0
2138 1 4.973799150320701e-13 14.190188396700009 0.9373067035689999 0 0 0
2145 3 1.6385418181374973 13.244175836920007 0 0 0 0
2144 1 3.277083636275499 14.190188396700009 0.9373067035689999 0 0 0
2151 3 4.915625454412499 13.244175836920007 0 0 0 0
2150 1 6.554167272550501 14.190188396700009 0.9373067035689999 0 0 0
2157 3 8.1927090906875 13.244175836920007 0 0 0 0
2156 1 9.831250908825496 14.190188396700009 0.9373067035689999 0 0 0
2163 3 11.469792726962496 13.244175836920007 0 0 0 0
2162 1 13.108334545100497 14.190188396700009 0.9373067035689999 0 0 0
2169 3 14.746876363237504 13.244175836920007 0 0 0 0
2168 1 16.3854181813755 14.190188396700009 0.9373067035689999 0 0 0
2175 3 18.0239599995125 13.244175836920007 0 0 0 0
2174 1 19.662501817650494 14.190188396700009 0.9373067035689999 0 0 0
2181 3 21.301043635787494 13.244175836920007 0 0 0 0
2180 1 22.939585453925503 14.190188396700009 0.9373067035689999 0 0 0
2187 3 24.578127272062503 13.244175836920007 0 0 0 0
2186 1 26.216669090200497 14.190188396700009 0.9373067035689999 0 0 0
2193 3 27.855210908337497 13.244175836920007 0 0 0 0
2192 1 29.493752726475492 14.190188396700009 0.9373067035689999 0 0 0
2199 3 31.132294544612492 13.244175836920007 0 0 0 0
2198 1 32.7708363627505 14.190188396700009 0.9373067035689999 0 0 0
2205 3 34.4093781808875 13.244175836920007 0 0 0 0
2204 1 36.047919999025495 14.190188396700009 0.9373067035689999 0 0 0
2211 3 37.686461817162495 13.244175836920007 0 0 0 0
2210 1 39.325003635300504 14.190188396700009 0.9373067035689999 0 0 0
2217 3 40.963545453437504 13.244175836920007 0 0 0 0
2216 1 42.6020872715755 14.190188396700009 0.9373067035689999 0 0 0
2223 3 44.2406290897125 13.244175836920007 0 0 0 0
2222 1 45.879170907850494 14.190188396700009 0.9373067035689999 0 0 0
2229 3 47.517712725987494 13.244175836920007 0 0 0 0
2228 1 49.1562545441255 14.190188396700009 0.9373067035689999 0 0 0
2049 3 50.7947963622625 13.244175836920007 0 -1 0 0
2048 1 52.433338180400504 14.190188396700009 0.9373067035689999 -1 0 0
2055 3 54.071879998537504 13.244175836920007 0 -1 0 0
2054 1 55.710421816675506 14.190188396700009 0.9373067035689999 -1 0 0
2061 3 57.348963634812506 13.244175836920007 0 -1 0 0
2060 1 58.9875054529505 14.190188396700009 0.9373067035689999 -1 0 0
2067 3 60.6260472710875 13.244175836920007 0 -1 0 0
2066 1 62.2645890892255 14.190188396700009 0.9373067035689999 -1 0 0
2073 3 63.9031309073625 13.244175836920007 0 -1 0 0
2072 1 65.5416727255005 14.190188396700009 0.9373067035689999 -1 0 0
2079 3 67.1802145436375 13.244175836920007 0 -1 0 0
2078 1 68.8187563617755 14.190188396700009 0.9373067035689999 -1 0 0
2085 3 70.4572981799125 13.244175836920007 0 -1 0 0
2084 1 72.09583999805051 14.190188396700009 0.9373067035689999 -1 0 0
2091 3 73.73438181618751 13.244175836920007 0 -1 0 0
2090 1 75.3729236343255 14.190188396700009 0.9373067035689999 -1 0 0
2097 3 77.0114654524625 13.244175836920007 0 -1 0 0
2096 1 78.6500072706005 14.190188396700009 0.9373067035689999 -1 0 0
2103 3 80.28854908873751 13.244175836920007 0 -1 0 0
2102 1 81.9270909068755 14.190188396700009 0.9373067035689999 -1 0 0
2109 3 83.5656327250125 13.244175836920007 0 -1 0 0
2108 1 85.2041745431505 14.190188396700009 0.9373067035689999 -1 0 0
2115 3 86.8427163612875 13.244175836920007 0 -1 0 0
2114 1 88.48125817942551 14.190188396700009 0.9373067035689999 -1 0 0
2121 3 90.1197999975625 13.244175836920007 0 -1 0 0
2120 1 91.7583418157005 14.190188396700009 0.9373067035689999 -1 0 0
2127 3 93.3968836338375 13.244175836920007 0 -1 0 0
2126 1 95.0354254519755 14.190188396700009 0.9373067035689999 -1 0 0
2133 3 96.67396727011251 13.244175836920007 0 -1 0 0
2132 1 98.3125090882505 14.190188396700009 0.9373067035689999 -1 0 0
2139 3 99.95105090638751 13.244175836920007 0 -1 0 0
2140 3 4.973799150320701e-13 16.082213516259998 0 0 0 0
2146 3 3.277083636275499 16.082213516259998 0 0 0 0
2152 3 6.554167272550501 16.082213516259998 0 0 0 0
2158 3 9.831250908825496 16.082213516259998 0 0 0 0
2164 3 13.108334545100497 16.082213516259998 0 0 0 0
2170 3 16.3854181813755 16.082213516259998 0 0 0 0
2176 3 19.662501817650494 16.082213516259998 0 0 0 0
2182 3 22.939585453925503 16.082213516259998 0 0 0 0
2188 3 26.216669090200497 16.082213516259998 0 0 0 0
2194 3 29.493752726475492 16.082213516259998 0 0 0 0
2200 3 32.7708363627505 16.082213516259998 0 0 0 0
2206 3 36.047919999025495 16.082213516259998 0 0 0 0
2212 3 39.325003635300504 16.082213516259998 0 0 0 0
2218 3 42.6020872715755 16.082213516259998 0 0 0 0
2224 3 45.879170907850494 16.082213516259998 0 0 0 0
2230 3 49.1562545441255 16.082213516259998 0 0 0 0
2050 3 52.433338180400504 16.082213516259998 0 -1 0 0
2056 3 55.710421816675506 16.082213516259998 0 -1 0 0
2062 3 58.9875054529505 16.082213516259998 0 -1 0 0
2068 3 62.2645890892255 16.082213516259998 0 -1 0 0
2074 3 65.5416727255005 16.082213516259998 0 -1 0 0
2080 3 68.8187563617755 16.082213516259998 0 -1 0 0
2086 3 72.09583999805051 16.082213516259998 0 -1 0 0
2092 3 75.3729236343255 16.082213516259998 0 -1 0 0
2098 3 78.6500072706005 16.082213516259998 0 -1 0 0
2104 3 81.9270909068755 16.082213516259998 0 -1 0 0
2110 3 85.2041745431505 16.082213516259998 0 -1 0 0
2116 3 88.48125817942551 16.082213516259998 0 -1 0 0
2122 3 91.7583418157005 16.082213516259998 0 -1 0 0
2128 3 95.0354254519755 16.082213516259998 0 -1 0 0
2134 3 98.3125090882505 16.082213516259998 0 -1 0 0
2329 1 1.6385418181374973 17.02822607604 0.9373067035689999 0 0 0
2335 1 4.915625454412499 17.02822607604 0.9373067035689999 0 0 0
2341 1 8.1927090906875 17.02822607604 0.9373067035689999 0 0 0
2347 1 11.469792726962496 17.02822607604 0.9373067035689999 0 0 0
2353 1 14.746876363237504 17.02822607604 0.9373067035689999 0 0 0
2359 1 18.0239599995125 17.02822607604 0.9373067035689999 0 0 0
2365 1 21.301043635787494 17.02822607604 0.9373067035689999 0 0 0
2371 1 24.578127272062503 17.02822607604 0.9373067035689999 0 0 0
2377 1 27.855210908337497 17.02822607604 0.9373067035689999 0 0 0
2383 1 31.132294544612492 17.02822607604 0.9373067035689999 0 0 0
2389 1 34.4093781808875 17.02822607604 0.9373067035689999 0 0 0
2395 1 37.686461817162495 17.02822607604 0.9373067035689999 0 0 0
2401 1 40.963545453437504 17.02822607604 0.9373067035689999 0 0 0
2407 1 44.2406290897125 17.02822607604 0.9373067035689999 0 0 0
2413 1 47.517712725987494 17.02822607604 0.9373067035689999 0 0 0
2233 1 50.7947963622625 17.02822607604 0.9373067035689999 -1 0 0
2239 1 54.071879998537504 17.02822607604 0.9373067035689999 -1 0 0
2245 1 57.348963634812506 17.02822607604 0.9373067035689999 -1 0 0
2251 1 60.6260472710875 17.02822607604 0.9373067035689999 -1 0 0
2257 1 63.9031309073625 17.02822607604 0.9373067035689999 -1 0 0
2263 1 67.1802145436375 17.02822607604 0.9373067035689999 -1 0 0
2269 1 70.4572981799125 17.02822607604 0.9373067035689999 -1 0 0
2275 1 73.73438181618751 17.02822607604 0.9373067035689999 -1 0 0
2281 1 77.0114654524625 17.02822607604 0.9373067035689999 -1 0 0
2287 1 80.28854908873751 17.02822607604 0.9373067035689999 -1 0 0
2293 1 83.5656327250125 17.02822607604 0.9373067035689999 -1 0 0
2299 1 86.8427163612875 17.02822607604 0.9373067035689999 -1 0 0
2305 1 90.1197999975625 17.02822607604 0.9373067035689999 -1 0 0
2311 1 93.3968836338375 17.02822607604 0.9373067035689999 -1 0 0
2317 1 96.67396727011251 17.02822607604 0.9373067035689999 -1 0 0
2323 1 99.95105090638751 17.02822607604 0.9373067035689999 -1 0 0
2331 3 1.6385418181374973 18.920251195600002 0 0 0 0
2337 3 4.915625454412499 18.920251195600002 0 0 0 0
2343 3 8.1927090906875 18.920251195600002 0 0 0 0
2349 3 11.469792726962496 18.920251195600002 0 0 0 0
2355 3 14.746876363237504 18.920251195600002 0 0 0 0
2361 3 18.0239599995125 18.920251195600002 0 0 0 0
2367 3 21.301043635787494 18.920251195600002 0 0 0 0
2373 3 24.578127272062503 18.920251195600002 0 0 0 0
2379 3 27.855210908337497 18.920251195600002 0 0 0 0
2385 3 31.132294544612492 18.920251195600002 0 0 0 0
2391 3 34.4093781808875 18.920251195600002 0 0 0 0
2397 3 37.686461817162495 18.920251195600002 0 0 0 0
2403 3 40.963545453437504 18.920251195600002 0 0 0 0
2409 3 44.2406290897125 18.920251195600002 0 0 0 0
2415 3 47.517712725987494 18.920251195600002 0 0 0 0
2235 3 50.7947963622625 18.920251195600002 0 -1 0 0
2241 3 54.071879998537504 18.920251195600002 0 -1 0 0
2247 3 57.348963634812506 18.920251195600002 0 -1 0 0
2253 3 60.6260472710875 18.920251195600002 0 -1 0 0
2259 3 63.9031309073625 18.920251195600002 0 -1 0 0
2265 3 67.1802145436375 18.920251195600002 0 -1 0 0
2271 3 70.4572981799125 18.920251195600002 0 -1 0 0
2277 3 73.73438181618751 18.920251195600002 0 -1 0 0
2283 3 77.0114654524625 18.920251195600002 0 -1 0 0
2289 3 80.28854908873751 18.920251195600002 0 -1 0 0
2295 3 83.5656327250125 18.920251195600002 0 -1 0 0
2301 3 86.8427163612875 18.920251195600002 0 -1 0 0
2307 3 90.1197999975625 18.920251195600002 0 -1 0 0
2313 3 93.3968836338375 18.920251195600002 0 -1 0 0
2319 3 96.67396727011251 18.920251195600002 0 -1 0 0
2325 3 99.95105090638751 18.920251195600002 0 -1 0 0
2324 1 4.973799150320701e-13 19.866263755380004 0.9373067035689999 0 0 0
2330 1 3.277083636275499 19.866263755380004 0.9373067035689999 0 0 0
2336 1 6.554167272550501 19.866263755380004 0.9373067035689999 0 0 0
2342 1 9.831250908825496 19.866263755380004 0.9373067035689999 0 0 0
2348 1 13.108334545100497 19.866263755380004 0.9373067035689999 0 0 0
2354 1 16.3854181813755 19.866263755380004 0.9373067035689999 0 0 0
2360 1 19.662501817650494 19.866263755380004 0.9373067035689999 0 0 0
2366 1 22.939585453925503 19.866263755380004 0.9373067035689999 0 0 0
2372 1 26.216669090200497 19.866263755380004 0.9373067035689999 0 0 0
2378 1 29.493752726475492 19.866263755380004 0.9373067035689999 0 0 0
2384 1 32.7708363627505 19.866263755380004 0.9373067035689999 0 0 0
2390 1 36.047919999025495 19.866263755380004 0.9373067035689999 0 0 0
2396 1 39.325003635300504 19.866263755380004 0.9373067035689999 0 0 0
2402 1 42.6020872715755 19.866263755380004 0.9373067035689999 0 0 0
2408 1 45.879170907850494 19.866263755380004 0.9373067035689999 0 0 0
2414 1 49.1562545441255 19.866263755380004 0.9373067035689999 0 0 0
2234 1 52.433338180400504 19.866263755380004 0.9373067035689999 -1 0 0
2240 1 55.710421816675506 19.866263755380004 0.9373067035689999 -1 0 0
2246 1 58.9875054529505 19.866263755380004 0.9373067035689999 -1 0 0
2252 1 62.2645890892255 19.866263755380004 0.9373067035689999 -1 0 0
2258 1 65.5416727255005 19.866263755380004 0.9373067035689999 -1 0 0
2264 1 68.8187563617755 19.866263755380004 0.9373067035689999 -1 0 0
2270 1 72.09583999805051 19.866263755380004 0.9373067035689999 -1 0 0
2276 1 75.3729236343255 19.866263755380004 0.9373067035689999 -1 0 0
2282 1 78.6500072706005 19.866263755380004 0.9373067035689999 -1 0 0
2288 1 81.9270909068755 19.866263755380004 0.9373067035689999 -1 0 0
2294 1 85.2041745431505 19.866263755380004 0.9373067035689999 -1 0 0
2300 1 88.48125817942551 19.866263755380004 0.9373067035689999 -1 0 0
2306 1 91.7583418157005 19.866263755380004 0.9373067035689999 -1 0 0
2312 1 95.0354254519755 19.866263755380004 0.9373067035689999 -1 0 0
2318 1 98.3125090882505 19.866263755380004 0.9373067035689999 -1 0 0
2326 3 4.973799150320701e-13 21.758288874940007 0 0 0 0
2515 1 1.6385418181374973 22.70430143472001 0.9373067035689999 0 0 0
2332 3 3.277083636275499 21.758288874940007 0 0 0 0
2521 1 4.915625454412499 22.70430143472001 0.9373067035689999 0 0 0
2338 3 6.554167272550501 21.758288874940007 0 0 0 0
2527 1 8.1927090906875 22.70430143472001 0.9373067035689999 0 0 0
2344 3 9.831250908825496 21.758288874940007 0 0 0 0
2533 1 11.469792726962496 22.70430143472001 0.9373067035689999 0 0 0
2350 3 13.108334545100497 21.758288874940007 0 0 0 0
2539 1 14.746876363237504 22.70430143472001 0.9373067035689999 0 0 0
2356 3 16.3854181813755 21.758288874940007 0 0 0 0
2545 1 18.0239599995125 22.70430143472001 0.9373067035689999 0 0 0
2362 3 19.662501817650494 21.758288874940007 0 0 0 0
2551 1 21.301043635787494 22.70430143472001 0.9373067035689999 0 0 0
2368 3 22.939585453925503 21.758288874940007 0 0 0 0
2557 1 24.578127272062503 22.70430143472001 0.9373067035689999 0 0 0
2374 3 26.216669090200497 21.758288874940007 0 0 0 0
2563 1 27.855210908337497 22.70430143472001 0.9373067035689999 0 0 0
2380 3 29.493752726475492 21.758288874940007 0 0 0 0
2569 1 31.132294544612492 22.70430143472001 0.9373067035689999 0 0 0
2386 3 32.7708363627505 21.758288874940007 0 0 0 0
2575 1 34.4093781808875 22.70430143472001 0.9373067035689999 0 0 0
2392 3 36.047919999025495 21.758288874940007 0 0 0 0
2581 1 37.686461817162495 22.70430143472001 0.9373067035689999 0 0 0
2398 3 39.325003635300504 21.758288874940007 0 0 0 0
2587 1 40.963545453437504 22.70430143472001 0.9373067035689999 0 0 0
2404 3 42.6020872715755 21.758288874940007 0 0 0 0
2593 1 44.2406290897125 22.70430143472001 0.9373067035689999 0 0 0
2410 3 45.879170907850494 21.758288874940007 0 0 0 0
2599 1 47.517712725987494 22.70430143472001 0.9373067035689999 0 0 0
2416 3 49.1562545441255 21.758288874940007 0 0 0 0
2419 1 50.7947963622625 22.70430143472001 0.9373067035689999 -1 0 0
2236 3 52.433338180400504 21.758288874940007 0 -1 0 0
2425 1 54.071879998537504 22.70430143472001 0.9373067035689999 -1 0 0