LAMMPS data file via write_data, version 29 Aug 2024, timestep = 6, units = metal

6032 atoms
16 atom types

0 101.114 xlo xhi
0 98.31 ylo yhi
-50 111.51555577249813 zlo zhi

Masses

1 12.011
2 12.011
3 12.011
4 12.011
5 12.011
6 12.011
7 12.011
8 12.011
9 127.6
10 127.6
11 127.6
12 127.6
13 127.6
14 127.6
15 127.6
16 127.6

Atoms # atomic

1613 3 0.23813177208225086 1.6054481513652368 0.14814177255594851 0 0 0
1617 1 4.1271317720822545 1.6054481513652359 0.1481417725559484 0 0 0
1616 12 2.8350811325534018 3.3011141115500156 -0.2139516565766366 0 0 0
1717 3 0.23813177208225217 4.995448151365236 0.14814177255594843 0 0 0
1721 1 4.127131772082255 4.995448151365236 0.1481417725559487 0 0 0
1614 4 2.189061054928761 3.3016652709371077 1.8663375559197188 0 0 0
1621 3 8.016131772082257 1.6054481513652359 0.14814177255594907 0 0 0
1620 10 6.724081132553404 3.3011141115500156 -0.21395165657663703 0 0 0
1624 12 10.6130811325534 3.3011141115500156 -0.2139516565766371 0 0 0
1725 3 8.016131772082257 4.995448151365236 0.14814177255594893 0 0 0
1618 2 6.078061054928764 3.3016652709371077 1.8663375559197184 0 0 0
1622 4 9.967061054928763 3.3016652709371077 1.866337555919719 0 0 0
1625 1 11.905131772082253 1.6054481513652359 0.1481417725559485 0 0 0
1729 1 11.905131772082255 4.995448151365236 0.14814177255594801 0 0 0
1629 3 15.794131772082252 1.6054481513652357 0.1481417725559484 0 0 0
1628 10 14.5020811325534 3.3011141115500156 -0.21395165657663762 0 0 0
1733 3 15.794131772082254 4.995448151365236 0.14814177255594854 0 0 0
1626 2 13.85606105492876 3.301665270937108 1.8663375559197182 0 0 0
1630 4 17.745061054928758 3.301665270937108 1.86633755591972 0 0 0
1633 1 19.683131772082255 1.6054481513652368 0.1481417725559493 0 0 0
1637 3 23.57213177208225 1.6054481513652368 0.14814177255594801 0 0 0
1632 12 18.391081132553403 3.301114111550015 -0.21395165657663623 0 0 0
1636 10 22.2800811325534 3.3011141115500156 -0.21395165657663615 0 0 0
1737 1 19.683131772082255 4.995448151365236 0.14814177255594857 0 0 0
1741 3 23.57213177208225 4.995448151365236 0.1481417725559482 0 0 0
1634 2 21.63406105492876 3.3016652709371086 1.86633755591972 0 0 0
1641 1 27.461131772082254 1.6054481513652359 0.14814177255594735 0 0 0
1640 12 26.1690811325534 3.301114111550016 -0.21395165657663878 0 0 0
1745 1 27.461131772082254 4.9954481513652365 0.14814177255594896 0 0 0
1638 4 25.52306105492876 3.3016652709371086 1.8663375559197175 0 0 0
1642 2 29.41206105492876 3.3016652709371064 1.8663375559197195 0 0 0
1645 3 31.350131772082253 1.605448151365236 0.14814177255594824 0 0 0
1649 1 35.23913177208225 1.6054481513652354 0.1481417725559483 0 0 0
1644 10 30.058081132553404 3.301114111550016 -0.2139516565766367 0 0 0
1648 12 33.9470811325534 3.301114111550017 -0.21395165657663742 0 0 0
1749 3 31.350131772082253 4.995448151365236 0.14814177255594815 0 0 0
1753 1 35.23913177208225 4.995448151365236 0.14814177255594613 0 0 0
1646 4 33.30106105492876 3.3016652709371077 1.8663375559197217 0 0 0
1653 3 39.128131772082256 1.6054481513652348 0.14814177255594785 0 0 0
1652 10 37.8360811325534 3.301114111550016 -0.21395165657663764 0 0 0
1757 3 39.128131772082256 4.9954481513652365 0.14814177255594943 0 0 0
1650 2 37.19006105492876 3.301665270937108 1.8663375559197182 0 0 0
1654 4 41.079061054928765 3.301665270937107 1.8663375559197173 0 0 0
1657 1 43.01713177208226 1.605448151365235 0.14814177255594757 0 0 0
1661 3 46.906131772082254 1.6054481513652352 0.14814177255594643 0 0 0
1656 12 41.725081132553406 3.301114111550014 -0.21395165657663742 0 0 0
1660 10 45.6140811325534 3.3011141115500147 -0.21395165657663506 0 0 0
1761 1 43.01713177208225 4.995448151365236 0.1481417725559475 0 0 0
1765 3 46.906131772082254 4.9954481513652365 0.14814177255594624 0 0 0
1658 2 44.96806105492876 3.301665270937107 1.86633755591972 0 0 0
1561 1 50.79513177208226 1.6054481513652383 0.14814177255594796 -1 0 0
1664 12 49.503081132553405 3.3011141115500156 -0.2139516565766366 0 0 0
1665 1 50.79513177208226 4.995448151365234 0.14814177255594763 -1 0 0
1662 4 48.857061054928764 3.3016652709371077 1.8663375559197186 0 0 0
1562 2 52.74606105492877 3.3016652709371073 1.8663375559197215 -1 0 0
1564 10 53.39208113255341 3.301114111550016 -0.21395165657663753 -1 0 0
1565 3 54.68413177208225 1.605448151365236 0.14814177255594602 -1 0 0
1569 1 58.573131772082256 1.605448151365236 0.14814177255594693 -1 0 0
1568 12 57.2810811325534 3.301114111550016 -0.21395165657663687 -1 0 0
1669 3 54.68413177208226 4.995448151365235 0.14814177255594665 -1 0 0
1673 1 58.573131772082256 4.995448151365234 0.14814177255594768 -1 0 0
1566 4 56.63506105492876 3.301665270937108 1.8663375559197188 -1 0 0
1573 3 62.462131772082266 1.6054481513652346 0.14814177255594885 -1 0 0
1572 10 61.17008113255341 3.301114111550015 -0.21395165657663637 -1 0 0
1576 12 65.05908113255342 3.3011141115500116 -0.2139516565766381 -1 0 0
1677 3 62.462131772082266 4.995448151365238 0.14814177255594851 -1 0 0
1570 2 60.524061054928765 3.301665270937108 1.8663375559197208 -1 0 0
1574 4 64.41306105492878 3.301665270937107 1.8663375559197186 -1 0 0
1577 1 66.35113177208227 1.6054481513652352 0.14814177255594657 -1 0 0
1581 3 70.24013177208226 1.605448151365237 0.14814177255594668 -1 0 0
1580 10 68.94808113255341 3.3011141115500124 -0.21395165657663723 -1 0 0
1681 1 66.35113177208227 4.995448151365234 0.14814177255594974 -1 0 0
1685 3 70.24013177208226 4.995448151365236 0.14814177255594996 -1 0 0
1578 2 68.30206105492877 3.301665270937108 1.866337555919722 -1 0 0
1585 1 74.12913177208226 1.6054481513652368 0.14814177255594785 -1 0 0
1584 12 72.83708113255341 3.301114111550016 -0.2139516565766339 -1 0 0
1588 10 76.72608113255342 3.3011141115500116 -0.21395165657663828 -1 0 0
1689 1 74.12913177208226 4.995448151365235 0.14814177255594746 -1 0 0
1582 4 72.19106105492877 3.3016652709371077 1.866337555919724 -1 0 0
1586 2 76.08006105492878 3.301665270937107 1.8663375559197195 -1 0 0
1589 3 78.01813177208227 1.6054481513652352 0.14814177255594616 -1 0 0
1593 1 81.90713177208227 1.6054481513652354 0.14814177255594813 -1 0 0
1592 12 80.61508113255341 3.301114111550011 -0.2139516565766371 -1 0 0
1693 3 78.01813177208227 4.995448151365234 0.1481417725559492 -1 0 0
1697 1 81.90713177208227 4.995448151365234 0.14814177255594946 -1 0 0
1590 4 79.96906105492877 3.301665270937107 1.8663375559197213 -1 0 0
1597 3 85.79613177208226 1.6054481513652348 0.14814177255594524 -1 0 0
1596 10 84.50408113255341 3.301114111550011 -0.21395165657663784 -1 0 0
1600 12 88.39308113255342 3.3011141115500107 -0.2139516565766354 -1 0 0
1701 3 85.79613177208226 4.995448151365235 0.1481417725559485 -1 0 0
1594 2 83.85806105492877 3.3016652709371104 1.866337555919719 -1 0 0
1598 4 87.74706105492876 3.3016652709371073 1.8663375559197202 -1 0 0
1601 1 89.68513177208227 1.605448151365235 0.14814177255595237 -1 0 0
1605 3 93.57413177208225 1.6054481513652372 0.14814177255594546 -1 0 0
1604 10 92.2820811325534 3.3011141115500156 -0.21395165657663606 -1 0 0
1705 1 89.68513177208226 4.995448151365238 0.14814177255595226 -1 0 0
1709 3 93.57413177208225 4.995448151365235 0.14814177255594554 -1 0 0
1602 2 91.63606105492877 3.3016652709371117 1.8663375559197237 -1 0 0
1609 1 97.46313177208226 1.6054481513652354 0.14814177255594685 -1 0 0
1608 12 96.17108113255341 3.301114111550011 -0.21395165657663853 -1 0 0
1612 10 100.0600811325534 3.301114111550015 -0.21395165657663706 -1 0 0
1713 1 97.46313177208226 4.995448151365234 0.14814177255594999 -1 0 0
1606 4 95.52506105492877 3.301665270937107 1.8663375559197195 -1 0 0
1610 2 99.41406105492877 3.301665270937108 1.866337555919722 -1 0 0
1720 12 2.8350811325534018 6.6911141115500135 -0.21395165657663687 0 0 0
1821 3 0.2381317720822517 8.385448151365233 0.14814177255594838 0 0 0
1825 1 4.127131772082255 8.385448151365233 0.14814177255594907 0 0 0
1824 12 2.835081132553402 10.081114111550013 -0.2139516565766363 0 0 0
1718 4 2.1890610549287612 6.691665270937106 1.8663375559197186 0 0 0
1822 4 2.1890610549287604 10.081665270937105 1.8663375559197182 0 0 0
1724 10 6.724081132553404 6.6911141115500135 -0.21395165657663717 0 0 0
1728 12 10.6130811325534 6.6911141115500135 -0.21395165657663706 0 0 0
1829 3 8.016131772082257 8.385448151365233 0.14814177255594854 0 0 0
1828 10 6.724081132553405 10.081114111550013 -0.213951656576637 0 0 0
1832 12 10.6130811325534 10.081114111550013 -0.21395165657663656 0 0 0
1722 2 6.078061054928764 6.691665270937107 1.8663375559197186 0 0 0
1726 4 9.967061054928763 6.691665270937107 1.86633755591972 0 0 0
1826 2 6.078061054928764 10.081665270937105 1.8663375559197182 0 0 0
1830 4 9.967061054928761 10.081665270937105 1.866337555919719 0 0 0
1833 1 11.905131772082255 8.385448151365233 0.14814177255594838 0 0 0
1732 10 14.5020811325534 6.691114111550014 -0.21395165657663798 0 0 0
1837 3 15.794131772082254 8.385448151365235 0.148141772555949 0 0 0
1836 10 14.5020811325534 10.081114111550013 -0.21395165657663726 0 0 0
1730 2 13.856061054928762 6.691665270937107 1.8663375559197188 0 0 0
1734 4 17.745061054928758 6.691665270937105 1.8663375559197195 0 0 0
1834 2 13.85606105492876 10.081665270937105 1.8663375559197186 0 0 0
1838 4 17.745061054928758 10.081665270937107 1.8663375559197195 0 0 0
1736 12 18.391081132553403 6.6911141115500135 -0.21395165657663653 0 0 0
1740 10 22.2800811325534 6.6911141115500135 -0.21395165657663676 0 0 0
1841 1 19.683131772082255 8.385448151365235 0.1481417725559488 0 0 0
1845 3 23.57213177208225 8.385448151365233 0.1481417725559489 0 0 0
1840 12 18.391081132553403 10.081114111550013 -0.21395165657663648 0 0 0
1844 10 22.280081132553402 10.081114111550015 -0.21395165657663667 0 0 0
1738 2 21.634061054928758 6.691665270937107 1.8663375559197202 0 0 0
1842 2 21.63406105492876 10.081665270937107 1.86633755591972 0 0 0
1744 12 26.1690811325534 6.6911141115500135 -0.2139516565766391 0 0 0
1849 1 27.461131772082254 8.385448151365233 0.1481417725559485 0 0 0
1848 12 26.1690811325534 10.081114111550013 -0.21395165657663925 0 0 0
1742 4 25.523061054928764 6.691665270937107 1.8663375559197186 0 0 0
1746 2 29.412061054928763 6.691665270937106 1.8663375559197188 0 0 0
1846 4 25.523061054928764 10.081665270937105 1.8663375559197186 0 0 0
1850 2 29.41206105492876 10.081665270937107 1.8663375559197197 0 0 0
1748 10 30.058081132553404 6.6911141115500135 -0.21395165657663712 0 0 0
1752 12 33.9470811325534 6.691114111550012 -0.2139516565766375 0 0 0
1853 3 31.350131772082253 8.385448151365233 0.1481417725559479 0 0 0
1857 1 35.23913177208225 8.385448151365235 0.14814177255594768 0 0 0
1852 10 30.058081132553404 10.081114111550013 -0.21395165657663742 0 0 0
1856 12 33.94708113255339 10.081114111550013 -0.21395165657663698 0 0 0
1750 4 33.30106105492876 6.691665270937107 1.8663375559197213 0 0 0
1854 4 33.30106105492876 10.081665270937107 1.8663375559197224 0 0 0
1756 10 37.8360811325534 6.6911141115500135 -0.21395165657663695 0 0 0
1861 3 39.128131772082256 8.385448151365233 0.14814177255594888 0 0 0
1860 10 37.8360811325534 10.081114111550013 -0.2139516565766369 0 0 0
1754 2 37.19006105492876 6.691665270937106 1.8663375559197168 0 0 0
1758 4 41.079061054928765 6.691665270937106 1.8663375559197188 0 0 0
1858 2 37.19006105492876 10.081665270937105 1.8663375559197162 0 0 0
1862 4 41.07906105492876 10.081665270937107 1.8663375559197182 0 0 0
1760 12 41.7250811325534 6.691114111550015 -0.2139516565766371 0 0 0
1764 10 45.6140811325534 6.691114111550013 -0.21395165657663776 0 0 0
1865 1 43.01713177208225 8.385448151365233 0.14814177255594624 0 0 0
1869 3 46.906131772082254 8.385448151365233 0.1481417725559492 0 0 0
1864 12 41.7250811325534 10.081114111550015 -0.21395165657663573 0 0 0
1868 10 45.6140811325534 10.081114111550013 -0.21395165657663687 0 0 0
1762 2 44.96806105492876 6.691665270937107 1.8663375559197217 0 0 0
1866 2 44.968061054928754 10.081665270937105 1.8663375559197213 0 0 0
1768 12 49.50308113255341 6.691114111550014 -0.21395165657663703 0 0 0
1769 1 50.795131772082264 8.385448151365235 0.1481417725559481 -1 0 0
1872 12 49.50308113255341 10.081114111550013 -0.2139516565766355 0 0 0
1766 4 48.857061054928764 6.691665270937107 1.8663375559197188 0 0 0
1666 2 52.74606105492877 6.691665270937107 1.8663375559197204 -1 0 0
1870 4 48.857061054928764 10.081665270937107 1.8663375559197153 0 0 0
1770 2 52.74606105492877 10.081665270937107 1.8663375559197217 -1 0 0
1668 10 53.39208113255341 6.691114111550014 -0.21395165657663884 -1 0 0
1772 10 53.39208113255341 10.081114111550015 -0.2139516565766379 -1 0 0
1672 12 57.28108113255341 6.691114111550014 -0.21395165657663714 -1 0 0
1773 3 54.68413177208226 8.385448151365235 0.14814177255594638 -1 0 0
1777 1 58.573131772082256 8.385448151365237 0.1481417725559474 -1 0 0
1776 12 57.2810811325534 10.081114111550013 -0.2139516565766365 -1 0 0
1670 4 56.63506105492876 6.691665270937107 1.8663375559197193 -1 0 0
1774 4 56.63506105492876 10.081665270937105 1.8663375559197184 -1 0 0
1676 10 61.170081132553406 6.691114111550012 -0.21395165657663734 -1 0 0
1680 12 65.0590811325534 6.691114111550015 -0.21395165657663887 -1 0 0
1781 3 62.46213177208226 8.385448151365233 0.14814177255594924 -1 0 0
1780 10 61.170081132553406 10.081114111550011 -0.21395165657663726 -1 0 0
1784 12 65.0590811325534 10.081114111550013 -0.21395165657663737 -1 0 0
1674 2 60.524061054928765 6.691665270937107 1.866337555919722 -1 0 0
1678 4 64.41306105492878 6.691665270937108 1.8663375559197184 -1 0 0
1778 2 60.524061054928765 10.081665270937107 1.8663375559197224 -1 0 0
1782 4 64.41306105492876 10.081665270937107 1.8663375559197177 -1 0 0
1684 10 68.9480811325534 6.691114111550014 -0.21395165657663934 -1 0 0
1785 1 66.35113177208227 8.385448151365235 0.1481417725559506 -1 0 0
1789 3 70.24013177208226 8.385448151365233 0.14814177255594974 -1 0 0
1788 10 68.9480811325534 10.081114111550013 -0.21395165657663792 -1 0 0
1682 2 68.30206105492877 6.691665270937107 1.8663375559197206 -1 0 0
1786 2 68.30206105492877 10.081665270937103 1.8663375559197195 -1 0 0
1688 12 72.83708113255341 6.6911141115500135 -0.21395165657663523 -1 0 0
1692 10 76.7260811325534 6.691114111550014 -0.2139516565766399 -1 0 0
1793 1 74.12913177208226 8.385448151365233 0.14814177255594832 -1 0 0
1792 12 72.83708113255341 10.08111411155001 -0.2139516565766348 -1 0 0
1796 10 76.7260811325534 10.081114111550015 -0.2139516565766411 -1 0 0
1686 4 72.19106105492877 6.691665270937106 1.8663375559197235 -1 0 0
1690 2 76.08006105492878 6.691665270937103 1.8663375559197188 -1 0 0
1790 4 72.19106105492877 10.081665270937103 1.8663375559197226 -1 0 0
1794 2 76.08006105492878 10.081665270937105 1.8663375559197195 -1 0 0
1696 12 80.6150811325534 6.691114111550014 -0.21395165657663898 -1 0 0
1797 3 78.01813177208227 8.385448151365233 0.1481417725559512 -1 0 0
1801 1 81.90713177208227 8.385448151365235 0.14814177255595154 -1 0 0
1800 12 80.6150811325534 10.081114111550015 -0.2139516565766381 -1 0 0
1694 4 79.96906105492877 6.691665270937105 1.866337555919719 -1 0 0
1798 4 79.96906105492877 10.081665270937105 1.866337555919716 -1 0 0
1700 10 84.5040811325534 6.691114111550015 -0.21395165657663895 -1 0 0
1704 12 88.3930811325534 6.691114111550014 -0.21395165657663595 -1 0 0
1805 3 85.79613177208226 8.385448151365235 0.14814177255594915 -1 0 0
1804 10 84.5040811325534 10.081114111550013 -0.213951656576641 -1 0 0
1808 12 88.3930811325534 10.081114111550013 -0.21395165657663587 -1 0 0
1698 2 83.85806105492877 6.691665270937105 1.866337555919719 -1 0 0
1702 4 87.74706105492876 6.691665270937107 1.8663375559197202 -1 0 0
1802 2 83.85806105492877 10.081665270937105 1.8663375559197195 -1 0 0
1806 4 87.74706105492876 10.081665270937107 1.8663375559197188 -1 0 0
1708 10 92.2820811325534 6.691114111550014 -0.21395165657663548 -1 0 0
1809 1 89.68513177208226 8.385448151365232 0.1481417725559521 -1 0 0
1813 3 93.57413177208225 8.38544815136523 0.14814177255594807 -1 0 0
1812 10 92.2820811325534 10.08111411155001 -0.21395165657663612 -1 0 0
1706 2 91.63606105492877 6.691665270937107 1.8663375559197197 -1 0 0
1810 2 91.63606105492877 10.081665270937105 1.866337555919718 -1 0 0
1712 12 96.1710811325534 6.691114111550014 -0.21395165657663973 -1 0 0
1716 10 100.0600811325534 6.6911141115500135 -0.213951656576638 -1 0 0
1817 1 97.46313177208226 8.385448151365235 0.1481417725559502 -1 0 0
1816 12 96.1710811325534 10.081114111550013 -0.21395165657664172 -1 0 0
1820 10 100.0600811325534 10.081114111550013 -0.21395165657663728 -1 0 0
1710 4 95.52506105492877 6.691665270937105 1.8663375559197184 -1 0 0
1714 2 99.41406105492877 6.691665270937107 1.8663375559197208 -1 0 0
1814 4 95.52506105492877 10.081665270937108 1.8663375559197206 -1 0 0
1818 2 99.41406105492877 10.081665270937107 1.8663375559197208 -1 0 0
1925 3 0.23813177208225011 11.775448151365234 0.14814177255594907 0 0 0
1929 1 4.127131772082255 11.775448151365234 0.1481417725559489 0 0 0
1928 12 2.8350811325534027 13.471114111550014 -0.21395165657663634 0 0 0
2029 3 0.23813177208224942 15.165448151365236 0.14814177255594865 0 0 0
2033 1 4.1271317720822545 15.165448151365238 0.14814177255594912 0 0 0
2032 12 2.8350811325534027 16.861114111550016 -0.2139516565766365 0 0 0
1926 4 2.1890610549287595 13.471665270937107 1.8663375559197182 0 0 0
2030 4 2.189061054928759 16.86166527093711 1.866337555919719 0 0 0
1933 3 8.016131772082257 11.775448151365234 0.1481417725559494 0 0 0
1932 10 6.724081132553405 13.471114111550014 -0.21395165657663634 0 0 0
1936 12 10.613081132553402 13.471114111550014 -0.21395165657663648 0 0 0
2037 3 8.016131772082257 15.165448151365236 0.14814177255594943 0 0 0
2036 10 6.724081132553406 16.861114111550016 -0.21395165657663648 0 0 0
2040 12 10.613081132553402 16.861114111550016 -0.2139516565766365 0 0 0
1930 2 6.078061054928763 13.471665270937107 1.866337555919718 0 0 0
1934 4 9.967061054928763 13.471665270937107 1.866337555919719 0 0 0
2034 2 6.078061054928763 16.86166527093711 1.866337555919719 0 0 0
2038 4 9.967061054928761 16.86166527093711 1.86633755591972 0 0 0
1937 1 11.905131772082255 11.775448151365234 0.14814177255594912 0 0 0
2041 1 11.905131772082255 15.165448151365236 0.148141772555949 0 0 0
1941 3 15.794131772082252 11.775448151365234 0.14814177255594874 0 0 0
1940 10 14.502081132553402 13.471114111550014 -0.2139516565766374 0 0 0
2045 3 15.794131772082252 15.165448151365236 0.1481417725559487 0 0 0
2044 10 14.502081132553402 16.861114111550016 -0.2139516565766373 0 0 0
1938 2 13.85606105492876 13.471665270937107 1.866337555919719 0 0 0
1942 4 17.745061054928758 13.471665270937107 1.8663375559197197 0 0 0
2042 2 13.85606105492876 16.86166527093711 1.8663375559197188 0 0 0
2046 4 17.745061054928758 16.86166527093711 1.8663375559197208 0 0 0
1945 1 19.683131772082255 11.775448151365236 0.14814177255594982 0 0 0
1949 3 23.572131772082255 11.775448151365234 0.14814177255594876 0 0 0
1944 12 18.391081132553403 13.471114111550014 -0.21395165657663598 0 0 0
1948 10 22.280081132553402 13.471114111550015 -0.21395165657663698 0 0 0
2049 1 19.683131772082255 15.165448151365238 0.1481417725559493 0 0 0
2053 3 23.572131772082255 15.165448151365236 0.14814177255594918 0 0 0
2048 12 18.391081132553403 16.861114111550016 -0.21395165657663645 0 0 0
2052 10 22.280081132553402 16.861114111550016 -0.2139516565766362 0 0 0
1946 2 21.63406105492876 13.471665270937109 1.8663375559197202 0 0 0
2050 2 21.63406105492876 16.86166527093711 1.8663375559197193 0 0 0
1953 1 27.461131772082254 11.775448151365234 0.1481417725559488 0 0 0
1952 12 26.1690811325534 13.471114111550015 -0.21395165657663803 0 0 0
2057 1 27.461131772082254 15.165448151365236 0.14814177255594793 0 0 0
2056 12 26.1690811325534 16.861114111550016 -0.21395165657663845 0 0 0
1950 4 25.52306105492876 13.471665270937107 1.866337555919718 0 0 0
1954 2 29.41206105492876 13.471665270937107 1.8663375559197195 0 0 0
2054 4 25.523061054928764 16.86166527093711 1.8663375559197197 0 0 0
2058 2 29.41206105492876 16.86166527093711 1.86633755591972 0 0 0
1957 3 31.350131772082253 11.775448151365234 0.14814177255594874 0 0 0
1961 1 35.23913177208225 11.775448151365232 0.1481417725559485 0 0 0
1956 10 30.058081132553404 13.471114111550015 -0.2139516565766374 0 0 0
1960 12 33.9470811325534 13.471114111550015 -0.21395165657663648 0 0 0
2061 3 31.350131772082253 15.165448151365236 0.14814177255594807 0 0 0
2065 1 35.23913177208225 15.165448151365236 0.14814177255594965 0 0 0
2060 10 30.0580811325534 16.861114111550016 -0.21395165657663712 0 0 0
2064 12 33.9470811325534 16.861114111550016 -0.21395165657663648 0 0 0
1958 4 33.30106105492876 13.471665270937107 1.8663375559197197 0 0 0
2062 4 33.30106105492876 16.86166527093711 1.8663375559197202 0 0 0
1965 3 39.128131772082256 11.775448151365236 0.14814177255594957 0 0 0
1964 10 37.8360811325534 13.471114111550015 -0.21395165657663848 0 0 0
2069 3 39.128131772082256 15.165448151365238 0.1481417725559493 0 0 0
2068 10 37.8360811325534 16.861114111550016 -0.21395165657663828 0 0 0
1962 2 37.19006105492876 13.471665270937109 1.8663375559197162 0 0 0
1966 4 41.07906105492876 13.471665270937109 1.8663375559197168 0 0 0
2066 2 37.19006105492876 16.86166527093711 1.8663375559197177 0 0 0
2070 4 41.07906105492876 16.86166527093711 1.8663375559197173 0 0 0
1969 1 43.01713177208225 11.775448151365234 0.14814177255594715 0 0 0
1973 3 46.906131772082254 11.775448151365236 0.148141772555949 0 0 0
1968 12 41.725081132553406 13.471114111550015 -0.213951656576635 0 0 0
1972 10 45.614081132553395 13.471114111550014 -0.2139516565766332 0 0 0
2073 1 43.01713177208226 15.165448151365236 0.1481417725559465 0 0 0
2077 3 46.906131772082254 15.165448151365236 0.14814177255595187 0 0 0
2072 12 41.725081132553406 16.861114111550016 -0.21395165657663498 0 0 0
2076 10 45.6140811325534 16.86111411155002 -0.2139516565766339 0 0 0
1970 2 44.968061054928754 13.471665270937109 1.8663375559197193 0 0 0
2074 2 44.968061054928754 16.86166527093711 1.866337555919719 0 0 0
1873 1 50.795131772082264 11.775448151365236 0.148141772555948 -1 0 0
1976 12 49.50308113255341 13.471114111550015 -0.21395165657663692 0 0 0
1977 1 50.79513177208226 15.165448151365238 0.14814177255594857 -1 0 0
2080 12 49.50308113255341 16.861114111550016 -0.21395165657663642 0 0 0
1974 4 48.857061054928764 13.471665270937109 1.8663375559197166 0 0 0
1874 2 52.74606105492877 13.471665270937109 1.8663375559197193 -1 0 0
2078 4 48.857061054928764 16.86166527093711 1.8663375559197177 0 0 0
1978 2 52.74606105492877 16.86166527093711 1.8663375559197193 -1 0 0
1876 10 53.39208113255341 13.471114111550015 -0.21395165657663717 -1 0 0
1980 10 53.39208113255341 16.861114111550016 -0.21395165657663692 -1 0 0
1877 3 54.68413177208226 11.775448151365234 0.14814177255594724 -1 0 0
1881 1 58.573131772082256 11.775448151365234 0.14814177255594757 -1 0 0
1880 12 57.28108113255341 13.471114111550014 -0.21395165657663454 -1 0 0
1981 3 54.68413177208226 15.165448151365236 0.14814177255594813 -1 0 0
1985 1 58.57313177208226 15.165448151365236 0.1481417725559488 -1 0 0
1984 12 57.28108113255341 16.861114111550016 -0.2139516565766345 -1 0 0
1878 4 56.63506105492876 13.471665270937109 1.8663375559197166 -1 0 0
1982 4 56.63506105492876 16.86166527093711 1.8663375559197164 -1 0 0
1885 3 62.46213177208226 11.775448151365232 0.14814177255594882 -1 0 0
1884 10 61.170081132553406 13.471114111550015 -0.21395165657663717 -1 0 0
1888 12 65.0590811325534 13.471114111550015 -0.21395165657663556 -1 0 0
1989 3 62.46213177208226 15.165448151365238 0.1481417725559491 -1 0 0
1988 10 61.170081132553406 16.861114111550016 -0.21395165657663695 -1 0 0
1992 12 65.0590811325534 16.861114111550016 -0.2139516565766364 -1 0 0
1882 2 60.524061054928765 13.471665270937109 1.866337555919719 -1 0 0
1886 4 64.41306105492876 13.471665270937109 1.8663375559197188 -1 0 0
1986 2 60.524061054928765 16.86166527093711 1.8663375559197193 -1 0 0
1990 4 64.41306105492876 16.86166527093711 1.8663375559197188 -1 0 0
1889 1 66.35113177208227 11.775448151365236 0.14814177255595362 -1 0 0
1893 3 70.24013177208226 11.775448151365234 0.148141772555952 -1 0 0
1892 10 68.9480811325534 13.471114111550014 -0.2139516565766353 -1 0 0
1993 1 66.35113177208227 15.165448151365238 0.1481417725559536 -1 0 0
1997 3 70.24013177208226 15.165448151365238 0.14814177255595165 -1 0 0
1996 10 68.9480811325534 16.861114111550016 -0.21395165657663773 -1 0 0
1890 2 68.30206105492877 13.471665270937109 1.866337555919715 -1 0 0
1994 2 68.30206105492877 16.861665270937113 1.86633755591972 -1 0 0
1897 1 74.12913177208226 11.77544815136523 0.14814177255595548 -1 0 0
1896 12 72.83708113255341 13.471114111550014 -0.21395165657663406 -1 0 0
1900 10 76.7260811325534 13.471114111550015 -0.21395165657663884 -1 0 0
2001 1 74.12913177208226 15.165448151365242 0.14814177255595407 -1 0 0
2000 12 72.83708113255341 16.86111411155002 -0.21395165657663517 -1 0 0
2004 10 76.7260811325534 16.861114111550016 -0.2139516565766391 -1 0 0
1894 4 72.19106105492877 13.471665270937109 1.8663375559197162 -1 0 0
1898 2 76.08006105492878 13.47166527093711 1.8663375559197157 -1 0 0
1998 4 72.19106105492878 16.86166527093711 1.8663375559197208 -1 0 0
2002 2 76.08006105492878 16.861665270937113 1.866337555919719 -1 0 0
1901 3 78.01813177208227 11.775448151365236 0.14814177255595348 -1 0 0
1905 1 81.90713177208227 11.775448151365236 0.14814177255595337 -1 0 0
1904 12 80.6150811325534 13.471114111550015 -0.21395165657663978 -1 0 0
2005 3 78.01813177208227 15.165448151365238 0.14814177255595232 -1 0 0
2009 1 81.90713177208227 15.16544815136524 0.14814177255595135 -1 0 0
2008 12 80.6150811325534 16.861114111550016 -0.21395165657664084 -1 0 0
1902 4 79.96906105492877 13.471665270937109 1.8663375559197206 -1 0 0
2006 4 79.96906105492877 16.861665270937113 1.8663375559197217 -1 0 0
1909 3 85.79613177208226 11.775448151365236 0.14814177255594943 -1 0 0
1908 10 84.5040811325534 13.471114111550015 -0.21395165657664006 -1 0 0
1912 12 88.3930811325534 13.471114111550015 -0.21395165657663465 -1 0 0
2013 3 85.79613177208226 15.165448151365238 0.1481417725559491 -1 0 0
2012 10 84.5040811325534 16.861114111550016 -0.21395165657663784 -1 0 0
2016 12 88.3930811325534 16.861114111550016 -0.21395165657663578 -1 0 0
1906 2 83.85806105492877 13.47166527093711 1.8663375559197202 -1 0 0
1910 4 87.74706105492876 13.471665270937107 1.8663375559197195 -1 0 0
2010 2 83.85806105492877 16.861665270937113 1.8663375559197195 -1 0 0
2014 4 87.74706105492876 16.861665270937106 1.8663375559197182 -1 0 0
1913 1 89.68513177208227 11.775448151365236 0.14814177255595457 -1 0 0
1917 3 93.57413177208225 11.775448151365238 0.14814177255595148 -1 0 0
1916 10 92.28208113255339 13.471114111550014 -0.21395165657663823 -1 0 0
2017 1 89.68513177208227 15.165448151365238 0.1481417725559542 -1 0 0
2021 3 93.57413177208225 15.165448151365235 0.14814177255595262 -1 0 0
2020 10 92.2820811325534 16.86111411155002 -0.2139516565766358 -1 0 0
1914 2 91.63606105492877 13.471665270937109 1.8663375559197213 -1 0 0
2018 2 91.63606105492877 16.861665270937113 1.8663375559197182 -1 0 0
1921 1 97.46313177208226 11.775448151365236 0.14814177255595132 -1 0 0
1920 12 96.1710811325534 13.471114111550014 -0.21395165657663898 -1 0 0
1924 10 100.0600811325534 13.471114111550014 -0.21395165657663506 -1 0 0
2025 1 97.46313177208226 15.165448151365238 0.1481417725559524 -1 0 0
2024 12 96.1710811325534 16.861114111550016 -0.21395165657663862 -1 0 0
2028 10 100.0600811325534 16.861114111550016 -0.21395165657663698 -1 0 0
1918 4 95.52506105492876 13.471665270937107 1.8663375559197173 -1 0 0
1922 2 99.41406105492877 13.471665270937104 1.8663375559197164 -1 0 0
2022 4 95.52506105492877 16.861665270937113 1.8663375559197188 -1 0 0
2026 2 99.41406105492877 16.861665270937113 1.8663375559197195 -1 0 0
2133 3 0.23813177208225098 18.55544815136524 0.14814177255594893 0 0 0
2137 1 4.127131772082255 18.55544815136524 0.1481417725559496 0 0 0
2136 12 2.835081132553402 20.251114111550017 -0.2139516565766358 0 0 0
2237 3 0.2381317720822509 21.94544815136524 0.14814177255594851 0 0 0
2241 1 4.127131772082255 21.94544815136524 0.14814177255594943 0 0 0
2134 4 2.18906105492876 20.251665270937114 1.8663375559197184 0 0 0
2141 3 8.016131772082257 18.55544815136524 0.14814177255594949 0 0 0
2140 10 6.724081132553405 20.251114111550017 -0.21395165657663687 0 0 0
2144 12 10.613081132553402 20.251114111550017 -0.2139516565766366 0 0 0
2245 3 8.016131772082257 21.94544815136524 0.1481417725559486 0 0 0
2138 2 6.078061054928764 20.251665270937114 1.8663375559197186 0 0 0
2142 4 9.967061054928763 20.251665270937114 1.866337555919719 0 0 0
2145 1 11.905131772082255 18.555448151365237 0.14814177255594807 0 0 0
2249 1 11.905131772082255 21.94544815136524 0.14814177255594854 0 0 0
2149 3 15.794131772082252 18.555448151365237 0.1481417725559482 0 0 0
2148 10 14.502081132553402 20.251114111550017 -0.2139516565766369 0 0 0
2253 3 15.794131772082252 21.945448151365238 0.14814177255594835 0 0 0
2146 2 13.856061054928762 20.25166527093711 1.8663375559197182 0 0 0
2150 4 17.745061054928758 20.25166527093711 1.8663375559197208 0 0 0
2153 1 19.683131772082252 18.55544815136524 0.14814177255595026 0 0 0
2157 3 23.57213177208225 18.55544815136524 0.148141772555948 0 0 0
2152 12 18.3910811325534 20.251114111550017 -0.21395165657663645 0 0 0
2156 10 22.280081132553402 20.251114111550017 -0.2139516565766373 0 0 0
2257 1 19.683131772082252 21.94544815136524 0.14814177255595012 0 0 0
2261 3 23.572131772082255 21.94544815136524 0.14814177255594838 0 0 0
2154 2 21.63406105492876 20.25166527093711 1.8663375559197206 0 0 0
2161 1 27.461131772082254 18.555448151365237 0.14814177255594801 0 0 0
2160 12 26.1690811325534 20.251114111550017 -0.2139516565766391 0 0 0
2265 1 27.461131772082254 21.94544815136524 0.1481417725559489 0 0 0
2158 4 25.523061054928764 20.25166527093711 1.8663375559197188 0 0 0
2162 2 29.412061054928763 20.251665270937114 1.8663375559197193 0 0 0
2165 3 31.350131772082253 18.55544815136524 0.14814177255594915 0 0 0