LAMMPS data file via write_data, version 29 Aug 2024, timestep = 6, units = metal

9048 atoms
24 atom types

0 101.114 xlo xhi
0 98.31 ylo yhi
-50 118.03111154499626 zlo zhi

Masses

1 12.011
2 12.011
3 12.011
4 12.011
5 12.011
6 12.011
7 12.011
8 12.011
9 12.011
10 12.011
11 12.011
12 12.011
13 127.6
14 127.6
15 127.6
16 127.6
17 127.6
18 127.6
19 127.6
20 127.6
21 127.6
22 127.6
23 127.6
24 127.6

Atoms # atomic

1613 3 0.23830398503481762 1.6054631158324695 0.14818176538944092 0 0 0
1617 1 4.127303985034819 1.6054631158324686 0.14818176538944206 0 0 0
1616 16 2.835005646901515 3.3011115567263234 -0.2140323423286091 0 0 0
1717 3 0.23830398503481562 4.995463115832466 0.14818176538943964 0 0 0
1721 1 4.1273039850348185 4.995463115832465 0.14818176538944083 0 0 0
1614 4 2.1890461738246816 3.3016350331518813 1.8666148891225696 0 0 0
1621 3 8.01630398503482 1.605463115832469 0.14818176538944164 0 0 0
1620 14 6.724005646901517 3.3011115567263234 -0.21403234232860915 0 0 0
1624 16 10.613005646901515 3.3011115567263234 -0.21403234232860857 0 0 0
1725 3 8.01630398503482 4.995463115832465 0.14818176538944122 0 0 0
1618 2 6.078046173824685 3.3016350331518813 1.8666148891225691 0 0 0
1622 4 9.967046173824684 3.301635033151881 1.8666148891225698 0 0 0
1625 1 11.90530398503482 1.605463115832469 0.1481817653894416 0 0 0
1729 1 11.905303985034818 4.995463115832466 0.1481817653894404 0 0 0
1629 3 15.794303985034817 1.6054631158324688 0.1481817653894413 0 0 0
1628 14 14.502005646901514 3.301111556726324 -0.21403234232860985 0 0 0
1733 3 15.794303985034817 4.995463115832465 0.1481817653894406 0 0 0
1626 2 13.856046173824682 3.301635033151882 1.8666148891225691 0 0 0
1630 4 17.74504617382468 3.301635033151881 1.86661488912257 0 0 0
1633 1 19.68330398503482 1.605463115832468 0.14818176538944228 0 0 0
1637 3 23.572303985034818 1.6054631158324695 0.14818176538944133 0 0 0
1632 16 18.391005646901515 3.3011115567263234 -0.21403234232860804 0 0 0
1636 14 22.28000564690151 3.301111556726324 -0.2140323423286089 0 0 0
1737 1 19.68330398503482 4.995463115832465 0.14818176538944058 0 0 0
1741 3 23.572303985034814 4.995463115832466 0.14818176538944 0 0 0
1634 2 21.634046173824682 3.301635033151882 1.8666148891225707 0 0 0
1641 1 27.46130398503482 1.6054631158324681 0.14818176538944125 0 0 0
1640 16 26.169005646901518 3.301111556726323 -0.21403234232861032 0 0 0
1745 1 27.46130398503482 4.995463115832465 0.1481817653894406 0 0 0
1638 4 25.52304617382468 3.301635033151881 1.8666148891225682 0 0 0
1642 2 29.41204617382468 3.301635033151881 1.866614889122569 0 0 0
1645 3 31.35030398503482 1.6054631158324681 0.14818176538944186 0 0 0
1649 1 35.239303985034816 1.6054631158324668 0.14818176538944206 0 0 0
1644 14 30.058005646901517 3.3011115567263234 -0.21403234232860766 0 0 0
1648 16 33.947005646901516 3.3011115567263243 -0.2140323423286086 0 0 0
1749 3 31.35030398503482 4.995463115832466 0.1481817653894403 0 0 0
1753 1 35.23930398503482 4.995463115832465 0.14818176538944092 0 0 0
1646 4 33.30104617382469 3.3016350331518813 1.8666148891225682 0 0 0
1653 3 39.12830398503482 1.6054631158324673 0.14818176538944028 0 0 0
1652 14 37.83600564690152 3.301111556726323 -0.21403234232860952 0 0 0
1757 3 39.12830398503482 4.995463115832466 0.14818176538943953 0 0 0
1650 2 37.19004617382468 3.3016350331518796 1.8666148891225685 0 0 0
1654 4 41.079046173824686 3.301635033151881 1.8666148891225658 0 0 0
1657 1 43.01730398503482 1.605463115832467 0.1481817653894405 0 0 0
1661 3 46.906303985034825 1.605463115832467 0.14818176538944056 0 0 0
1656 16 41.72500564690152 3.3011115567263243 -0.21403234232860804 0 0 0
1660 14 45.61400564690152 3.3011115567263225 -0.21403234232860435 0 0 0
1761 1 43.01730398503483 4.995463115832465 0.14818176538943867 0 0 0
1765 3 46.906303985034825 4.995463115832465 0.14818176538944144 0 0 0
1658 2 44.96804617382468 3.3016350331518813 1.8666148891225687 0 0 0
1561 1 50.79530398503483 1.605463115832469 0.1481817653894433 -1 0 0
1664 16 49.50300564690152 3.3011115567263234 -0.21403234232860907 0 0 0
1665 1 50.79530398503483 4.995463115832465 0.1481817653894395 -1 0 0
1662 4 48.857046173824685 3.30163503315188 1.8666148891225691 0 0 0
1562 2 52.74604617382469 3.3016350331518827 1.86661488912257 -1 0 0
1564 14 53.39200564690152 3.3011115567263247 -0.21403234232860874 -1 0 0
1565 3 54.68430398503482 1.6054631158324686 0.14818176538944128 -1 0 0
1569 1 58.573303985034826 1.6054631158324686 0.14818176538944308 -1 0 0
1568 16 57.28100564690152 3.3011115567263243 -0.21403234232860846 -1 0 0
1669 3 54.68430398503482 4.995463115832465 0.1481817653894401 -1 0 0
1673 1 58.573303985034826 4.9954631158324645 0.1481817653894396 -1 0 0
1566 4 56.63504617382468 3.30163503315188 1.866614889122569 -1 0 0
1573 3 62.46230398503482 1.6054631158324675 0.1481817653894421 -1 0 0
1572 14 61.17000564690152 3.3011115567263247 -0.21403234232860874 -1 0 0
1576 16 65.05900564690153 3.3011115567263234 -0.21403234232861043 -1 0 0
1677 3 62.46230398503483 4.995463115832465 0.14818176538943933 -1 0 0
1570 2 60.524046173824686 3.3016350331518827 1.8666148891225687 -1 0 0
1574 4 64.4130461738247 3.301635033151883 1.8666148891225693 -1 0 0
1577 1 66.35130398503482 1.6054631158324644 0.14818176538944194 -1 0 0
1581 3 70.24030398503483 1.6054631158324668 0.14818176538943845 -1 0 0
1580 14 68.94800564690152 3.301111556726324 -0.21403234232860807 -1 0 0
1681 1 66.35130398503482 4.995463115832465 0.14818176538944192 -1 0 0
1685 3 70.24030398503483 4.995463115832466 0.14818176538943933 -1 0 0
1578 2 68.30204617382468 3.3016350331518813 1.866614889122569 -1 0 0
1585 1 74.12930398503482 1.6054631158324661 0.14818176538944272 -1 0 0
1584 16 72.83700564690153 3.301111556726324 -0.21403234232860663 -1 0 0
1588 14 76.72600564690153 3.3011115567263234 -0.21403234232861074 -1 0 0
1689 1 74.12930398503482 4.995463115832466 0.14818176538944242 -1 0 0
1582 4 72.19104617382469 3.30163503315188 1.8666148891225693 -1 0 0
1586 2 76.08004617382468 3.301635033151881 1.8666148891225693 -1 0 0
1589 3 78.01830398503482 1.6054631158324644 0.14818176538944178 -1 0 0
1593 1 81.90730398503482 1.6054631158324644 0.14818176538944186 -1 0 0
1592 16 80.61500564690152 3.3011115567263234 -0.21403234232861015 -1 0 0
1693 3 78.01830398503482 4.995463115832465 0.148181765389442 -1 0 0
1697 1 81.90730398503482 4.995463115832465 0.1481817653894421 -1 0 0
1590 4 79.96904617382468 3.301635033151881 1.866614889122571 -1 0 0
1597 3 85.79630398503481 1.6054631158324633 0.1481817653894411 -1 0 0
1596 14 84.50400564690152 3.301111556726323 -0.21403234232860996 -1 0 0
1600 16 88.39300564690153 3.3011115567263234 -0.21403234232860793 -1 0 0
1701 3 85.79630398503481 4.995463115832465 0.14818176538944058 -1 0 0
1594 2 83.85804617382468 3.3016350331518813 1.8666148891225705 -1 0 0
1598 4 87.74704617382469 3.3016350331518827 1.8666148891225693 -1 0 0
1601 1 89.68530398503482 1.6054631158324646 0.1481817653894442 -1 0 0
1605 3 93.57430398503482 1.6054631158324666 0.14818176538944008 -1 0 0
1604 14 92.28200564690152 3.301111556726324 -0.21403234232860913 -1 0 0
1705 1 89.68530398503482 4.995463115832465 0.1481817653894461 -1 0 0
1709 3 93.57430398503482 4.995463115832465 0.14818176538944056 -1 0 0
1602 2 91.63604617382468 3.3016350331518813 1.8666148891225722 -1 0 0
1609 1 97.46330398503481 1.6054631158324644 0.1481817653894421 -1 0 0
1608 16 96.17100564690152 3.3011115567263234 -0.21403234232861085 -1 0 0
1612 14 100.06000564690152 3.301111556726324 -0.21403234232860793 -1 0 0
1713 1 97.46330398503481 4.995463115832465 0.14818176538944228 -1 0 0
1606 4 95.52504617382468 3.301635033151881 1.8666148891225693 -1 0 0
1610 2 99.41404617382467 3.301635033151881 1.8666148891225702 -1 0 0
1720 16 2.8350056469015144 6.691111556726321 -0.21403234232860918 0 0 0
1821 3 0.2383039850348156 8.385463115832465 0.1481817653894398 0 0 0
1825 1 4.127303985034818 8.385463115832465 0.1481817653894411 0 0 0
1824 16 2.835005646901515 10.081111556726322 -0.21403234232860927 0 0 0
1718 4 2.1890461738246816 6.691635033151881 1.8666148891225691 0 0 0
1822 4 2.1890461738246807 10.08163503315188 1.8666148891225691 0 0 0
1724 14 6.724005646901517 6.691111556726321 -0.2140323423286095 0 0 0
1728 16 10.613005646901515 6.691111556726321 -0.21403234232860952 0 0 0
1829 3 8.01630398503482 8.385463115832465 0.14818176538944136 0 0 0
1828 14 6.724005646901517 10.081111556726322 -0.21403234232860907 0 0 0
1832 16 10.613005646901515 10.08111155672632 -0.21403234232860965 0 0 0
1722 2 6.078046173824685 6.69163503315188 1.866614889122569 0 0 0
1726 4 9.967046173824684 6.69163503315188 1.8666148891225702 0 0 0
1826 2 6.078046173824684 10.08163503315188 1.866614889122569 0 0 0
1830 4 9.967046173824684 10.08163503315188 1.8666148891225702 0 0 0
1833 1 11.905303985034818 8.385463115832465 0.1481817653894402 0 0 0
1732 14 14.502005646901512 6.691111556726321 -0.21403234232860985 0 0 0
1837 3 15.794303985034816 8.385463115832463 0.14818176538943983 0 0 0
1836 14 14.502005646901512 10.081111556726322 -0.21403234232860927 0 0 0
1730 2 13.856046173824684 6.69163503315188 1.8666148891225687 0 0 0
1734 4 17.74504617382468 6.691635033151881 1.8666148891225696 0 0 0
1834 2 13.856046173824682 10.08163503315188 1.8666148891225685 0 0 0
1838 4 17.74504617382468 10.08163503315188 1.8666148891225702 0 0 0
1736 16 18.39100564690151 6.691111556726321 -0.21403234232860816 0 0 0
1740 14 22.28000564690151 6.691111556726323 -0.21403234232860927 0 0 0
1841 1 19.683303985034815 8.385463115832463 0.14818176538944122 0 0 0
1845 3 23.572303985034814 8.385463115832463 0.1481817653894403 0 0 0
1840 16 18.391005646901515 10.081111556726322 -0.2140323423286088 0 0 0
1844 14 22.280005646901515 10.081111556726322 -0.21403234232860915 0 0 0
1738 2 21.634046173824682 6.69163503315188 1.8666148891225705 0 0 0
1842 2 21.634046173824682 10.08163503315188 1.8666148891225702 0 0 0
1744 16 26.169005646901518 6.691111556726321 -0.21403234232861004 0 0 0
1849 1 27.46130398503482 8.385463115832463 0.1481817653894404 0 0 0
1848 16 26.169005646901518 10.081111556726322 -0.2140323423286103 0 0 0
1742 4 25.523046173824685 6.69163503315188 1.8666148891225685 0 0 0
1746 2 29.41204617382468 6.69163503315188 1.8666148891225693 0 0 0
1846 4 25.52304617382468 10.08163503315188 1.8666148891225676 0 0 0
1850 2 29.41204617382468 10.08163503315188 1.8666148891225696 0 0 0
1748 14 30.058005646901513 6.691111556726321 -0.21403234232860852 0 0 0
1752 16 33.947005646901516 6.691111556726322 -0.21403234232860796 0 0 0
1853 3 31.350303985034817 8.385463115832465 0.1481817653894399 0 0 0
1857 1 35.23930398503482 8.385463115832465 0.1481817653894398 0 0 0
1852 14 30.058005646901517 10.081111556726324 -0.21403234232860885 0 0 0
1856 16 33.947005646901516 10.081111556726322 -0.21403234232860757 0 0 0
1750 4 33.30104617382468 6.691635033151882 1.866614889122568 0 0 0
1854 4 33.30104617382468 10.081635033151882 1.866614889122569 0 0 0
1756 14 37.83600564690151 6.691111556726321 -0.21403234232860982 0 0 0
1861 3 39.12830398503482 8.385463115832465 0.14818176538943845 0 0 0
1860 14 37.83600564690152 10.081111556726322 -0.21403234232860985 0 0 0
1754 2 37.19004617382468 6.691635033151882 1.8666148891225691 0 0 0
1758 4 41.079046173824686 6.691635033151881 1.8666148891225647 0 0 0
1858 2 37.19004617382468 10.081635033151882 1.8666148891225702 0 0 0
1862 4 41.079046173824686 10.081635033151882 1.8666148891225658 0 0 0
1760 16 41.72500564690152 6.691111556726321 -0.2140323423286084 0 0 0
1764 14 45.61400564690152 6.691111556726321 -0.21403234232860502 0 0 0
1865 1 43.01730398503483 8.385463115832465 0.1481817653894386 0 0 0
1869 3 46.906303985034825 8.385463115832465 0.14818176538943986 0 0 0
1864 16 41.72500564690152 10.08111155672632 -0.21403234232860807 0 0 0
1868 14 45.61400564690152 10.08111155672632 -0.21403234232860685 0 0 0
1762 2 44.96804617382468 6.69163503315188 1.8666148891225685 0 0 0
1866 2 44.96804617382468 10.08163503315188 1.8666148891225698 0 0 0
1768 16 49.50300564690152 6.691111556726321 -0.21403234232860938 0 0 0
1769 1 50.79530398503483 8.385463115832465 0.14818176538943909 -1 0 0
1872 16 49.50300564690152 10.081111556726322 -0.21403234232860913 0 0 0
1766 4 48.857046173824685 6.691635033151883 1.8666148891225687 0 0 0
1666 2 52.74604617382468 6.69163503315188 1.8666148891225691 -1 0 0
1870 4 48.857046173824685 10.081635033151878 1.8666148891225685 0 0 0
1770 2 52.74604617382469 10.081635033151878 1.86661488912257 -1 0 0
1668 14 53.39200564690152 6.691111556726322 -0.21403234232860846 -1 0 0
1772 14 53.39200564690152 10.081111556726322 -0.21403234232860865 -1 0 0
1672 16 57.28100564690152 6.691111556726321 -0.2140323423286086 -1 0 0
1773 3 54.68430398503482 8.385463115832465 0.14818176538943872 -1 0 0
1777 1 58.573303985034826 8.385463115832465 0.14818176538944067 -1 0 0
1776 16 57.28100564690152 10.081111556726322 -0.2140323423286083 -1 0 0
1670 4 56.63504617382468 6.691635033151882 1.8666148891225687 -1 0 0
1774 4 56.63504617382468 10.08163503315188 1.86661488912257 -1 0 0
1676 14 61.17000564690152 6.691111556726321 -0.21403234232861024 -1 0 0
1680 16 65.05900564690153 6.691111556726322 -0.2140323423286108 -1 0 0
1781 3 62.46230398503483 8.385463115832465 0.14818176538944022 -1 0 0
1780 14 61.17000564690152 10.081111556726322 -0.21403234232860813 -1 0 0
1784 16 65.05900564690153 10.081111556726322 -0.21403234232861035 -1 0 0
1674 2 60.524046173824686 6.691635033151879 1.8666148891225705 -1 0 0
1678 4 64.4130461738247 6.691635033151879 1.866614889122569 -1 0 0
1778 2 60.524046173824686 10.081635033151882 1.8666148891225685 -1 0 0
1782 4 64.4130461738247 10.081635033151882 1.8666148891225687 -1 0 0
1684 14 68.94800564690152 6.691111556726322 -0.21403234232860954 -1 0 0
1785 1 66.35130398503482 8.385463115832465 0.14818176538944164 -1 0 0
1789 3 70.24030398503483 8.385463115832463 0.14818176538943909 -1 0 0
1788 14 68.94800564690152 10.081111556726322 -0.2140323423286089 -1 0 0
1682 2 68.30204617382468 6.691635033151881 1.8666148891225676 -1 0 0
1786 2 68.30204617382468 10.08163503315188 1.8666148891225685 -1 0 0
1688 16 72.83700564690153 6.691111556726322 -0.21403234232860477 -1 0 0
1692 14 76.72600564690153 6.691111556726322 -0.21403234232861137 -1 0 0
1793 1 74.12930398503482 8.385463115832467 0.14818176538944128 -1 0 0
1792 16 72.83700564690152 10.081111556726322 -0.21403234232860624 -1 0 0
1796 14 76.72600564690153 10.081111556726322 -0.21403234232861112 -1 0 0
1686 4 72.19104617382469 6.691635033151881 1.8666148891225676 -1 0 0
1690 2 76.08004617382468 6.691635033151881 1.8666148891225691 -1 0 0
1790 4 72.19104617382469 10.081635033151882 1.86661488912257 -1 0 0
1794 2 76.08004617382468 10.081635033151882 1.8666148891225691 -1 0 0
1696 16 80.61500564690152 6.691111556726322 -0.21403234232861051 -1 0 0
1797 3 78.01830398503482 8.385463115832465 0.14818176538944197 -1 0 0
1801 1 81.90730398503482 8.385463115832465 0.14818176538944192 -1 0 0
1800 16 80.61500564690152 10.081111556726322 -0.21403234232861015 -1 0 0
1694 4 79.96904617382468 6.69163503315188 1.8666148891225702 -1 0 0
1798 4 79.96904617382468 10.081635033151882 1.8666148891225707 -1 0 0
1700 14 84.50400564690152 6.691111556726321 -0.21403234232861115 -1 0 0
1704 16 88.39300564690153 6.691111556726321 -0.21403234232860854 -1 0 0
1805 3 85.79630398503481 8.385463115832465 0.14818176538944036 -1 0 0
1804 14 84.50400564690152 10.081111556726322 -0.21403234232861063 -1 0 0
1808 16 88.39300564690153 10.081111556726322 -0.21403234232860843 -1 0 0
1698 2 83.85804617382468 6.69163503315188 1.8666148891225696 -1 0 0
1702 4 87.74704617382469 6.69163503315188 1.8666148891225691 -1 0 0
1802 2 83.85804617382468 10.081635033151882 1.8666148891225702 -1 0 0
1806 4 87.74704617382467 10.081635033151882 1.8666148891225696 -1 0 0
1708 14 92.28200564690152 6.691111556726321 -0.21403234232860963 -1 0 0
1809 1 89.68530398503482 8.385463115832465 0.14818176538944605 -1 0 0
1813 3 93.57430398503482 8.385463115832467 0.1481817653894394 -1 0 0
1812 14 92.28200564690151 10.08111155672632 -0.21403234232860843 -1 0 0
1706 2 91.63604617382468 6.691635033151881 1.8666148891225713 -1 0 0
1810 2 91.63604617382468 10.08163503315188 1.866614889122573 -1 0 0
1712 16 96.17100564690152 6.691111556726322 -0.21403234232861137 -1 0 0
1716 14 100.06000564690152 6.691111556726322 -0.21403234232860854 -1 0 0
1817 1 97.46330398503481 8.385463115832465 0.1481817653894422 -1 0 0
1816 16 96.17100564690152 10.081111556726322 -0.2140323423286111 -1 0 0
1820 14 100.06000564690152 10.08111155672632 -0.21403234232860854 -1 0 0
1710 4 95.52504617382468 6.69163503315188 1.866614889122569 -1 0 0
1714 2 99.41404617382467 6.691635033151881 1.8666148891225696 -1 0 0
1814 4 95.52504617382468 10.081635033151882 1.8666148891225687 -1 0 0
1818 2 99.41404617382467 10.08163503315188 1.8666148891225698 -1 0 0
1925 3 0.2383039850348149 11.775463115832464 0.14818176538943995 0 0 0
1929 1 4.127303985034818 11.775463115832464 0.14818176538944108 0 0 0
1928 16 2.8350056469015157 13.471111556726322 -0.21403234232860902 0 0 0
2029 3 0.23830398503481398 15.165463115832466 0.14818176538944003 0 0 0
2033 1 4.127303985034818 15.165463115832466 0.14818176538944103 0 0 0
2032 16 2.8350056469015152 16.861111556726325 -0.21403234232860932 0 0 0
1926 4 2.1890461738246803 13.47163503315188 1.8666148891225685 0 0 0
2030 4 2.189046173824681 16.86163503315188 1.8666148891225685 0 0 0
1933 3 8.016303985034819 11.775463115832464 0.14818176538944142 0 0 0
1932 14 6.724005646901518 13.471111556726322 -0.21403234232860927 0 0 0
1936 16 10.613005646901515 13.471111556726322 -0.21403234232860943 0 0 0
2037 3 8.016303985034819 15.165463115832468 0.14818176538944067 0 0 0
2036 14 6.724005646901518 16.861111556726325 -0.21403234232860938 0 0 0
2040 16 10.613005646901515 16.861111556726325 -0.21403234232860974 0 0 0
1930 2 6.078046173824683 13.47163503315188 1.8666148891225687 0 0 0
1934 4 9.967046173824682 13.47163503315188 1.86661488912257 0 0 0
2034 2 6.078046173824684 16.861635033151884 1.8666148891225687 0 0 0
2038 4 9.967046173824682 16.86163503315188 1.86661488912257 0 0 0
1937 1 11.905303985034816 11.775463115832466 0.14818176538944086 0 0 0
2041 1 11.905303985034816 15.165463115832466 0.1481817653894411 0 0 0
1941 3 15.794303985034816 11.775463115832466 0.14818176538944006 0 0 0
1940 14 14.502005646901512 13.471111556726322 -0.21403234232860957 0 0 0
2045 3 15.794303985034816 15.165463115832466 0.14818176538944064 0 0 0
2044 14 14.502005646901514 16.861111556726325 -0.21403234232861015 0 0 0
1938 2 13.85604617382468 13.471635033151882 1.8666148891225687 0 0 0
1942 4 17.74504617382468 13.47163503315188 1.8666148891225687 0 0 0
2042 2 13.856046173824682 16.86163503315188 1.8666148891225691 0 0 0
2046 4 17.74504617382468 16.861635033151884 1.866614889122569 0 0 0
1945 1 19.68330398503482 11.775463115832466 0.1481817653894407 0 0 0
1949 3 23.572303985034818 11.775463115832466 0.14818176538944133 0 0 0
1944 16 18.391005646901515 13.471111556726322 -0.21403234232860788 0 0 0
1948 14 22.280005646901515 13.471111556726322 -0.2140323423286086 0 0 0
2049 1 19.683303985034815 15.165463115832468 0.14818176538944083 0 0 0
2053 3 23.572303985034818 15.165463115832466 0.14818176538944114 0 0 0
2048 16 18.391005646901515 16.861111556726325 -0.21403234232860766 0 0 0
2052 14 22.280005646901515 16.861111556726325 -0.21403234232860888 0 0 0
1946 2 21.63404617382468 13.47163503315188 1.8666148891225696 0 0 0
2050 2 21.63404617382468 16.861635033151884 1.8666148891225698 0 0 0
1953 1 27.461303985034817 11.775463115832466 0.1481817653894407 0 0 0
1952 16 26.169005646901518 13.471111556726322 -0.21403234232860982 0 0 0
2057 1 27.461303985034817 15.165463115832468 0.14818176538944033 0 0 0
2056 16 26.169005646901518 16.861111556726325 -0.21403234232861046 0 0 0
1950 4 25.52304617382468 13.47163503315188 1.866614889122568 0 0 0
1954 2 29.41204617382468 13.471635033151882 1.8666148891225682 0 0 0
2054 4 25.52304617382468 16.861635033151884 1.8666148891225671 0 0 0
2058 2 29.41204617382468 16.861635033151884 1.8666148891225691 0 0 0
1957 3 31.35030398503482 11.775463115832466 0.14818176538944117 0 0 0
1961 1 35.23930398503482 11.775463115832466 0.14818176538943983 0 0 0
1956 14 30.058005646901517 13.471111556726322 -0.214032342328608 0 0 0
1960 16 33.94700564690152 13.471111556726322 -0.21403234232860796 0 0 0
2061 3 31.35030398503482 15.165463115832468 0.14818176538944225 0 0 0
2065 1 35.23930398503482 15.165463115832468 0.14818176538944006 0 0 0
2060 14 30.058005646901513 16.861111556726325 -0.21403234232860816 0 0 0
2064 16 33.947005646901516 16.861111556726325 -0.2140323423286089 0 0 0
1958 4 33.30104617382468 13.471635033151882 1.8666148891225685 0 0 0
2062 4 33.30104617382468 16.861635033151884 1.866614889122568 0 0 0
1965 3 39.12830398503482 11.775463115832466 0.1481817653894383 0 0 0
1964 14 37.83600564690152 13.471111556726322 -0.21403234232860932 0 0 0
2069 3 39.12830398503482 15.165463115832466 0.1481817653894386 0 0 0
2068 14 37.83600564690151 16.861111556726325 -0.21403234232860982 0 0 0
1962 2 37.19004617382468 13.47163503315188 1.8666148891225698 0 0 0
1966 4 41.07904617382468 13.47163503315188 1.8666148891225678 0 0 0
2066 2 37.19004617382468 16.861635033151884 1.8666148891225696 0 0 0
2070 4 41.07904617382468 16.861635033151884 1.8666148891225673 0 0 0
1969 1 43.01730398503482 11.775463115832466 0.1481817653894421 0 0 0
1973 3 46.906303985034825 11.775463115832466 0.14818176538944075 0 0 0
1968 16 41.725005646901515 13.47111155672632 -0.21403234232860896 0 0 0
1972 14 45.61400564690152 13.471111556726322 -0.2140323423286079 0 0 0
2073 1 43.01730398503482 15.165463115832466 0.14818176538944236 0 0 0
2077 3 46.90630398503482 15.165463115832468 0.14818176538944283 0 0 0
2072 16 41.725005646901515 16.861111556726325 -0.21403234232860963 0 0 0
2076 14 45.61400564690152 16.861111556726325 -0.21403234232860643 0 0 0
1970 2 44.96804617382468 13.471635033151882 1.86661488912257 0 0 0
2074 2 44.968046173824675 16.86163503315188 1.8666148891225702 0 0 0
1873 1 50.79530398503483 11.775463115832466 0.1481817653894403 -1 0 0
1976 16 49.50300564690152 13.471111556726322 -0.21403234232860843 0 0 0
1977 1 50.79530398503482 15.165463115832466 0.14818176538943953 -1 0 0
2080 16 49.50300564690152 16.861111556726325 -0.2140323423286086 0 0 0
1974 4 48.857046173824685 13.471635033151882 1.8666148891225687 0 0 0
1874 2 52.74604617382469 13.471635033151884 1.8666148891225693 -1 0 0
2078 4 48.857046173824685 16.86163503315188 1.866614889122568 0 0 0
1978 2 52.74604617382469 16.86163503315188 1.866614889122569 -1 0 0
1876 14 53.392005646901524 13.471111556726322 -0.214032342328609 -1 0 0
1980 14 53.39200564690152 16.861111556726325 -0.21403234232860943 -1 0 0
1877 3 54.68430398503482 11.775463115832466 0.14818176538943822 -1 0 0
1881 1 58.573303985034826 11.775463115832466 0.14818176538944036 -1 0 0
1880 16 57.28100564690152 13.471111556726322 -0.21403234232860796 -1 0 0
1981 3 54.68430398503482 15.165463115832466 0.14818176538943903 -1 0 0
1985 1 58.573303985034826 15.165463115832466 0.1481817653894403 -1 0 0
1984 16 57.28100564690152 16.861111556726325 -0.2140323423286084 -1 0 0
1878 4 56.63504617382468 13.471635033151879 1.8666148891225693 -1 0 0
1982 4 56.63504617382468 16.861635033151884 1.8666148891225687 -1 0 0
1885 3 62.46230398503483 11.775463115832466 0.1481817653894408 -1 0 0
1884 14 61.17000564690152 13.47111155672632 -0.21403234232860913 -1 0 0
1888 16 65.05900564690153 13.471111556726324 -0.21403234232860927 -1 0 0
1989 3 62.46230398503482 15.165463115832468 0.14818176538944033 -1 0 0
1988 14 61.17000564690152 16.861111556726325 -0.21403234232860902 -1 0 0
1992 16 65.05900564690153 16.861111556726325 -0.21403234232860954 -1 0 0
1882 2 60.524046173824686 13.47163503315188 1.8666148891225678 -1 0 0
1886 4 64.4130461738247 13.471635033151882 1.8666148891225691 -1 0 0
1986 2 60.524046173824686 16.861635033151884 1.8666148891225682 -1 0 0
1990 4 64.4130461738247 16.86163503315188 1.866614889122569 -1 0 0
1889 1 66.35130398503482 11.775463115832466 0.14818176538944167 -1 0 0
1893 3 70.24030398503483 11.775463115832466 0.14818176538943822 -1 0 0
1892 14 68.94800564690152 13.471111556726322 -0.21403234232860852 -1 0 0
1993 1 66.35130398503482 15.165463115832466 0.14818176538944094 -1 0 0
1997 3 70.24030398503483 15.165463115832468 0.14818176538943828 -1 0 0
1996 14 68.94800564690152 16.861111556726325 -0.2140323423286093 -1 0 0
1890 2 68.30204617382468 13.471635033151882 1.8666148891225687 -1 0 0
1994 2 68.30204617382468 16.861635033151884 1.8666148891225687 -1 0 0
1897 1 74.12930398503482 11.775463115832462 0.1481817653894401 -1 0 0
1896 16 72.83700564690152 13.471111556726324 -0.21403234232860643 -1 0 0
1900 14 76.72600564690153 13.471111556726322 -0.2140323423286111 -1 0 0
2001 1 74.12930398503482 15.16546311583247 0.14818176538943947 -1 0 0
2000 16 72.83700564690152 16.861111556726325 -0.21403234232860666 -1 0 0
2004 14 76.72600564690153 16.861111556726325 -0.21403234232861132 -1 0 0
1894 4 72.19104617382467 13.47163503315188 1.8666148891225705 -1 0 0
1898 2 76.08004617382468 13.471635033151882 1.866614889122569 -1 0 0
1998 4 72.19104617382467 16.861635033151884 1.8666148891225711 -1 0 0
2002 2 76.08004617382468 16.861635033151884 1.866614889122569 -1 0 0
1901 3 78.01830398503482 11.775463115832466 0.14818176538944147 -1 0 0
1905 1 81.90730398503482 11.775463115832466 0.14818176538944142 -1 0 0
1904 16 80.61500564690152 13.471111556726322 -0.21403234232860982 -1 0 0
2005 3 78.01830398503482 15.165463115832466 0.14818176538944147 -1 0 0
2009 1 81.90730398503482 15.165463115832466 0.14818176538944147 -1 0 0
2008 16 80.61500564690152 16.861111556726325 -0.21403234232861065 -1 0 0
1902 4 79.96904617382468 13.471635033151882 1.866614889122571 -1 0 0
2006 4 79.96904617382468 16.861635033151884 1.8666148891225705 -1 0 0
1909 3 85.79630398503481 11.775463115832466 0.1481817653894401 -1 0 0
1908 14 84.50400564690152 13.471111556726324 -0.21403234232861046 -1 0 0
1912 16 88.39300564690153 13.471111556726322 -0.21403234232860785 -1 0 0
2013 3 85.79630398503481 15.165463115832466 0.14818176538944006 -1 0 0
2012 14 84.50400564690152 16.861111556726325 -0.21403234232861118 -1 0 0
2016 16 88.39300564690153 16.861111556726325 -0.21403234232860857 -1 0 0
1906 2 83.85804617382468 13.471635033151882 1.8666148891225705 -1 0 0
1910 4 87.74704617382467 13.471635033151882 1.8666148891225696 -1 0 0
2010 2 83.85804617382468 16.861635033151884 1.86661488912257 -1 0 0
2014 4 87.74704617382467 16.861635033151884 1.8666148891225696 -1 0 0
1913 1 89.68530398503482 11.775463115832466 0.1481817653894457 -1 0 0
1917 3 93.57430398503482 11.775463115832464 0.14818176538943742 -1 0 0
1916 14 92.28200564690151 13.471111556726324 -0.2140323423286085 -1 0 0
2017 1 89.68530398503482 15.165463115832466 0.14818176538944558 -1 0 0
2021 3 93.57430398503482 15.165463115832468 0.14818176538943745 -1 0 0
2020 14 92.28200564690151 16.861111556726325 -0.2140323423286087 -1 0 0
1914 2 91.63604617382468 13.471635033151882 1.866614889122572 -1 0 0
2018 2 91.63604617382468 16.861635033151884 1.866614889122572 -1 0 0
1921 1 97.46330398503481 11.775463115832466 0.1481817653894415 -1 0 0
1920 16 96.17100564690152 13.471111556726322 -0.2140323423286112 -1 0 0
1924 14 100.06000564690152 13.471111556726322 -0.21403234232860807 -1 0 0
2025 1 97.46330398503481 15.165463115832466 0.14818176538944156 -1 0 0
2024 16 96.17100564690152 16.861111556726325 -0.21403234232861157 -1 0 0
2028 14 100.06000564690152 16.861111556726325 -0.21403234232860854 -1 0 0
1918 4 95.52504617382468 13.471635033151882 1.8666148891225682 -1 0 0
1922 2 99.41404617382467 13.471635033151882 1.86661488912257 -1 0 0
2022 4 95.52504617382468 16.861635033151884 1.866614889122568 -1 0 0
2026 2 99.41404617382467 16.861635033151884 1.86661488912257 -1 0 0
2133 3 0.2383039850348142 18.555463115832467 0.14818176538943972 0 0 0
2137 1 4.127303985034818 18.555463115832467 0.1481817653894412 0 0 0
2136 16 2.8350056469015152 20.251111556726325 -0.21403234232860904 0 0 0
2237 3 0.23830398503481512 21.94546311583247 0.14818176538944045 0 0 0
2241 1 4.1273039850348185 21.945463115832467 0.14818176538944156 0 0 0
2134 4 2.189046173824681 20.251635033151885 1.866614889122569 0 0 0
2141 3 8.01630398503482 18.55546311583247 0.14818176538944114 0 0 0
2140 14 6.724005646901518 20.251111556726325 -0.21403234232860952 0 0 0
2144 16 10.613005646901515 20.251111556726325 -0.21403234232860924 0 0 0
2245 3 8.01630398503482 21.945463115832467 0.14818176538944136 0 0 0
2138 2 6.078046173824683 20.251635033151885 1.8666148891225693 0 0 0
2142 4 9.967046173824682 20.251635033151885 1.8666148891225702 0 0 0
2145 1 11.905303985034818 18.55546311583247 0.14818176538944083 0 0 0
2249 1 11.905303985034816 21.94546311583247 0.14818176538944167 0 0 0
2149 3 15.794303985034816 18.555463115832467 0.1481817653894402 0 0 0
2148 14 14.502005646901514 20.251111556726325 -0.21403234232860957 0 0 0
2253 3 15.794303985034816 21.945463115832467 0.14818176538944008 0 0 0
2146 2 13.856046173824682 20.251635033151885 1.866614889122569 0 0 0
2150 4 17.74504617382468 20.251635033151885 1.8666148891225702 0 0 0
2153 1 19.68330398503482 18.55546311583247 0.14818176538944067 0 0 0
2157 3 23.572303985034814 18.55546311583247 0.14818176538944 0 0 0
2152 16 18.391005646901515 20.251111556726325 -0.21403234232860816 0 0 0
2156 14 22.28000564690151 20.251111556726325 -0.2140323423286093 0 0 0
2257 1 19.683303985034815 21.94546311583247 0.14818176538944103 0 0 0
2261 3 23.572303985034814 21.945463115832467 0.14818176538944042 0 0 0
2154 2 21.634046173824682 20.251635033151885 1.866614889122571 0 0 0
2161 1 27.46130398503482 18.55546311583247 0.14818176538944064 0 0 0
2160 16 26.169005646901518 20.251111556726325 -0.21403234232861046 0 0 0
2265 1 27.46130398503482 21.945463115832467 0.1481817653894395 0 0 0
2158 4 25.52304617382468 20.25163503315188 1.8666148891225678 0 0 0