LAMMPS data file via write_data, version 29 Aug 2024, timestep = 1, units = metal

7872 atoms
4 atom types

0 100.614 xlo xhi
0 102.010864362576 ylo yhi
-50 111.99506243494761 zlo zhi

Masses

1 12.011
2 12.011
3 15.999
4 15.999

Atoms # atomic

2055 1 1.226998087205515 0.7084086173219493 0.0036619968710115613 0 0 0
2053 3 2.4539957949963065 1.2549715976002116e-06 0.819507895285193 0 0 0
2059 1 3.680998087205516 0.7084086173219493 0.0036619968710115574 0 0 0
2057 3 4.907995794996306 1.2549715985588553e-06 0.8195078952851919 0 0 0
2054 3 1.2269957949963317 2.1252275958585796 0.8195078952851836 0 0 0
2058 3 3.680995794996332 2.1252275958585796 0.8195078952851836 0 0 0
2056 1 2.4539980872054903 2.8336349582089313 0.003661996871002231 0 0 0
2060 1 4.907998087205489 2.8336349582089304 0.0036619968710033374 0 0 0
2219 1 1.226998087205515 4.9588612990959495 0.0036619968710115604 0 0 0
2217 3 2.4539957949963065 4.250453936745598 0.819507895285193 0 0 0
2223 1 3.680998087205516 4.9588612990959495 0.0036619968710115565 0 0 0
2221 3 4.907995794996306 4.250453936745599 0.8195078952851919 0 0 0
2063 1 6.134998087205502 0.7084086173219554 0.003661996871003535 0 0 0
2061 3 7.361995794996331 1.2549715985583098e-06 0.8195078952851919 0 0 0
2067 1 8.588998087205487 0.7084086173219493 0.003661996871011562 0 0 0
2065 3 9.815995794996331 1.2549715976000742e-06 0.819507895285193 0 0 0
2071 1 11.042998087205488 0.7084086173219493 0.003661996871011563 0 0 0
2062 3 6.1349957949963185 2.125227595858574 0.8195078952851916 0 0 0
2066 3 8.588995794996304 2.1252275958585796 0.8195078952851836 0 0 0
2070 3 11.042995794996305 2.1252275958585796 0.8195078952851836 0 0 0
2064 1 7.361998087205515 2.8336349582089304 0.003661996871003339 0 0 0
2068 1 9.815998087205514 2.8336349582089313 0.003661996871002236 0 0 0
2227 1 6.134998087205502 4.958861299095956 0.003661996871003535 0 0 0
2225 3 7.361995794996331 4.250453936745599 0.8195078952851919 0 0 0
2231 1 8.588998087205487 4.9588612990959495 0.003661996871011562 0 0 0
2229 3 9.815995794996331 4.250453936745598 0.819507895285193 0 0 0
2235 1 11.042998087205488 4.9588612990959495 0.0036619968710115613 0 0 0
2069 3 12.269995794996332 1.2549715965731827e-06 0.8195078952851942 0 0 0
2075 1 13.496998087205503 0.7084086173219424 0.0036619968710205294 0 0 0
2073 3 14.723995794996293 1.25497159149729e-06 0.819507895285201 0 0 0
2079 1 15.950998087205528 0.7084086173219554 0.0036619968710035426 0 0 0
2077 3 17.177995794996317 1.2549716054368889e-06 0.8195078952851829 0 0 0
2074 3 13.49699579499632 2.1252275958585867 0.8195078952851746 0 0 0
2078 3 15.950995794996345 2.125227595858574 0.8195078952851916 0 0 0
2072 1 12.269998087205515 2.833634958208932 0.003661996871001047 0 0 0
2076 1 14.723998087205477 2.8336349582089375 0.0036619968709941785 0 0 0
2080 1 17.177998087205502 2.8336349582089233 0.003661996871012278 0 0 0
2233 3 12.269995794996332 4.250453936745597 0.8195078952851942 0 0 0
2239 1 13.496998087205503 4.958861299095942 0.0036619968710205277 0 0 0
2237 3 14.723995794996293 4.250453936745592 0.819507895285201 0 0 0
2243 1 15.950998087205528 4.958861299095956 0.0036619968710035413 0 0 0
2241 3 17.177995794996317 4.250453936745606 0.8195078952851829 0 0 0
2083 1 18.404998087205474 0.7084086173219554 0.003661996871003545 0 0 0
2081 3 19.631995794996342 1.2549715914970828e-06 0.819507895285201 0 0 0
2087 1 20.858998087205503 0.7084086173219434 0.0036619968710193446 0 0 0
2085 3 22.085995794996315 1.25497160345179e-06 0.8195078952851852 0 0 0
2091 1 23.312998087205475 0.7084086173219554 0.0036619968710035404 0 0 0
2082 3 18.40499579499629 2.125227595858574 0.8195078952851916 0 0 0
2086 3 20.858995794996318 2.1252275958585853 0.8195078952851759 0 0 0
2090 3 23.31299579499629 2.125227595858574 0.8195078952851916 0 0 0
2084 1 19.631998087205528 2.8336349582089375 0.0036619968709941837 0 0 0
2088 1 22.0859980872055 2.8336349582089255 0.003661996871009983 0 0 0
2247 1 18.404998087205474 4.958861299095956 0.003661996871003545 0 0 0
2245 3 19.631995794996342 4.250453936745592 0.819507895285201 0 0 0
2251 1 20.858998087205503 4.958861299095943 0.0036619968710193446 0 0 0
2249 3 22.085995794996315 4.250453936745603 0.8195078952851852 0 0 0
2255 1 23.312998087205475 4.958861299095956 0.0036619968710035404 0 0 0
2089 3 24.539995794996344 1.2549715914970402e-06 0.819507895285201 0 0 0
2095 1 25.766998087205504 0.7084086173219434 0.0036619968710193455 0 0 0
2093 3 26.993995794996316 1.2549716034516067e-06 0.8195078952851852 0 0 0
2099 1 28.220998087205476 0.7084086173219554 0.0036619968710035434 0 0 0
2097 3 29.447995794996345 1.2549715914971603e-06 0.819507895285201 0 0 0
2094 3 25.76699579499632 2.1252275958585853 0.8195078952851759 0 0 0
2098 3 28.22099579499629 2.125227595858574 0.8195078952851916 0 0 0
2092 1 24.53999808720553 2.8336349582089375 0.003661996870994179 0 0 0
2096 1 26.9939980872055 2.8336349582089255 0.003661996871009984 0 0 0
2100 1 29.44799808720553 2.8336349582089375 0.003661996870994183 0 0 0
2253 3 24.539995794996344 4.250453936745592 0.819507895285201 0 0 0
2259 1 25.766998087205504 4.958861299095943 0.0036619968710193446 0 0 0
2257 3 26.993995794996316 4.250453936745603 0.8195078952851852 0 0 0
2263 1 28.220998087205476 4.958861299095956 0.003661996871003542 0 0 0
2261 3 29.447995794996345 4.250453936745592 0.819507895285201 0 0 0
2103 1 30.674998087205505 0.7084086173219434 0.0036619968710193446 0 0 0
2101 3 31.901995794996317 1.2549716034516342e-06 0.8195078952851852 0 0 0
2107 1 33.128998087205474 0.7084086173219554 0.0036619968710035434 0 0 0
2105 3 34.355995794996346 1.2549715914974532e-06 0.819507895285201 0 0 0
2102 3 30.67499579499632 2.1252275958585853 0.8195078952851759 0 0 0
2106 3 33.12899579499629 2.125227595858574 0.8195078952851916 0 0 0
2104 1 31.901998087205502 2.8336349582089255 0.003661996871009984 0 0 0
2108 1 34.35599808720553 2.8336349582089375 0.0036619968709941807 0 0 0
2267 1 30.674998087205505 4.958861299095943 0.0036619968710193446 0 0 0
2265 3 31.901995794996317 4.250453936745603 0.8195078952851852 0 0 0
2271 1 33.128998087205474 4.958861299095956 0.0036619968710035413 0 0 0
2269 3 34.355995794996346 4.250453936745592 0.819507895285201 0 0 0
2111 1 35.5829980872055 0.7084086173219414 0.0036619968710216357 0 0 0
2109 3 36.80999579499629 1.2549715914973532e-06 0.819507895285201 0 0 0
2115 1 38.036998087205525 0.7084086173219554 0.0036619968710035413 0 0 0
2113 3 39.26399579499632 1.2549716034517352e-06 0.8195078952851852 0 0 0
2119 1 40.490998087205504 0.7084086173219434 0.0036619968710193446 0 0 0
2110 3 35.58299579499632 2.1252275958585876 0.8195078952851735 0 0 0
2114 3 38.03699579499634 2.125227595858574 0.8195078952851916 0 0 0
2118 3 40.490995794996316 2.1252275958585853 0.8195078952851759 0 0 0
2112 1 36.80999808720547 2.8336349582089375 0.00366199687099418 0 0 0
2116 1 39.2639980872055 2.8336349582089255 0.003661996871009983 0 0 0
2275 1 35.5829980872055 4.9588612990959415 0.003661996871021635 0 0 0
2273 3 36.80999579499629 4.250453936745592 0.819507895285201 0 0 0
2279 1 38.036998087205525 4.958861299095956 0.0036619968710035404 0 0 0
2277 3 39.26399579499632 4.250453936745603 0.8195078952851852 0 0 0
2283 1 40.490998087205504 4.958861299095943 0.0036619968710193437 0 0 0
2117 3 41.71799579499629 1.2549715914970894e-06 0.819507895285201 0 0 0
2123 1 42.944998087205526 0.7084086173219554 0.003661996871003542 0 0 0
2121 3 44.17199579499632 1.254971603451555e-06 0.8195078952851852 0 0 0
2127 1 45.398998087205506 0.7084086173219434 0.0036619968710193437 0 0 0
2125 3 46.62599579499629 1.254971591497157e-06 0.819507895285201 0 0 0
2122 3 42.944995794996345 2.125227595858574 0.8195078952851916 0 0 0
2126 3 45.39899579499632 2.1252275958585853 0.8195078952851759 0 0 0
2120 1 41.71799808720547 2.8336349582089375 0.003661996870994183 0 0 0
2124 1 44.1719980872055 2.8336349582089255 0.003661996871009984 0 0 0
2128 1 46.625998087205474 2.8336349582089375 0.00366199687099418 0 0 0
2281 3 41.71799579499629 4.250453936745592 0.819507895285201 0 0 0
2287 1 42.944998087205526 4.958861299095956 0.0036619968710035413 0 0 0
2285 3 44.17199579499632 4.250453936745603 0.8195078952851852 0 0 0
2291 1 45.398998087205506 4.958861299095943 0.0036619968710193433 0 0 0
2289 3 46.62599579499629 4.250453936745592 0.819507895285201 0 0 0
2131 1 47.85299808720553 0.7084086173219554 0.0036619968710035404 0 0 0
2129 3 49.07999579499632 1.2549716044785918e-06 0.819507895285184 0 0 0
1971 1 50.30699808720549 0.7084086173219503 0.0036619968710103735 -1 0 0
1969 3 51.533995794996336 1.2549715976000863e-06 0.819507895285193 -1 0 0
1975 1 52.76099808720549 0.7084086173219493 0.0036619968710115613 -1 0 0
2130 3 47.852995794996346 2.125227595858574 0.8195078952851916 0 0 0
1970 3 50.306995794996304 2.1252275958585787 0.8195078952851849 -1 0 0
1974 3 52.76099579499631 2.1252275958585796 0.8195078952851836 -1 0 0
2132 1 49.0799980872055 2.8336349582089246 0.003661996871011169 0 0 0
1972 1 51.53399808720552 2.8336349582089313 0.0036619968710022333 -1 0 0
2295 1 47.85299808720553 4.958861299095956 0.0036619968710035404 0 0 0
2293 3 49.07999579499632 4.250453936745605 0.819507895285184 0 0 0
2135 1 50.30699808720549 4.95886129909595 0.003661996871010372 -1 0 0
2133 3 51.533995794996336 4.250453936745598 0.819507895285193 -1 0 0
2139 1 52.76099808720549 4.9588612990959495 0.00366199687101156 -1 0 0
1973 3 53.98799579499634 1.254971597600178e-06 0.819507895285193 -1 0 0
1979 1 55.214998087205494 0.7084086173219493 0.0036619968710115604 -1 0 0
1977 3 56.44199579499634 1.254971597600132e-06 0.819507895285193 -1 0 0
1983 1 57.668998087205495 0.7084086173219493 0.003661996871011562 -1 0 0
1981 3 58.89599579499634 1.2549715976001589e-06 0.819507895285193 -1 0 0
1978 3 55.21499579499631 2.1252275958585796 0.8195078952851836 -1 0 0
1982 3 57.66899579499631 2.1252275958585796 0.8195078952851836 -1 0 0
1976 1 53.98799808720552 2.8336349582089313 0.0036619968710022324 -1 0 0
1980 1 56.44199808720552 2.8336349582089313 0.0036619968710022324 -1 0 0
1984 1 58.89599808720552 2.8336349582089313 0.003661996871002235 -1 0 0
2137 3 53.98799579499634 4.250453936745598 0.819507895285193 -1 0 0
2143 1 55.214998087205494 4.9588612990959495 0.003661996871011559 -1 0 0
2141 3 56.44199579499634 4.250453936745598 0.819507895285193 -1 0 0
2147 1 57.668998087205495 4.9588612990959495 0.0036619968710115604 -1 0 0
2145 3 58.89599579499634 4.250453936745598 0.819507895285193 -1 0 0
1985 3 61.349995794996325 1.2549715915430917e-06 0.819507895285201 -1 0 0
1987 1 60.122998087205495 0.7084086173219484 0.0036619968710126694 -1 0 0
1991 1 62.57699808720552 0.7084086173219494 0.003661996871011484 -1 0 0
1989 3 63.803995794996325 1.2549716024928584e-06 0.8195078952851863 -1 0 0
1995 1 65.0309980872055 0.7084086173219434 0.0036619968710193446 -1 0 0
1986 3 60.12299579499631 2.1252275958585805 0.8195078952851825 -1 0 0
1990 3 62.576995794996336 2.1252275958585796 0.8195078952851838 -1 0 0
1994 3 65.03099579499633 2.1252275958585853 0.8195078952851759 -1 0 0
1988 1 61.349998087205506 2.8336349582089375 0.003661996870994247 -1 0 0
1992 1 63.80399808720551 2.8336349582089264 0.0036619968710088786 -1 0 0
2149 3 61.349995794996325 4.250453936745592 0.819507895285201 -1 0 0
2151 1 60.122998087205495 4.958861299095949 0.003661996871012668 -1 0 0
2155 1 62.57699808720552 4.9588612990959495 0.0036619968710114815 -1 0 0
2153 3 63.803995794996325 4.250453936745602 0.8195078952851863 -1 0 0
2159 1 65.0309980872055 4.958861299095943 0.0036619968710193424 -1 0 0
1993 3 66.2579957949963 1.254971591497242e-06 0.819507895285201 -1 0 0
1999 1 67.48499808720554 0.7084086173219554 0.0036619968710035395 -1 0 0
1997 3 68.71199579499633 1.2549716054372063e-06 0.8195078952851829 -1 0 0
2003 1 69.93899808720548 0.7084086173219554 0.0036619968710035413 -1 0 0
1998 3 67.48499579499635 2.125227595858574 0.8195078952851916 -1 0 0
2002 3 69.9389957949963 2.125227595858574 0.8195078952851916 -1 0 0
1996 1 66.25799808720548 2.8336349582089375 0.0036619968709941785 -1 0 0
2000 1 68.7119980872055 2.8336349582089233 0.003661996871012273 -1 0 0
2157 3 66.2579957949963 4.250453936745592 0.819507895285201 -1 0 0
2163 1 67.48499808720554 4.958861299095956 0.0036619968710035387 -1 0 0
2161 3 68.71199579499633 4.250453936745606 0.8195078952851829 -1 0 0
2167 1 69.93899808720548 4.958861299095956 0.0036619968710035413 -1 0 0
2001 3 71.16599579499635 1.2549715914970936e-06 0.819507895285201 -1 0 0
2007 1 72.39299808720551 0.7084086173219434 0.0036619968710193476 -1 0 0
2005 3 73.61999579499633 1.254971603451476e-06 0.8195078952851852 -1 0 0
2011 1 74.84699808720548 0.7084086173219554 0.0036619968710035434 -1 0 0
2009 3 76.07399579499635 1.254971591497422e-06 0.819507895285201 -1 0 0
2006 3 72.39299579499632 2.1252275958585853 0.8195078952851759 -1 0 0
2010 3 74.8469957949963 2.125227595858574 0.8195078952851916 -1 0 0
2004 1 71.16599808720554 2.8336349582089375 0.003661996870994183 -1 0 0
2008 1 73.6199980872055 2.8336349582089255 0.0036619968710099858 -1 0 0
2012 1 76.07399808720554 2.8336349582089375 0.00366199687099418 -1 0 0
2165 3 71.16599579499635 4.250453936745592 0.819507895285201 -1 0 0
2171 1 72.39299808720551 4.958861299095943 0.0036619968710193476 -1 0 0
2169 3 73.61999579499633 4.250453936745603 0.8195078952851852 -1 0 0
2175 1 74.84699808720548 4.958861299095956 0.0036619968710035404 -1 0 0
2173 3 76.07399579499635 4.250453936745592 0.819507895285201 -1 0 0
2015 1 77.3009980872055 0.7084086173219414 0.003661996871021635 -1 0 0
2013 3 78.5279957949963 1.2549715914974764e-06 0.819507895285201 -1 0 0
2017 3 80.98199579499632 1.2549716034514218e-06 0.8195078952851852 -1 0 0
2019 1 79.75499808720554 0.7084086173219554 0.003661996871003542 -1 0 0
2023 1 82.2089980872055 0.7084086173219454 0.0036619968710170543 -1 0 0
2014 3 77.30099579499633 2.1252275958585876 0.8195078952851735 -1 0 0
2018 3 79.75499579499635 2.125227595858574 0.8195078952851916 -1 0 0
2022 3 82.20899579499633 2.1252275958585836 0.8195078952851781 -1 0 0
2016 1 78.52799808720548 2.8336349582089375 0.003661996870994179 -1 0 0
2020 1 80.98199808720551 2.8336349582089255 0.003661996871009985 -1 0 0
2179 1 77.3009980872055 4.9588612990959415 0.0036619968710216344 -1 0 0
2177 3 78.5279957949963 4.250453936745592 0.819507895285201 -1 0 0
2181 3 80.98199579499632 4.250453936745603 0.8195078952851852 -1 0 0
2183 1 79.75499808720554 4.958861299095956 0.0036619968710035413 -1 0 0
2187 1 82.2089980872055 4.958861299095945 0.0036619968710170534 -1 0 0
2021 3 83.43599579499633 1.2549716034516575e-06 0.8195078952851852 -1 0 0
2027 1 84.66299808720548 0.7084086173219554 0.0036619968710035434 -1 0 0
2025 3 85.88999579499635 1.2549715934826695e-06 0.8195078952851987 -1 0 0
2031 1 87.11699808720547 0.7084086173219534 0.0036619968710058324 -1 0 0
2029 3 88.34399579499635 1.254971591497186e-06 0.819507895285201 -1 0 0
2026 3 84.6629957949963 2.125227595858574 0.8195078952851916 -1 0 0
2030 3 87.1169957949963 2.1252275958585756 0.8195078952851893 -1 0 0
2024 1 83.4359980872055 2.8336349582089255 0.003661996871009985 -1 0 0
2028 1 85.88999808720553 2.8336349582089353 0.003661996870996471 -1 0 0
2032 1 88.34399808720553 2.8336349582089375 0.0036619968709941785 -1 0 0
2185 3 83.43599579499633 4.250453936745603 0.8195078952851852 -1 0 0
2191 1 84.66299808720548 4.958861299095956 0.003661996871003542 -1 0 0
2189 3 85.88999579499635 4.250453936745593 0.8195078952851987 -1 0 0
2195 1 87.11699808720547 4.958861299095953 0.0036619968710058315 -1 0 0
2193 3 88.34399579499635 4.250453936745592 0.819507895285201 -1 0 0
2035 1 89.57099808720551 0.7084086173219434 0.0036619968710193437 -1 0 0
2033 3 90.79799579499633 1.2549716014659406e-06 0.8195078952851875 -1 0 0
2039 1 92.0249980872055 0.7084086173219434 0.0036619968710193485 -1 0 0
2037 3 93.2519957949963 1.2549715914971656e-06 0.819507895285201 -1 0 0
2043 1 94.47899808720553 0.7084086173219534 0.0036619968710058346 -1 0 0
2034 3 89.57099579499632 2.1252275958585853 0.8195078952851759 -1 0 0
2038 3 92.02499579499633 2.1252275958585853 0.8195078952851759 -1 0 0
2042 3 94.47899579499635 2.1252275958585756 0.8195078952851893 -1 0 0
2036 1 90.7979980872055 2.8336349582089273 0.003661996871007692 -1 0 0
2040 1 93.25199808720548 2.8336349582089375 0.003661996870994183 -1 0 0
2199 1 89.57099808720551 4.958861299095943 0.0036619968710193424 -1 0 0
2197 3 90.79799579499633 4.250453936745601 0.8195078952851875 -1 0 0
2203 1 92.0249980872055 4.958861299095943 0.003661996871019347 -1 0 0
2201 3 93.2519957949963 4.250453936745592 0.819507895285201 -1 0 0
2207 1 94.47899808720553 4.958861299095953 0.0036619968710058337 -1 0 0
2049 3 100.61399579499631 1.2549715965728805e-06 0.8195078952851942 -1 0 0
2052 1 100.61399808720549 2.833634958208932 0.003661996871001047 -1 0 0
2213 3 100.61399579499631 4.250453936745597 0.8195078952851942 -1 0 0
2041 3 95.7059957949963 1.2549715934826098e-06 0.8195078952851987 -1 0 0
2047 1 96.93299808720553 0.7084086173219554 0.0036619968710035395 -1 0 0
2045 3 98.15999579499632 1.254971603451443e-06 0.8195078952851852 -1 0 0
2051 1 99.3869980872055 0.7084086173219444 0.0036619968710182374 -1 0 0
2046 3 96.93299579499634 2.125227595858574 0.8195078952851916 -1 0 0
2050 3 99.38699579499632 2.1252275958585845 0.819507895285177 -1 0 0
2044 1 95.70599808720547 2.8336349582089353 0.003661996870996472 -1 0 0
2048 1 98.15999808720551 2.8336349582089255 0.003661996871009984 -1 0 0
2205 3 95.7059957949963 4.250453936745593 0.8195078952851987 -1 0 0
2211 1 96.93299808720553 4.958861299095956 0.0036619968710035395 -1 0 0
2209 3 98.15999579499632 4.250453936745603 0.8195078952851852 -1 0 0
2215 1 99.3869980872055 4.958861299095944 0.0036619968710182374 -1 0 0
2218 3 1.2269957949963317 6.37568027763258 0.8195078952851836 0 0 0
2222 3 3.680995794996332 6.37568027763258 0.8195078952851836 0 0 0
2220 1 2.4539980872054903 7.084087639982932 0.003661996871002232 0 0 0
2224 1 4.907998087205489 7.08408763998293 0.0036619968710033353 0 0 0
2381 3 2.4539957949963065 8.500906618519597 0.819507895285193 0 0 0
2385 3 4.907995794996306 8.500906618519599 0.8195078952851919 0 0 0
2383 1 1.226998087205515 9.209313980869949 0.0036619968710115613 0 0 0
2387 1 3.680998087205516 9.209313980869949 0.0036619968710115574 0 0 0
2382 3 1.2269957949963317 10.626132959406581 0.8195078952851848 0 0 0
2384 1 2.4539980872054903 11.334540321756949 0.003661996871016167 0 0 0
2386 3 3.680995794996332 10.626132959406581 0.8195078952851848 0 0 0
2388 1 4.907998087205489 11.334540321756947 0.0036619968710172725 0 0 0
2226 3 6.1349957949963185 6.375680277632574 0.8195078952851916 0 0 0
2230 3 8.588995794996304 6.37568027763258 0.8195078952851836 0 0 0
2234 3 11.042995794996305 6.37568027763258 0.8195078952851836 0 0 0
2228 1 7.361998087205515 7.08408763998293 0.003661996871003339 0 0 0
2232 1 9.815998087205514 7.084087639982932 0.003661996871002234 0 0 0
2389 3 7.361995794996331 8.500906618519599 0.8195078952851919 0 0 0
2393 3 9.815995794996331 8.500906618519597 0.819507895285193 0 0 0
2391 1 6.134998087205502 9.209313980869956 0.0036619968710035365 0 0 0
2395 1 8.588998087205487 9.209313980869949 0.003661996871011563 0 0 0
2399 1 11.042998087205488 9.209313980869949 0.003661996871011562 0 0 0
2390 3 6.1349957949963185 10.626132959406576 0.8195078952851929 0 0 0
2392 1 7.361998087205515 11.334540321756947 0.003661996871017275 0 0 0
2394 3 8.588995794996304 10.626132959406581 0.8195078952851848 0 0 0
2396 1 9.815998087205514 11.334540321756949 0.003661996871016171 0 0 0
2398 3 11.042995794996305 10.626132959406581 0.8195078952851848 0 0 0
2238 3 13.49699579499632 6.375680277632586 0.8195078952851746 0 0 0
2242 3 15.950995794996345 6.375680277632574 0.8195078952851916 0 0 0
2236 1 12.269998087205515 7.084087639982933 0.0036619968710010463 0 0 0
2240 1 14.723998087205477 7.084087639982937 0.0036619968709941785 0 0 0
2244 1 17.177998087205502 7.084087639982924 0.0036619968710122778 0 0 0
2397 3 12.269995794996332 8.500906618519597 0.8195078952851942 0 0 0
2401 3 14.723995794996293 8.500906618519592 0.819507895285201 0 0 0
2405 3 17.177995794996317 8.500906618519606 0.8195078952851829 0 0 0
2403 1 13.496998087205503 9.209313980869943 0.0036619968710205294 0 0 0
2407 1 15.950998087205528 9.209313980869956 0.003661996871003542 0 0 0
2400 1 12.269998087205515 11.334540321756949 0.003661996871014983 0 0 0
2402 3 13.49699579499632 10.626132959406588 0.8195078952851758 0 0 0
2404 1 14.723998087205477 11.334540321756954 0.0036619968710081543 0 0 0
2406 3 15.950995794996345 10.626132959406576 0.8195078952851927 0 0 0
2408 1 17.177998087205502 11.33454032175694 0.0036619968710262475 0 0 0
2246 3 18.40499579499629 6.375680277632574 0.8195078952851916 0 0 0
2250 3 20.858995794996318 6.375680277632585 0.8195078952851759 0 0 0
2254 3 23.31299579499629 6.375680277632574 0.8195078952851916 0 0 0
2248 1 19.631998087205528 7.084087639982937 0.0036619968709941816 0 0 0
2252 1 22.0859980872055 7.084087639982926 0.003661996871009982 0 0 0
2409 3 19.631995794996342 8.500906618519592 0.819507895285201 0 0 0
2413 3 22.085995794996315 8.500906618519604 0.8195078952851852 0 0 0
2411 1 18.404998087205474 9.209313980869956 0.003661996871003545 0 0 0
2415 1 20.858998087205503 9.209313980869943 0.0036619968710193455 0 0 0
2419 1 23.312998087205475 9.209313980869956 0.003661996871003542 0 0 0
2410 3 18.40499579499629 10.626132959406576 0.8195078952851927 0 0 0
2414 3 20.858995794996318 10.626132959406588 0.819507895285177 0 0 0
2412 1 19.631998087205528 11.334540321756954 0.0036619968710081574 0 0 0
2416 1 22.0859980872055 11.334540321756942 0.0036619968710239516 0 0 0
2418 3 23.31299579499629 10.626132959406576 0.8195078952851927 0 0 0
2258 3 25.76699579499632 6.375680277632585 0.8195078952851759 0 0 0
2262 3 28.22099579499629 6.375680277632574 0.8195078952851916 0 0 0
2256 1 24.53999808720553 7.084087639982937 0.0036619968709941785 0 0 0
2260 1 26.9939980872055 7.084087639982926 0.0036619968710099827 0 0 0
2264 1 29.44799808720553 7.084087639982937 0.0036619968709941807 0 0 0
2417 3 24.539995794996344 8.500906618519592 0.819507895285201 0 0 0
2421 3 26.993995794996316 8.500906618519604 0.8195078952851852 0 0 0
2425 3 29.447995794996345 8.500906618519592 0.819507895285201 0 0 0
2423 1 25.766998087205504 9.209313980869943 0.0036619968710193446 0 0 0
2427 1 28.220998087205476 9.209313980869956 0.0036619968710035434 0 0 0
2420 1 24.53999808720553 11.334540321756954 0.003661996871008154 0 0 0
2422 3 25.76699579499632 10.626132959406588 0.819507895285177 0 0 0
2424 1 26.9939980872055 11.334540321756942 0.0036619968710239533 0 0 0
2426 3 28.22099579499629 10.626132959406576 0.8195078952851927 0 0 0
2428 1 29.44799808720553 11.334540321756954 0.003661996871008157 0 0 0
2266 3 30.67499579499632 6.375680277632585 0.8195078952851759 0 0 0
2270 3 33.12899579499629 6.375680277632574 0.8195078952851916 0 0 0
2268 1 31.901998087205502 7.084087639982926 0.003661996871009983 0 0 0
2272 1 34.35599808720553 7.084087639982937 0.0036619968709941785 0 0 0
2429 3 31.901995794996317 8.500906618519604 0.8195078952851852 0 0 0
2433 3 34.355995794996346 8.500906618519592 0.819507895285201 0 0 0
2431 1 30.674998087205505 9.209313980869943 0.0036619968710193455 0 0 0
2435 1 33.128998087205474 9.209313980869956 0.0036619968710035426 0 0 0
2430 3 30.67499579499632 10.626132959406588 0.819507895285177 0 0 0
2432 1 31.901998087205502 11.334540321756942 0.003661996871023954 0 0 0
2434 3 33.12899579499629 10.626132959406576 0.8195078952851927 0 0 0
2436 1 34.35599808720553 11.334540321756954 0.0036619968710081543 0 0 0
2274 3 35.58299579499632 6.375680277632587 0.8195078952851735 0 0 0
2278 3 38.03699579499634 6.375680277632574 0.8195078952851916 0 0 0
2282 3 40.490995794996316 6.375680277632585 0.8195078952851759 0 0 0
2276 1 36.80999808720547 7.084087639982937 0.0036619968709941807 0 0 0
2280 1 39.2639980872055 7.084087639982926 0.0036619968710099827 0 0 0
2437 3 36.80999579499629 8.500906618519592 0.819507895285201 0 0 0
2441 3 39.26399579499632 8.500906618519604 0.8195078952851852 0 0 0
2439 1 35.5829980872055 9.209313980869942 0.0036619968710216375 0 0 0
2443 1 38.036998087205525 9.209313980869956 0.0036619968710035413 0 0 0
2447 1 40.490998087205504 9.209313980869943 0.0036619968710193463 0 0 0
2438 3 35.58299579499632 10.62613295940659 0.8195078952851746 0 0 0
2440 1 36.80999808720547 11.334540321756954 0.003661996871008156 0 0 0
2442 3 38.03699579499634 10.626132959406576 0.8195078952851927 0 0 0
2446 3 40.490995794996316 10.626132959406588 0.819507895285177 0 0 0
2444 1 39.2639980872055 11.334540321756942 0.0036619968710239524 0 0 0
2286 3 42.944995794996345 6.375680277632574 0.8195078952851916 0 0 0
2290 3 45.39899579499632 6.375680277632585 0.8195078952851759 0 0 0
2284 1 41.71799808720547 7.084087639982937 0.003661996870994182 0 0 0
2288 1 44.1719980872055 7.084087639982926 0.003661996871009983 0 0 0
2292 1 46.625998087205474 7.084087639982937 0.0036619968709941807 0 0 0
2445 3 41.71799579499629 8.500906618519592 0.819507895285201 0 0 0
2449 3 44.17199579499632 8.500906618519604 0.8195078952851852 0 0 0
2453 3 46.62599579499629 8.500906618519592 0.819507895285201 0 0 0
2451 1 42.944998087205526 9.209313980869956 0.0036619968710035426 0 0 0
2455 1 45.398998087205506 9.209313980869943 0.0036619968710193446 0 0 0
2448 1 41.71799808720547 11.334540321756954 0.0036619968710081574 0 0 0
2450 3 42.944995794996345 10.626132959406576 0.8195078952851927 0 0 0
2452 1 44.1719980872055 11.334540321756942 0.0036619968710239533 0 0 0
2454 3 45.39899579499632 10.626132959406588 0.819507895285177 0 0 0
2456 1 46.625998087205474 11.334540321756954 0.003661996871008155 0 0 0
2294 3 47.852995794996346 6.375680277632574 0.8195078952851916 0 0 0
2134 3 50.306995794996304 6.375680277632578 0.8195078952851849 -1 0 0
2138 3 52.76099579499631 6.37568027763258 0.8195078952851836 -1 0 0
2296 1 49.0799980872055 7.084087639982925 0.003661996871011168 0 0 0
2136 1 51.53399808720552 7.084087639982932 0.003661996871002232 -1 0 0
2457 3 49.07999579499632 8.500906618519604 0.819507895285184 0 0 0
2297 3 51.533995794996336 8.500906618519597 0.819507895285193 -1 0 0
2459 1 47.85299808720553 9.209313980869956 0.003661996871003542 0 0 0
2299 1 50.30699808720549 9.20931398086995 0.0036619968710103735 -1 0 0
2303 1 52.76099808720549 9.209313980869949 0.0036619968710115604 -1 0 0
2458 3 47.852995794996346 10.626132959406576 0.8195078952851927 0 0 0
2460 1 49.0799980872055 11.334540321756942 0.0036619968710251386 0 0 0
2298 3 50.306995794996304 10.626132959406581 0.819507895285186 -1 0 0
2300 1 51.53399808720552 11.334540321756949 0.003661996871016168 -1 0 0
2302 3 52.76099579499631 10.626132959406581 0.8195078952851848 -1 0 0
2142 3 55.21499579499631 6.37568027763258 0.8195078952851836 -1 0 0
2146 3 57.66899579499631 6.37568027763258 0.8195078952851836 -1 0 0
2140 1 53.98799808720552 7.084087639982932 0.003661996871002232 -1 0 0
2144 1 56.44199808720552 7.084087639982932 0.0036619968710022324 -1 0 0
2148 1 58.89599808720552 7.084087639982932 0.003661996871002234 -1 0 0
2301 3 53.98799579499634 8.500906618519597 0.819507895285193 -1 0 0
2305 3 56.44199579499634 8.500906618519597 0.819507895285193 -1 0 0
2309 3 58.89599579499634 8.500906618519597 0.819507895285193 -1 0 0
2307 1 55.214998087205494 9.209313980869949 0.003661996871011559 -1 0 0
2311 1 57.668998087205495 9.209313980869949 0.0036619968710115604 -1 0 0
2304 1 53.98799808720552 11.334540321756949 0.0036619968710161683 -1 0 0
2306 3 55.21499579499631 10.626132959406581 0.8195078952851848 -1 0 0
2308 1 56.44199808720552 11.334540321756949 0.003661996871016169 -1 0 0
2310 3 57.66899579499631 10.626132959406581 0.8195078952851848 -1 0 0
2312 1 58.89599808720552 11.334540321756949 0.00366199687101617 -1 0 0
2150 3 60.12299579499631 6.375680277632581 0.8195078952851825 -1 0 0
2154 3 62.576995794996336 6.37568027763258 0.8195078952851838 -1 0 0
2158 3 65.03099579499633 6.375680277632585 0.8195078952851759 -1 0 0
2152 1 61.349998087205506 7.084087639982937 0.0036619968709942466 -1 0 0
2156 1 63.80399808720551 7.0840876399829265 0.003661996871008877 -1 0 0
2313 3 61.349995794996325 8.500906618519592 0.819507895285201 -1 0 0
2317 3 63.803995794996325 8.500906618519602 0.8195078952851863 -1 0 0
2315 1 60.122998087205495 9.209313980869949 0.003661996871012668 -1 0 0
2319 1 62.57699808720552 9.209313980869949 0.003661996871011484 -1 0 0
2323 1 65.0309980872055 9.209313980869943 0.0036619968710193437 -1 0 0
2314 3 60.12299579499631 10.626132959406583 0.8195078952851836 -1 0 0
2316 1 61.349998087205506 11.334540321756954 0.003661996871008149 -1 0 0
2318 3 62.576995794996336 10.626132959406581 0.8195078952851849 -1 0 0
2320 1 63.80399808720551 11.334540321756943 0.003661996871022846 -1 0 0
2322 3 65.03099579499633 10.626132959406588 0.819507895285177 -1 0 0
2162 3 67.48499579499635 6.375680277632574 0.8195078952851916 -1 0 0
2166 3 69.9389957949963 6.375680277632574 0.8195078952851916 -1 0 0
2160 1 66.25799808720548 7.084087639982937 0.003661996870994179 -1 0 0
2164 1 68.7119980872055 7.084087639982924 0.003661996871012274 -1 0 0
2321 3 66.2579957949963 8.500906618519592 0.819507895285201 -1 0 0
2325 3 68.71199579499633 8.500906618519606 0.8195078952851829 -1 0 0
2327 1 67.48499808720554 9.209313980869956 0.0036619968710035382 -1 0 0
2331 1 69.93899808720548 9.209313980869956 0.0036619968710035426 -1 0 0
2324 1 66.25799808720548 11.334540321756954 0.0036619968710081543 -1 0 0
2326 3 67.48499579499635 10.626132959406576 0.8195078952851927 -1 0 0
2328 1 68.7119980872055 11.33454032175694 0.0036619968710262427 -1 0 0
2330 3 69.9389957949963 10.626132959406576 0.8195078952851927 -1 0 0
2170 3 72.39299579499632 6.375680277632585 0.8195078952851759 -1 0 0
2174 3 74.8469957949963 6.375680277632574 0.8195078952851916 -1 0 0
2168 1 71.16599808720554 7.084087639982937 0.003661996870994182 -1 0 0
2172 1 73.6199980872055 7.084087639982926 0.003661996871009984 -1 0 0