LAMMPS data file via write_data, version 29 Aug 2024, timestep = 1, units = metal

11808 atoms
6 atom types

0 100.614 xlo xhi
0 102.010864362576 ylo yhi
-50 117.99012486989523 zlo zhi

Masses

1 12.011
2 12.011
3 12.011
4 15.999
5 15.999
6 15.999

Atoms # atomic

2055 1 1.2269982232283374 0.7084086289113045 0.003401584602667677 0 0 0
2053 4 2.4539960940229277 1.165727938484811e-06 0.8194006656928492 0 0 0
2059 1 3.6809982232283383 0.7084086289113045 0.0034015846026676736 0 0 0
2057 4 4.907996094022927 1.1657279393752836e-06 0.8194006656928482 0 0 0
2054 4 1.2269960940229505 2.125227506614922 0.8194006656928405 0 0 0
2058 4 3.680996094022951 2.125227506614922 0.8194006656928405 0 0 0
2056 1 2.4539982232283144 2.833634969798288 0.0034015846026590104 0 0 0
2060 1 4.907998223228314 2.833634969798287 0.0034015846026600382 0 0 0
2219 1 1.2269982232283374 4.958861310685305 0.003401584602667676 0 0 0
2217 4 2.4539960940229277 4.250453847501938 0.8194006656928492 0 0 0
2223 1 3.6809982232283383 4.958861310685305 0.0034015846026676727 0 0 0
2221 4 4.907996094022927 4.250453847501939 0.8194006656928482 0 0 0
2063 1 6.134998223228325 0.7084086289113101 0.0034015846026602217 0 0 0
2061 4 7.36199609402295 1.1657279393747769e-06 0.8194006656928482 0 0 0
2067 1 8.588998223228312 0.7084086289113045 0.003401584602667678 0 0 0
2065 4 9.81599609402295 1.1657279384846835e-06 0.8194006656928492 0 0 0
2071 1 11.042998223228313 0.7084086289113045 0.0034015846026676784 0 0 0
2062 4 6.134996094022938 2.1252275066149164 0.819400665692848 0 0 0
2066 4 8.588996094022926 2.125227506614922 0.8194006656928405 0 0 0
2070 4 11.042996094022927 2.125227506614922 0.8194006656928405 0 0 0
2064 1 7.361998223228337 2.833634969798287 0.0034015846026600395 0 0 0
2068 1 9.815998223228336 2.833634969798288 0.0034015846026590147 0 0 0
2227 1 6.134998223228325 4.95886131068531 0.0034015846026602217 0 0 0
2225 4 7.36199609402295 4.250453847501939 0.8194006656928482 0 0 0
2231 1 8.588998223228312 4.958861310685305 0.003401584602667678 0 0 0
2229 4 9.81599609402295 4.250453847501938 0.8194006656928492 0 0 0
2235 1 11.042998223228313 4.958861310685305 0.003401584602667677 0 0 0
2069 4 12.26999609402295 1.1657279375308162e-06 0.8194006656928503 0 0 0
2075 1 13.496998223228326 0.7084086289112981 0.0034015846026760072 0 0 0
2073 4 14.723996094022915 1.165727932815881e-06 0.8194006656928566 0 0 0
2079 1 15.95099822322835 0.7084086289113101 0.0034015846026602286 0 0 0
2077 4 17.177996094022937 1.1657279457642058e-06 0.8194006656928399 0 0 0
2074 4 13.49699609402294 2.1252275066149284 0.8194006656928322 0 0 0
2078 4 15.950996094022964 2.1252275066149164 0.819400665692848 0 0 0
2072 1 12.269998223228338 2.833634969798289 0.0034015846026579106 0 0 0
2076 1 14.723998223228302 2.8336349697982937 0.0034015846026515303 0 0 0
2080 1 17.177998223228325 2.833634969798281 0.003401584602668343 0 0 0
2233 4 12.26999609402295 4.250453847501937 0.8194006656928503 0 0 0
2239 1 13.496998223228326 4.958861310685298 0.003401584602676006 0 0 0
2237 4 14.723996094022915 4.250453847501933 0.8194006656928566 0 0 0
2243 1 15.95099822322835 4.95886131068531 0.0034015846026602273 0 0 0
2241 4 17.177996094022937 4.250453847501946 0.8194006656928399 0 0 0
2083 1 18.4049982232283 0.7084086289113101 0.0034015846026602308 0 0 0
2081 4 19.63199609402296 1.1657279328156885e-06 0.8194006656928566 0 0 0
2087 1 20.858998223228326 0.708408628911299 0.003401584602674907 0 0 0
2085 4 22.085996094022935 1.1657279439202714e-06 0.819400665692842 0 0 0
2091 1 23.312998223228302 0.7084086289113101 0.0034015846026602264 0 0 0
2082 4 18.404996094022913 2.1252275066149164 0.819400665692848 0 0 0
2086 4 20.858996094022938 2.1252275066149275 0.8194006656928333 0 0 0
2090 4 23.312996094022914 2.1252275066149164 0.819400665692848 0 0 0
2084 1 19.631998223228347 2.8336349697982937 0.003401584602651535 0 0 0
2088 1 22.085998223228323 2.8336349697982826 0.0034015846026662112 0 0 0
2247 1 18.4049982232283 4.95886131068531 0.0034015846026602308 0 0 0
2245 4 19.63199609402296 4.250453847501933 0.8194006656928566 0 0 0
2251 1 20.858998223228326 4.9588613106852995 0.003401584602674907 0 0 0
2249 4 22.085996094022935 4.2504538475019435 0.819400665692842 0 0 0
2255 1 23.312998223228302 4.95886131068531 0.0034015846026602264 0 0 0
2089 4 24.53999609402296 1.165727932815649e-06 0.8194006656928566 0 0 0
2095 1 25.766998223228327 0.708408628911299 0.003401584602674908 0 0 0
2093 4 26.993996094022936 1.1657279439201011e-06 0.819400665692842 0 0 0
2099 1 28.220998223228303 0.7084086289113101 0.0034015846026602295 0 0 0
2097 4 29.44799609402296 1.1657279328157603e-06 0.8194006656928566 0 0 0
2094 4 25.76699609402294 2.1252275066149275 0.8194006656928333 0 0 0
2098 4 28.220996094022915 2.1252275066149164 0.819400665692848 0 0 0
2092 1 24.53999822322835 2.8336349697982937 0.003401584602651531 0 0 0
2096 1 26.993998223228324 2.8336349697982826 0.003401584602666212 0 0 0
2100 1 29.44799822322835 2.8336349697982937 0.0034015846026515346 0 0 0
2253 4 24.53999609402296 4.250453847501933 0.8194006656928566 0 0 0
2259 1 25.766998223228327 4.9588613106852995 0.003401584602674907 0 0 0
2257 4 26.993996094022936 4.2504538475019435 0.819400665692842 0 0 0
2263 1 28.220998223228303 4.95886131068531 0.003401584602660228 0 0 0
2261 4 29.44799609402296 4.250453847501933 0.8194006656928566 0 0 0
2103 1 30.67499822322833 0.708408628911299 0.003401584602674907 0 0 0
2101 4 31.901996094022937 1.1657279439201265e-06 0.819400665692842 0 0 0
2107 1 33.1289982232283 0.7084086289113101 0.0034015846026602295 0 0 0
2105 4 34.35599609402296 1.1657279328160326e-06 0.8194006656928566 0 0 0
2102 4 30.67499609402294 2.1252275066149275 0.8194006656928333 0 0 0
2106 4 33.12899609402292 2.1252275066149164 0.819400665692848 0 0 0
2104 1 31.901998223228325 2.8336349697982826 0.003401584602666212 0 0 0
2108 1 34.355998223228355 2.8336349697982937 0.0034015846026515324 0 0 0
2267 1 30.67499822322833 4.9588613106852995 0.003401584602674907 0 0 0
2265 4 31.901996094022937 4.2504538475019435 0.819400665692842 0 0 0
2271 1 33.1289982232283 4.95886131068531 0.0034015846026602273 0 0 0
2269 4 34.35599609402296 4.250453847501933 0.8194006656928566 0 0 0
2111 1 35.58299822322832 0.7084086289112972 0.003401584602677035 0 0 0
2109 4 36.809996094022914 1.1657279328159397e-06 0.8194006656928566 0 0 0
2115 1 38.03699822322835 0.7084086289113101 0.0034015846026602273 0 0 0
2113 4 39.263996094022936 1.1657279439202206e-06 0.819400665692842 0 0 0
2119 1 40.490998223228324 0.708408628911299 0.003401584602674907 0 0 0
2110 4 35.58299609402294 2.1252275066149293 0.8194006656928312 0 0 0
2114 4 38.03699609402296 2.1252275066149164 0.819400665692848 0 0 0
2118 4 40.49099609402294 2.1252275066149275 0.8194006656928333 0 0 0
2112 1 36.8099982232283 2.8336349697982937 0.0034015846026515316 0 0 0
2116 1 39.26399822322833 2.8336349697982826 0.0034015846026662112 0 0 0
2275 1 35.58299822322832 4.958861310685297 0.0034015846026770346 0 0 0
2273 4 36.809996094022914 4.250453847501933 0.8194006656928566 0 0 0
2279 1 38.03699822322835 4.95886131068531 0.0034015846026602264 0 0 0
2277 4 39.263996094022936 4.2504538475019435 0.819400665692842 0 0 0
2283 1 40.490998223228324 4.9588613106852995 0.003401584602674906 0 0 0
2117 4 41.717996094022915 1.1657279328156944e-06 0.8194006656928566 0 0 0
2123 1 42.94499822322835 0.7084086289113101 0.003401584602660228 0 0 0
2121 4 44.17199609402294 1.1657279439200533e-06 0.819400665692842 0 0 0
2127 1 45.398998223228325 0.708408628911299 0.003401584602674906 0 0 0
2125 4 46.625996094022916 1.1657279328157573e-06 0.8194006656928566 0 0 0
2122 4 42.94499609402296 2.1252275066149164 0.819400665692848 0 0 0
2126 4 45.39899609402294 2.1252275066149275 0.8194006656928333 0 0 0
2120 1 41.7179982232283 2.8336349697982937 0.0034015846026515346 0 0 0
2124 1 44.17199822322833 2.8336349697982826 0.003401584602666212 0 0 0
2128 1 46.6259982232283 2.8336349697982937 0.0034015846026515316 0 0 0
2281 4 41.717996094022915 4.250453847501933 0.8194006656928566 0 0 0
2287 1 42.94499822322835 4.95886131068531 0.0034015846026602273 0 0 0
2285 4 44.17199609402294 4.2504538475019435 0.819400665692842 0 0 0
2291 1 45.398998223228325 4.9588613106852995 0.0034015846026749057 0 0 0
2289 4 46.625996094022916 4.250453847501933 0.8194006656928566 0 0 0
2131 1 47.852998223228354 0.7084086289113101 0.0034015846026602264 0 0 0
2129 4 49.07999609402294 1.165727944874055e-06 0.8194006656928409 0 0 0
1971 1 50.30699822322831 0.7084086289113054 0.003401584602666574 -1 0 0
1969 4 51.53399609402295 1.1657279384846947e-06 0.8194006656928492 -1 0 0
1975 1 52.76099822322832 0.7084086289113045 0.003401584602667677 -1 0 0
2130 4 47.85299609402296 2.1252275066149164 0.819400665692848 0 0 0
1970 4 50.30699609402293 2.1252275066149213 0.8194006656928416 -1 0 0
1974 4 52.76099609402293 2.125227506614922 0.8194006656928405 -1 0 0
2132 1 49.07999822322833 2.8336349697982817 0.0034015846026673124 0 0 0
1972 1 51.53399822322834 2.833634969798288 0.0034015846026590126 -1 0 0
2295 1 47.852998223228354 4.95886131068531 0.0034015846026602264 0 0 0
2293 4 49.07999609402294 4.250453847501945 0.8194006656928409 0 0 0
2135 1 50.30699822322831 4.958861310685306 0.0034015846026665725 -1 0 0
2133 4 51.53399609402295 4.250453847501938 0.8194006656928492 -1 0 0
2139 1 52.76099822322832 4.958861310685305 0.0034015846026676758 -1 0 0
1973 4 53.987996094022954 1.1657279384847799e-06 0.8194006656928492 -1 0 0
1979 1 55.21499822322832 0.7084086289113045 0.003401584602667676 -1 0 0
1977 4 56.441996094022954 1.165727938484737e-06 0.8194006656928492 -1 0 0
1983 1 57.66899822322832 0.7084086289113045 0.003401584602667678 -1 0 0
1981 4 58.895996094022955 1.165727938484762e-06 0.8194006656928492 -1 0 0
1978 4 55.21499609402293 2.125227506614922 0.8194006656928405 -1 0 0
1982 4 57.66899609402293 2.125227506614922 0.8194006656928405 -1 0 0
1976 1 53.98799822322834 2.833634969798288 0.0034015846026590117 -1 0 0
1980 1 56.44199822322834 2.833634969798288 0.0034015846026590117 -1 0 0
1984 1 58.89599822322834 2.833634969798288 0.003401584602659014 -1 0 0
2137 4 53.987996094022954 4.250453847501938 0.8194006656928492 -1 0 0
2143 1 55.21499822322832 4.958861310685305 0.003401584602667675 -1 0 0
2141 4 56.441996094022954 4.250453847501938 0.8194006656928492 -1 0 0
2147 1 57.66899822322832 4.958861310685305 0.003401584602667676 -1 0 0
2145 4 58.895996094022955 4.250453847501938 0.8194006656928492 -1 0 0
1985 4 61.34999609402294 1.1657279328584256e-06 0.8194006656928566 -1 0 0
1987 1 60.122998223228315 0.7084086289113036 0.003401584602668706 -1 0 0
1991 1 62.576998223228344 0.7084086289113045 0.003401584602667605 -1 0 0
1989 4 63.80399609402294 1.1657279430295313e-06 0.819400665692843 -1 0 0
1995 1 65.03099822322834 0.708408628911299 0.003401584602674907 -1 0 0
1986 4 60.12299609402293 2.125227506614923 0.8194006656928395 -1 0 0
1990 4 62.57699609402295 2.125227506614922 0.8194006656928406 -1 0 0
1994 4 65.03099609402294 2.1252275066149275 0.8194006656928333 -1 0 0
1988 1 61.349998223228326 2.8336349697982937 0.003401584602651594 -1 0 0
1992 1 63.803998223228334 2.8336349697982834 0.003401584602665185 -1 0 0
2149 4 61.34999609402294 4.250453847501933 0.8194006656928566 -1 0 0
2151 1 60.122998223228315 4.958861310685304 0.003401584602668705 -1 0 0
2155 1 62.576998223228344 4.958861310685305 0.003401584602667603 -1 0 0
2153 4 63.80399609402294 4.250453847501943 0.819400665692843 -1 0 0
2159 1 65.03099822322834 4.9588613106852995 0.003401584602674905 -1 0 0
1993 4 66.25799609402291 1.1657279328158363e-06 0.8194006656928566 -1 0 0
1999 1 67.48499822322836 0.7084086289113101 0.003401584602660226 -1 0 0
1997 4 68.71199609402295 1.1657279457645006e-06 0.8194006656928399 -1 0 0
2003 1 69.93899822322831 0.7084086289113101 0.0034015846026602273 -1 0 0
1998 4 67.48499609402297 2.1252275066149164 0.819400665692848 -1 0 0
2002 4 69.93899609402291 2.1252275066149164 0.819400665692848 -1 0 0
1996 1 66.25799822322831 2.8336349697982937 0.0034015846026515303 -1 0 0
2000 1 68.71199822322833 2.833634969798281 0.003401584602668338 -1 0 0
2157 4 66.25799609402291 4.250453847501933 0.8194006656928566 -1 0 0
2163 1 67.48499822322836 4.95886131068531 0.003401584602660225 -1 0 0
2161 4 68.71199609402295 4.250453847501946 0.8194006656928399 -1 0 0
2167 1 69.93899822322831 4.95886131068531 0.0034015846026602273 -1 0 0
2001 4 71.16599609402297 1.1657279328156985e-06 0.8194006656928566 -1 0 0
2007 1 72.39299822322833 0.708408628911299 0.00340158460267491 -1 0 0
2005 4 73.61999609402294 1.1657279439199798e-06 0.819400665692842 -1 0 0
2011 1 74.84699822322831 0.7084086289113101 0.0034015846026602295 -1 0 0
2009 4 76.07399609402297 1.1657279328160036e-06 0.8194006656928566 -1 0 0
2006 4 72.39299609402295 2.1252275066149275 0.8194006656928333 -1 0 0
2010 4 74.84699609402291 2.1252275066149164 0.819400665692848 -1 0 0
2004 1 71.16599822322836 2.8336349697982937 0.0034015846026515346 -1 0 0
2008 1 73.61999822322834 2.8336349697982826 0.0034015846026662134 -1 0 0
2012 1 76.07399822322836 2.8336349697982937 0.0034015846026515316 -1 0 0
2165 4 71.16599609402297 4.250453847501933 0.8194006656928566 -1 0 0
2171 1 72.39299822322833 4.9588613106852995 0.00340158460267491 -1 0 0
2169 4 73.61999609402294 4.2504538475019435 0.819400665692842 -1 0 0
2175 1 74.84699822322831 4.95886131068531 0.0034015846026602264 -1 0 0
2173 4 76.07399609402297 4.250453847501933 0.8194006656928566 -1 0 0
2015 1 77.30099822322833 0.7084086289112972 0.0034015846026770346 -1 0 0
2013 4 78.52799609402291 1.1657279328160542e-06 0.8194006656928566 -1 0 0
2017 4 80.98199609402295 1.1657279439199294e-06 0.819400665692842 -1 0 0
2019 1 79.75499822322836 0.7084086289113101 0.003401584602660228 -1 0 0
2023 1 82.20899822322833 0.7084086289113009 0.0034015846026727793 -1 0 0
2014 4 77.30099609402295 2.1252275066149293 0.8194006656928312 -1 0 0
2018 4 79.75499609402297 2.1252275066149164 0.819400665692848 -1 0 0
2022 4 82.20899609402295 2.1252275066149258 0.8194006656928354 -1 0 0
2016 1 78.52799822322831 2.8336349697982937 0.003401584602651531 -1 0 0
2020 1 80.98199822322833 2.8336349697982826 0.003401584602666213 -1 0 0
2179 1 77.30099822322833 4.958861310685297 0.0034015846026770337 -1 0 0
2177 4 78.52799609402291 4.250453847501933 0.8194006656928566 -1 0 0
2181 4 80.98199609402295 4.2504538475019435 0.819400665692842 -1 0 0
2183 1 79.75499822322836 4.95886131068531 0.0034015846026602273 -1 0 0
2187 1 82.20899822322833 4.958861310685301 0.003401584602672779 -1 0 0
2021 4 83.43599609402294 1.1657279439201484e-06 0.819400665692842 -1 0 0
2027 1 84.66299822322831 0.7084086289113101 0.0034015846026602295 -1 0 0
2025 4 85.88999609402296 1.1657279346600759e-06 0.8194006656928545 -1 0 0
2031 1 87.11699822322831 0.7084086289113083 0.0034015846026623554 -1 0 0
2029 4 88.34399609402297 1.1657279328157842e-06 0.8194006656928566 -1 0 0
2026 4 84.66299609402292 2.1252275066149164 0.819400665692848 -1 0 0
2030 4 87.11699609402292 2.125227506614918 0.8194006656928459 -1 0 0
2024 1 83.43599822322834 2.8336349697982826 0.003401584602666213 -1 0 0
2028 1 85.88999822322836 2.833634969798292 0.00340158460265366 -1 0 0
2032 1 88.34399822322835 2.8336349697982937 0.0034015846026515303 -1 0 0
2185 4 83.43599609402294 4.2504538475019435 0.819400665692842 -1 0 0
2191 1 84.66299822322831 4.95886131068531 0.003401584602660228 -1 0 0
2189 4 85.88999609402296 4.250453847501935 0.8194006656928545 -1 0 0
2195 1 87.11699822322831 4.958861310685308 0.003401584602662355 -1 0 0
2193 4 88.34399609402297 4.250453847501933 0.8194006656928566 -1 0 0
2035 1 89.57099822322833 0.708408628911299 0.003401584602674906 -1 0 0
2033 4 90.79799609402295 1.1657279420756399e-06 0.8194006656928441 -1 0 0
2039 1 92.02499822322834 0.708408628911299 0.0034015846026749104 -1 0 0
2037 4 93.25199609402291 1.1657279328157654e-06 0.8194006656928566 -1 0 0
2043 1 94.47899822322836 0.7084086289113083 0.0034015846026623575 -1 0 0
2034 4 89.57099609402295 2.1252275066149275 0.8194006656928333 -1 0 0
2038 4 92.02499609402294 2.1252275066149275 0.8194006656928333 -1 0 0
2042 4 94.47899609402296 2.125227506614918 0.8194006656928459 -1 0 0
2036 1 90.79799822322833 2.8336349697982843 0.003401584602664083 -1 0 0
2040 1 93.25199822322831 2.8336349697982937 0.0034015846026515346 -1 0 0
2199 1 89.57099822322833 4.9588613106852995 0.003401584602674905 -1 0 0
2197 4 90.79799609402295 4.250453847501942 0.8194006656928441 -1 0 0
2203 1 92.02499822322834 4.9588613106852995 0.003401584602674909 -1 0 0
2201 4 93.25199609402291 4.250453847501933 0.8194006656928566 -1 0 0
2207 1 94.47899822322836 4.958861310685308 0.003401584602662357 -1 0 0
2049 4 100.61399609402292 1.1657279375305356e-06 0.8194006656928503 -1 0 0
2052 1 100.61399822322832 2.833634969798289 0.0034015846026579106 -1 0 0
2213 4 100.61399609402292 4.250453847501937 0.8194006656928503 -1 0 0
2041 4 95.70599609402292 1.1657279346600204e-06 0.8194006656928545 -1 0 0
2047 1 96.93299822322835 0.7084086289113101 0.003401584602660226 -1 0 0
2045 4 98.15999609402294 1.165727943919949e-06 0.819400665692842 -1 0 0
2051 1 99.38699822322833 0.7084086289112999 0.0034015846026738783 -1 0 0
2046 4 96.93299609402297 2.1252275066149164 0.819400665692848 -1 0 0
2050 4 99.38699609402293 2.1252275066149267 0.8194006656928343 -1 0 0
2044 1 95.7059982232283 2.833634969798292 0.0034015846026536605 -1 0 0
2048 1 98.15999822322833 2.8336349697982826 0.003401584602666212 -1 0 0
2205 4 95.70599609402292 4.250453847501935 0.8194006656928545 -1 0 0
2211 1 96.93299822322835 4.95886131068531 0.003401584602660226 -1 0 0
2209 4 98.15999609402294 4.2504538475019435 0.819400665692842 -1 0 0
2215 1 99.38699822322833 4.9588613106853 0.0034015846026738783 -1 0 0
2218 4 1.2269960940229505 6.375680188388922 0.8194006656928405 0 0 0
2222 4 3.680996094022951 6.375680188388922 0.8194006656928405 0 0 0
2220 1 2.4539982232283144 7.084087651572288 0.003401584602659011 0 0 0
2224 1 4.907998223228314 7.084087651572287 0.003401584602660036 0 0 0
2381 4 2.4539960940229277 8.50090652927594 0.8194006656928492 0 0 0
2385 4 4.907996094022927 8.50090652927594 0.8194006656928482 0 0 0
2383 1 1.2269982232283374 9.209313992459304 0.003401584602667677 0 0 0
2387 1 3.6809982232283383 9.209313992459304 0.0034015846026676736 0 0 0
2382 4 1.2269960940229505 10.626132870162923 0.8194006656928416 0 0 0
2384 1 2.4539982232283144 11.334540333346304 0.0034015846026719553 0 0 0
2386 4 3.680996094022951 10.626132870162923 0.8194006656928416 0 0 0
2388 1 4.907998223228314 11.334540333346302 0.0034015846026729823 0 0 0
2226 4 6.134996094022938 6.375680188388916 0.819400665692848 0 0 0
2230 4 8.588996094022926 6.375680188388922 0.8194006656928405 0 0 0
2234 4 11.042996094022927 6.375680188388922 0.8194006656928405 0 0 0
2228 1 7.361998223228337 7.084087651572287 0.0034015846026600395 0 0 0
2232 1 9.815998223228336 7.084087651572288 0.003401584602659013 0 0 0
2389 4 7.36199609402295 8.50090652927594 0.8194006656928482 0 0 0
2393 4 9.81599609402295 8.50090652927594 0.8194006656928492 0 0 0
2391 1 6.134998223228325 9.209313992459311 0.003401584602660223 0 0 0
2395 1 8.588998223228312 9.209313992459304 0.0034015846026676784 0 0 0
2399 1 11.042998223228313 9.209313992459304 0.003401584602667678 0 0 0
2390 4 6.134996094022938 10.626132870162918 0.8194006656928491 0 0 0
2392 1 7.361998223228337 11.334540333346302 0.0034015846026729845 0 0 0
2394 4 8.588996094022926 10.626132870162923 0.8194006656928416 0 0 0
2396 1 9.815998223228336 11.334540333346304 0.003401584602671959 0 0 0
2398 4 11.042996094022927 10.626132870162923 0.8194006656928416 0 0 0
2238 4 13.49699609402294 6.3756801883889285 0.8194006656928322 0 0 0
2242 4 15.950996094022964 6.375680188388916 0.819400665692848 0 0 0
2236 1 12.269998223228338 7.084087651572289 0.0034015846026579097 0 0 0
2240 1 14.723998223228302 7.084087651572294 0.0034015846026515303 0 0 0
2244 1 17.177998223228325 7.084087651572281 0.0034015846026683423 0 0 0
2397 4 12.26999609402295 8.500906529275937 0.8194006656928503 0 0 0
2401 4 14.723996094022915 8.500906529275932 0.8194006656928566 0 0 0
2405 4 17.177996094022937 8.500906529275946 0.8194006656928399 0 0 0
2403 1 13.496998223228326 9.209313992459299 0.0034015846026760072 0 0 0
2407 1 15.95099822322835 9.209313992459311 0.003401584602660228 0 0 0
2400 1 12.269998223228338 11.334540333346304 0.0034015846026708555 0 0 0
2402 4 13.49699609402294 10.62613287016293 0.8194006656928332 0 0 0
2404 1 14.723998223228302 11.33454033334631 0.0034015846026645125 0 0 0
2406 4 15.950996094022964 10.626132870162918 0.8194006656928491 0 0 0
2408 1 17.177998223228325 11.334540333346297 0.003401584602681319 0 0 0
2246 4 18.404996094022913 6.375680188388916 0.819400665692848 0 0 0
2250 4 20.858996094022938 6.375680188388928 0.8194006656928333 0 0 0
2254 4 23.312996094022914 6.375680188388916 0.819400665692848 0 0 0
2248 1 19.631998223228347 7.084087651572294 0.0034015846026515333 0 0 0
2252 1 22.085998223228323 7.084087651572283 0.00340158460266621 0 0 0
2409 4 19.63199609402296 8.500906529275932 0.8194006656928566 0 0 0
2413 4 22.085996094022935 8.500906529275944 0.819400665692842 0 0 0
2411 1 18.4049982232283 9.209313992459311 0.0034015846026602308 0 0 0
2415 1 20.858998223228326 9.209313992459299 0.003401584602674908 0 0 0
2419 1 23.312998223228302 9.209313992459311 0.003401584602660228 0 0 0
2410 4 18.404996094022913 10.626132870162918 0.8194006656928491 0 0 0
2414 4 20.858996094022938 10.626132870162929 0.8194006656928343 0 0 0
2412 1 19.631998223228347 11.33454033334631 0.0034015846026645155 0 0 0
2416 1 22.085998223228323 11.334540333346299 0.0034015846026791865 0 0 0
2418 4 23.312996094022914 10.626132870162918 0.8194006656928491 0 0 0
2258 4 25.76699609402294 6.375680188388928 0.8194006656928333 0 0 0
2262 4 28.220996094022915 6.375680188388916 0.819400665692848 0 0 0
2256 1 24.53999822322835 7.084087651572294 0.0034015846026515303 0 0 0
2260 1 26.993998223228324 7.084087651572283 0.003401584602666211 0 0 0
2264 1 29.44799822322835 7.084087651572294 0.0034015846026515324 0 0 0
2417 4 24.53999609402296 8.500906529275932 0.8194006656928566 0 0 0
2421 4 26.993996094022936 8.500906529275944 0.819400665692842 0 0 0
2425 4 29.44799609402296 8.500906529275932 0.8194006656928566 0 0 0
2423 1 25.766998223228327 9.209313992459299 0.003401584602674907 0 0 0
2427 1 28.220998223228303 9.209313992459311 0.0034015846026602295 0 0 0
2420 1 24.53999822322835 11.33454033334631 0.0034015846026645116 0 0 0
2422 4 25.76699609402294 10.626132870162929 0.8194006656928343 0 0 0
2424 1 26.993998223228324 11.334540333346299 0.003401584602679188 0 0 0
2426 4 28.220996094022915 10.626132870162918 0.8194006656928491 0 0 0
2428 1 29.44799822322835 11.33454033334631 0.0034015846026645147 0 0 0
2266 4 30.67499609402294 6.375680188388928 0.8194006656928333 0 0 0
2270 4 33.12899609402292 6.375680188388916 0.819400665692848 0 0 0
2268 1 31.901998223228325 7.084087651572283 0.0034015846026662112 0 0 0
2272 1 34.355998223228355 7.084087651572294 0.0034015846026515303 0 0 0
2429 4 31.901996094022937 8.500906529275944 0.819400665692842 0 0 0
2433 4 34.35599609402296 8.500906529275932 0.8194006656928566 0 0 0
2431 1 30.67499822322833 9.209313992459299 0.003401584602674908 0 0 0
2435 1 33.1289982232283 9.209313992459311 0.0034015846026602286 0 0 0
2430 4 30.67499609402294 10.626132870162929 0.8194006656928343 0 0 0
2432 1 31.901998223228325 11.334540333346299 0.0034015846026791887 0 0 0
2434 4 33.12899609402292 10.626132870162918 0.8194006656928491 0 0 0
2436 1 34.355998223228355 11.33454033334631 0.0034015846026645125 0 0 0
2274 4 35.58299609402294 6.375680188388929 0.8194006656928312 0 0 0
2278 4 38.03699609402296 6.375680188388916 0.819400665692848 0 0 0
2282 4 40.49099609402294 6.375680188388928 0.8194006656928333 0 0 0
2276 1 36.8099982232283 7.084087651572294 0.0034015846026515324 0 0 0
2280 1 39.26399822322833 7.084087651572283 0.003401584602666211 0 0 0
2437 4 36.809996094022914 8.500906529275932 0.8194006656928566 0 0 0
2441 4 39.263996094022936 8.500906529275944 0.819400665692842 0 0 0
2439 1 35.58299822322832 9.209313992459297 0.0034015846026770368 0 0 0
2443 1 38.03699822322835 9.209313992459311 0.0034015846026602273 0 0 0
2447 1 40.490998223228324 9.209313992459299 0.0034015846026749083 0 0 0
2438 4 35.58299609402294 10.62613287016293 0.8194006656928322 0 0 0
2440 1 36.8099982232283 11.33454033334631 0.003401584602664514 0 0 0
2442 4 38.03699609402296 10.626132870162918 0.8194006656928491 0 0 0
2446 4 40.49099609402294 10.626132870162929 0.8194006656928343 0 0 0
2444 1 39.26399822322833 11.334540333346299 0.003401584602679187 0 0 0
2286 4 42.94499609402296 6.375680188388916 0.819400665692848 0 0 0
2290 4 45.39899609402294 6.375680188388928 0.8194006656928333 0 0 0
2284 1 41.7179982232283 7.084087651572294 0.0034015846026515337 0 0 0
2288 1 44.17199822322833 7.084087651572283 0.0034015846026662112 0 0 0
2292 1 46.6259982232283 7.084087651572294 0.0034015846026515324 0 0 0
2445 4 41.717996094022915 8.500906529275932 0.8194006656928566 0 0 0
2449 4 44.17199609402294 8.500906529275944 0.819400665692842 0 0 0
2453 4 46.625996094022916 8.500906529275932 0.8194006656928566 0 0 0
2451 1 42.94499822322835 9.209313992459311 0.0034015846026602286 0 0 0
2455 1 45.398998223228325 9.209313992459299 0.003401584602674907 0 0 0
2448 1 41.7179982232283 11.33454033334631 0.0034015846026645155 0 0 0
2450 4 42.94499609402296 10.626132870162918 0.8194006656928491 0 0 0
2452 1 44.17199822322833 11.334540333346299 0.003401584602679188 0 0 0
2454 4 45.39899609402294 10.626132870162929 0.8194006656928343 0 0 0
2456 1 46.6259982232283 11.33454033334631 0.0034015846026645134 0 0 0
2294 4 47.85299609402296 6.375680188388916 0.819400665692848 0 0 0
2134 4 50.30699609402293 6.375680188388921 0.8194006656928416 -1 0 0
2138 4 52.76099609402293 6.375680188388922 0.8194006656928405 -1 0 0
2296 1 49.07999822322833 7.084087651572282 0.003401584602667312 0 0 0
2136 1 51.53399822322834 7.084087651572288 0.003401584602659011 -1 0 0
2457 4 49.07999609402294 8.500906529275944 0.8194006656928409 0 0 0
2297 4 51.53399609402295 8.50090652927594 0.8194006656928492 -1 0 0
2459 1 47.852998223228354 9.209313992459311 0.003401584602660228 0 0 0
2299 1 50.30699822322831 9.209313992459306 0.003401584602666574 -1 0 0
2303 1 52.76099822322832 9.209313992459304 0.003401584602667676 -1 0 0
2458 4 47.85299609402296 10.626132870162918 0.8194006656928491 0 0 0
2460 1 49.07999822322833 11.334540333346297 0.003401584602680289 0 0 0
2298 4 50.30699609402293 10.626132870162923 0.8194006656928428 -1 0 0
2300 1 51.53399822322834 11.334540333346304 0.0034015846026719558 -1 0 0
2302 4 52.76099609402293 10.626132870162923 0.8194006656928416 -1 0 0
2142 4 55.21499609402293 6.375680188388922 0.8194006656928405 -1 0 0
2146 4 57.66899609402293 6.375680188388922 0.8194006656928405 -1 0 0
2140 1 53.98799822322834 7.084087651572288 0.003401584602659011 -1 0 0
2144 1 56.44199822322834 7.084087651572288 0.0034015846026590117 -1 0 0
2148 1 58.89599822322834 7.084087651572288 0.003401584602659013 -1 0 0
2301 4 53.987996094022954 8.50090652927594 0.8194006656928492 -1 0 0
2305 4 56.441996094022954 8.50090652927594 0.8194006656928492 -1 0 0
2309 4 58.895996094022955 8.50090652927594 0.8194006656928492 -1 0 0
2307 1 55.21499822322832 9.209313992459304 0.003401584602667675 -1 0 0
2311 1 57.66899822322832 9.209313992459304 0.003401584602667676 -1 0 0
2304 1 53.98799822322834 11.334540333346304 0.0034015846026719566 -1 0 0
2306 4 55.21499609402293 10.626132870162923 0.8194006656928416 -1 0 0
2308 1 56.44199822322834 11.334540333346304 0.0034015846026719575 -1 0 0
2310 4 57.66899609402293 10.626132870162923 0.8194006656928416 -1 0 0
2312 1 58.89599822322834 11.334540333346304 0.003401584602671958 -1 0 0
2150 4 60.12299609402293 6.375680188388923 0.8194006656928395 -1 0 0
2154 4 62.57699609402295 6.375680188388922 0.8194006656928406 -1 0 0
2158 4 65.03099609402294 6.375680188388928 0.8194006656928333 -1 0 0
2152 1 61.349998223228326 7.084087651572294 0.0034015846026515936 -1 0 0
2156 1 63.803998223228334 7.0840876515722835 0.0034015846026651834 -1 0 0
2313 4 61.34999609402294 8.500906529275934 0.8194006656928566 -1 0 0
2317 4 63.80399609402294 8.500906529275943 0.819400665692843 -1 0 0
2315 1 60.122998223228315 9.209313992459304 0.003401584602668705 -1 0 0
2319 1 62.576998223228344 9.209313992459304 0.003401584602667605 -1 0 0
2323 1 65.03099822322834 9.209313992459299 0.003401584602674906 -1 0 0
2314 4 60.12299609402293 10.626132870162925 0.8194006656928405 -1 0 0
2316 1 61.349998223228326 11.33454033334631 0.0034015846026645073 -1 0 0
2318 4 62.57699609402295 10.626132870162923 0.8194006656928416 -1 0 0
2320 1 63.803998223228334 11.334540333346299 0.003401584602678159 -1 0 0
2322 4 65.03099609402294 10.626132870162929 0.8194006656928343 -1 0 0
2162 4 67.48499609402297 6.375680188388916 0.819400665692848 -1 0 0
2166 4 69.93899609402291 6.375680188388916 0.819400665692848 -1 0 0
2160 1 66.25799822322831 7.084087651572294 0.003401584602651531 -1 0 0
2164 1 68.71199822322833 7.084087651572281 0.003401584602668339 -1 0 0
2321 4 66.25799609402291 8.500906529275932 0.8194006656928566 -1 0 0
2325 4 68.71199609402295 8.500906529275946 0.8194006656928399 -1 0 0
2327 1 67.48499822322836 9.209313992459311 0.0034015846026602243 -1 0 0
2331 1 69.93899822322831 9.209313992459311 0.0034015846026602286 -1 0 0
2324 1 66.25799822322831 11.33454033334631 0.0034015846026645125 -1 0 0
2326 4 67.48499609402297 10.626132870162918 0.8194006656928491 -1 0 0
2328 1 68.71199822322833 11.334540333346297 0.0034015846026813146 -1 0 0
2330 4 69.93899609402291 10.626132870162918 0.8194006656928491 -1 0 0
2170 4 72.39299609402295 6.375680188388928 0.8194006656928333 -1 0 0
2174 4 74.84699609402291 6.375680188388916 0.819400665692848 -1 0 0
2168 1 71.16599822322836 7.084087651572294 0.0034015846026515337 -1 0 0
2172 1 73.61999822322834 7.084087651572283 0.003401584602666212 -1 0 0