LAMMPS data file via write_data, version 29 Aug 2024, timestep = 154, units = metal

10944 atoms
36 atom types

0 97.522033349664 xlo xhi
0 100.292162992536 ylo yhi
-50 50 zlo zhi

Masses

1 51.9961
2 51.9961
3 51.9961
4 51.9961
5 51.9961
6 51.9961
7 51.9961
8 51.9961
9 51.9961
10 51.9961
11 51.9961
12 51.9961
13 32.06
14 32.06
15 32.06
16 32.06
17 32.06
18 32.06
19 32.06
20 32.06
21 32.06
22 32.06
23 32.06
24 32.06
25 32.06
26 32.06
27 32.06
28 32.06
29 32.06
30 32.06
31 32.06
32 32.06
33 32.06
34 32.06
35 32.06
36 32.06

Atoms # atomic

1830 4 0.8344720060518429 0.0845537921170408 0.8219538714575435 0 0 0
1828 18 1.7468283631912194 1.254792927307134 2.51213784881309 0 0 0
1836 16 3.8963003069105686 0.7772479364902869 1.9252120750731192 0 0 0
2023 19 3.2657430688207962 3.002384605055339 2.3286637848180747 0 0 0
2019 2 4.124401963357807 2.3699644544603373 0.33396709125077084 0 0 0
2025 14 3.3796037386012627 3.6921811536054685 1.9943924805778444 0 0 0
2026 20 5.389084458801998 4.807138721836501 2.3736174697796026 0 0 0
2029 17 5.579382411783417 1.8873849129056355 0.8232032114105767 0 0 0
2022 4 0.8344720060517913 5.363088686460968 0.8219538714575135 0 0 0
1835 15 1.9569627223632824 1.2271212009245012 2.410044411570661 0 0 0
2018 1 1.4013208467004303 3.0183017574732083 1.1554800104444434 0 0 0
1842 4 6.92959909040558 0.08455379211707692 0.8219538714576248 0 0 0
1840 18 7.841955447545332 1.2547929273070388 2.5121378488130173 0 0 0
1848 16 9.991427391264892 0.7772479364907531 1.9252120750729624 0 0 0
2035 19 9.360870153174838 3.0023846050548837 2.3286637848181067 0 0 0
2031 2 10.219529047711763 2.369964454460563 0.3339670912506807 0 0 0
2037 14 9.474730822955367 3.692181153605271 1.9943924805781028 0 0 0
2034 4 6.929599090405682 5.363088686461026 0.8219538714576496 0 0 0
1847 15 8.0520898067173 1.2271212009244234 2.4100444115705684 0 0 0
2030 1 7.496447931054192 3.018301757473399 1.1554800104448923 0 0 0
2038 20 11.484211543156043 4.807138721836481 2.373617469779567 0 0 0
1854 4 13.024726174759659 0.08455379211694601 0.821953871457595 0 0 0
1852 18 13.937082531899337 1.2547929273069447 2.5121378488130333 0 0 0
1860 16 16.08655447561883 0.7772479364908225 1.9252120750728443 0 0 0
2041 17 11.674509496137436 1.8873849129054263 0.82320321141048 0 0 0
2047 19 15.45599723752888 3.002384605055023 2.3286637848181315 0 0 0
2043 2 16.314656132065704 2.3699644544606637 0.3339670912506737 0 0 0
2049 14 15.569857907309247 3.6921811536052815 1.9943924805781457 0 0 0
2046 4 13.024726174759742 5.36308868646101 0.821953871457627 0 0 0
1859 15 14.147216891071269 1.22712120092434 2.410044411570597 0 0 0
2042 1 13.591575015408203 3.018301757473285 1.1554800104448701 0 0 0
2050 20 17.579338627510158 4.807138721836423 2.373617469779681 0 0 0
1866 4 19.119853259113658 0.08455379211698959 0.8219538714576746 0 0 0
1864 18 20.032209616253358 1.2547929273070353 2.5121378488130746 0 0 0
1872 16 22.1816815599729 0.7772479364908372 1.9252120750727637 0 0 0
2053 17 17.769636580491508 1.8873849129055282 0.8232032114104707 0 0 0
2059 19 21.55112432188275 3.0023846050551035 2.328663784817989 0 0 0
2055 2 22.409783216419775 2.3699644544607428 0.33396709125062746 0 0 0
2061 14 21.66498499166333 3.692181153605338 1.9943924805781141 0 0 0
2058 4 19.119853259113796 5.363088686461085 0.8219538714577648 0 0 0
1871 15 20.242343975425328 1.2271212009244123 2.4100444115706345 0 0 0
2054 1 19.686702099762293 3.018301757473314 1.1554800104448146 0 0 0
2062 20 23.67446571186414 4.807138721836247 2.3736174697796293 0 0 0
1878 4 25.214980343467722 0.08455379211701314 0.8219538714576657 0 0 0
1876 18 26.127336700607284 1.2547929273070662 2.5121378488131056 0 0 0
1884 16 28.276808644326763 0.7772479364905975 1.9252120750728845 0 0 0
2065 17 23.864763664845494 1.8873849129055602 0.8232032114104209 0 0 0
2071 19 27.64625140623685 3.002384605055104 2.3286637848180596 0 0 0
2067 2 28.50491030077372 2.369964454460566 0.3339670912506248 0 0 0
2073 14 27.760112076017304 3.6921811536053317 1.9943924805780033 0 0 0
2070 4 25.214980343467737 5.363088686461054 0.8219538714577246 0 0 0
1883 15 26.337471059779297 1.2271212009244385 2.410044411570655 0 0 0
2066 1 25.781829184116262 3.0183017574732904 1.155480010444753 0 0 0
1890 4 31.3101074278216 0.08455379211695856 0.8219538714575977 0 0 0
1888 18 32.222463784961285 1.254792927306934 2.512137848813011 0 0 0
1896 16 34.37193572868078 0.7772479364908195 1.9252120750729023 0 0 0
2077 17 29.959890749199356 1.8873849129054565 0.8232032114105508 0 0 0
2083 19 33.741378490590904 3.002384605054891 2.3286637848182075 0 0 0
2074 20 29.76959279621794 4.8071387218365675 2.373617469779545 0 0 0
2085 14 33.85523916037123 3.6921811536052402 1.9943924805781812 0 0 0
2082 4 31.31010742782164 5.363088686460892 0.8219538714575051 0 0 0
1895 15 32.43259814413326 1.2271212009243264 2.410044411570558 0 0 0
2078 1 31.876956268470085 3.0183017574733144 1.1554800104449243 0 0 0
2079 2 34.60003738512767 2.3699644544606517 0.33396709125069035 0 0 0
1902 4 37.405234512175745 0.08455379211704364 0.8219538714577829 0 0 0
1900 18 38.3175908693154 1.2547929273071348 2.5121378488131496 0 0 0
2089 17 36.0550178335535 1.8873849129055813 0.8232032114105666 0 0 0
2095 19 39.836505574944674 3.0023846050548326 2.3286637848179037 0 0 0
2086 20 35.864719880572096 4.807138721836473 2.373617469779656 0 0 0
2097 14 39.950366244725444 3.692181153605358 1.9943924805780286 0 0 0
2094 4 37.40523451217582 5.363088686461059 0.8219538714577309 0 0 0
1907 15 38.52772522848738 1.2271212009245172 2.410044411570691 0 0 0
2090 1 37.97208335282424 3.0183017574734325 1.1554800104449172 0 0 0
1908 16 40.46706281303506 0.7772479364909396 1.9252120750726858 0 0 0
2091 2 40.69516446948168 2.369964454460818 0.333967091250444 0 0 0
1914 4 43.50036159652971 0.08455379211696962 0.8219538714575327 0 0 0
1912 18 44.4127179536693 1.2547929273069924 2.512137848813009 0 0 0
2101 17 42.15014491790746 1.8873849129054878 0.8232032114104124 0 0 0
2098 20 41.959846964925966 4.807138721836349 2.373617469779476 0 0 0
2106 4 43.500361596529714 5.363088686460942 0.821953871457525 0 0 0
1919 15 44.622852312841296 1.2271212009243655 2.410044411570545 0 0 0
2102 1 44.06721043717821 3.0183017574732838 1.1554800104447733 0 0 0
1920 16 46.562189897388706 0.7772479364906872 1.9252120750729151 0 0 0
2107 19 45.93163265929893 3.002384605055222 2.328663784818091 0 0 0
2103 2 46.79029155383571 2.369964454460548 0.33396709125068025 0 0 0
1734 4 49.595488680883676 0.08455379211704768 0.8219538714577705 -1 0 0
1732 18 50.5078450380233 1.2547929273070628 2.512137848813207 -1 0 0
1921 17 48.24527200226147 1.8873849129056441 0.8232032114104909 -1 0 0
2109 14 46.04549332907925 3.6921811536052918 1.9943924805780604 0 0 0
2110 20 48.05497404928003 4.8071387218365755 2.373617469779574 0 0 0
1926 4 49.59548868088376 5.3630886864609195 0.8219538714575381 -1 0 0
1922 1 50.16233752153224 3.018301757473369 1.15548001044495 -1 0 0
1739 15 50.71797939719528 1.2271212009244497 2.410044411570748 -1 0 0
1923 2 52.88541863818964 2.3699644544607072 0.3339670912504964 -1 0 0
1740 16 52.65731698174298 0.7772479364906608 1.925212075072792 -1 0 0
1746 4 55.690615765237666 0.08455379211694512 0.821953871457434 -1 0 0
1744 18 56.60297212237743 1.254792927306856 2.5121378488128787 -1 0 0
1927 19 52.02675974365278 3.0023846050549112 2.328663784818024 -1 0 0
1933 17 54.3403990866154 1.8873849129053513 0.8232032114105948 -1 0 0
1929 14 52.14062041343341 3.692181153605274 1.9943924805780773 -1 0 0
1930 20 54.150101133633854 4.807138721836435 2.3736174697793984 -1 0 0
1938 4 55.690615765237666 5.36308868646096 0.821953871457589 -1 0 0
1934 1 56.25746460588609 3.0183017574733544 1.1554800104450034 -1 0 0
1751 15 56.81310648154935 1.2271212009242323 2.410044411570372 -1 0 0
1935 2 58.98054572254367 2.3699644544605794 0.3339670912506975 -1 0 0
1752 16 58.752444066096636 0.7772479364908664 1.925212075072971 -1 0 0
1758 4 61.78574284959175 0.08455379211711639 0.821953871457529 -1 0 0
1756 18 62.69809920673136 1.2547929273070806 2.512137848812979 -1 0 0
1939 19 58.12188682800717 3.0023846050552514 2.328663784818209 -1 0 0
1945 17 60.43552617096949 1.887384912905635 0.8232032114104363 -1 0 0
1941 14 58.23574749778728 3.692181153605115 1.9943924805782445 -1 0 0
1942 20 60.24522821798792 4.807138721836695 2.3736174697794916 -1 0 0
1950 4 61.78574284959163 5.363088686460888 0.8219538714574209 -1 0 0
1946 1 62.35259169024024 3.0183017574734343 1.1554800104448228 -1 0 0
1763 15 62.90823356590334 1.2271212009244694 2.4100444115705604 -1 0 0
1947 2 65.0756728068976 2.369964454460662 0.33396709125042306 -1 0 0
1764 16 64.84757115045096 0.7772479364909038 1.9252120750727284 -1 0 0
1770 4 67.88086993394568 0.08455379211693254 0.8219538714577345 -1 0 0
1768 18 68.79322629108532 1.2547929273068559 2.5121378488131945 -1 0 0
1951 19 64.21701391236057 3.0023846050545795 2.3286637848178886 -1 0 0
1957 17 66.53065325532351 1.887384912905528 0.8232032114106229 -1 0 0
1953 14 64.33087458214145 3.6921811536053584 1.9943924805779234 -1 0 0
1954 20 66.34035530234192 4.807138721836665 2.3736174697794827 -1 0 0
1962 4 67.8808699339457 5.363088686460996 0.8219538714575273 -1 0 0
1958 1 68.44771877459421 3.0183017574733007 1.155480010445198 -1 0 0
1959 2 71.1707998912517 2.3699644544604888 0.3339670912507685 -1 0 0
1776 16 70.94269823480468 0.7772479364906644 1.9252120750730466 -1 0 0
1782 4 73.97599701829982 0.08455379211703687 0.8219538714572813 -1 0 0
1963 19 70.3121409967151 3.002384605054943 2.3286637848182856 -1 0 0
1969 17 72.62578033967756 1.8873849129053446 0.8232032114105082 -1 0 0
1965 14 70.42600166649552 3.6921811536050226 1.9943924805783861 -1 0 0
1966 20 72.43548238669598 4.80713872183646 2.3736174697794286 -1 0 0
1974 4 73.97599701829965 5.363088686461083 0.8219538714576363 -1 0 0
1775 15 69.00336065025738 1.2271212009242074 2.4100444115707176 -1 0 0
1970 1 74.54284585894823 3.018301757473433 1.1554800104449114 -1 0 0
1780 18 74.88835337543965 1.254792927306913 2.5121378488127015 -1 0 0
1788 16 77.03782531915859 0.7772479364910722 1.9252120750731643 -1 0 0
1794 4 80.0711241026537 0.08455379211711796 0.8219538714577603 -1 0 0
1975 19 76.40726808106913 3.0023846050552967 2.328663784818247 -1 0 0
1981 17 78.72090742403154 1.8873849129057312 0.8232032114102944 -1 0 0
1971 2 77.26592697560575 2.369964454460543 0.33396709125084956 -1 0 0
1977 14 76.52112875084937 3.6921811536052536 1.9943924805782514 -1 0 0
1978 20 78.5306094710503 4.807138721836338 2.373617469779775 -1 0 0
1986 4 80.07112410265383 5.3630886864612535 0.8219538714578243 -1 0 0
1787 15 75.09848773461145 1.2271212009243142 2.410044411570254 -1 0 0
1792 18 80.9834804597933 1.2547929273072391 2.5121378488131274 -1 0 0
1800 16 83.13295240351337 0.7772479364908383 1.925212075072673 -1 0 0
1987 19 82.5023951654223 3.0023846050546577 2.3286637848178207 -1 0 0
1993 17 84.81603450838557 1.8873849129056928 0.8232032114104324 -1 0 0
1983 2 83.36105405995974 2.369964454460844 0.33396709125044494 -1 0 0
1989 14 82.61625583520335 3.6921811536055733 1.9943924805778586 -1 0 0
1990 20 84.62573655540423 4.807138721836313 2.373617469779782 -1 0 0
1799 15 81.19361481896527 1.2271212009246335 2.4100444115707527 -1 0 0
1982 1 80.63797294330242 3.018301757473346 1.1554800104445575 -1 0 0
1806 4 86.16625118700786 0.08455379211708122 0.821953871457832 -1 0 0
1804 18 87.07860754414725 1.2547929273072378 2.512137848813299 -1 0 0
1812 16 89.22807948786733 0.7772479364906068 1.925212075072828 -1 0 0
1999 19 88.59752224977642 3.002384605054275 2.3286637848180702 -1 0 0
2005 17 90.91116159273972 1.887384912905644 0.8232032114104646 -1 0 0
1995 2 89.45618114431376 2.3699644544606904 0.333967091250523 -1 0 0
2001 14 88.71138291955735 3.6921811536054547 1.9943924805779145 -1 0 0
2002 20 90.72086363975804 4.807138721836713 2.373617469779822 -1 0 0
1998 4 86.16625118700773 5.363088686461074 0.8219538714577479 -1 0 0
1811 15 87.28874190331929 1.2271212009246084 2.410044411570859 -1 0 0
1994 1 86.73310002765633 3.018301757473341 1.1554800104447145 -1 0 0
2017 17 97.00628867709364 1.8873849129056561 0.8232032114101161 -1 0 0
1818 4 92.26137827136199 0.08455379211709459 0.8219538714577609 -1 0 0
1816 18 93.17373462850155 1.2547929273073333 2.5121378488130794 -1 0 0
1824 16 95.32320657222154 0.7772479364910332 1.9252120750725532 -1 0 0
2011 19 94.69264933413048 3.002384605054814 2.328663784817698 -1 0 0
2007 2 95.55130822866786 2.369964454460954 0.333967091250354 -1 0 0
2013 14 94.80651000391151 3.6921811536056115 1.9943924805778044 -1 0 0
2014 20 96.81599072411227 4.807138721836028 2.373617469779492 -1 0 0
2010 4 92.2613782713617 5.363088686461068 0.8219538714577557 -1 0 0
1823 15 93.38386898767351 1.2271212009247157 2.410044411570651 -1 0 0
2006 1 92.82822711201042 3.0183017574734676 1.1554800104446032 -1 0 0
2020 18 1.7468283631912072 6.533327821650962 2.512137848813104 0 0 0
2028 16 3.89630030691056 6.055782830834408 1.925212075073043 0 0 0
2215 19 3.265743068820985 8.280919499399305 2.3286637848181937 0 0 0
2211 2 4.124401963357753 7.648499348804411 0.33396709125078805 0 0 0
2217 14 3.379603738601279 8.970716047949265 1.9943924805780953 0 0 0
2214 4 0.8344720060517762 10.641623580804982 0.8219538714575748 0 0 0
2220 16 3.8963003069106974 11.334317725178527 1.9252120750730024 0 0 0
2218 20 5.389084458802019 10.085673616180454 2.373617469779597 0 0 0
2221 17 5.579382411783456 7.1659198072494785 0.8232032114106037 0 0 0
2027 15 1.9569627223632997 6.505656095268317 2.410044411570633 0 0 0
2210 1 1.4013208467003304 8.296836651817204 1.1554800104447371 0 0 0
2219 15 1.956962722363326 11.784190989612393 2.4100444115706545 0 0 0
2032 18 7.841955447545386 6.533327821650998 2.5121378488130666 0 0 0
2040 16 9.991427391264798 6.055782830834811 1.9252120750729589 0 0 0
2227 19 9.36087015317492 8.280919499398859 2.328663784818203 0 0 0
2223 2 10.219529047711672 7.648499348804615 0.3339670912506697 0 0 0
2229 14 9.474730822955356 8.970716047949237 1.9943924805781845 0 0 0
2226 4 6.929599090405679 10.641623580805053 0.8219538714576544 0 0 0
2232 16 9.99142739126486 11.33431772517877 1.9252120750729076 0 0 0
2039 15 8.052089806717328 6.505656095268393 2.410044411570607 0 0 0
2222 1 7.496447931054165 8.296836651817381 1.1554800104449996 0 0 0
2231 15 8.052089806717293 11.784190989612453 2.410044411570637 0 0 0
2044 18 13.9370825318994 6.53332782165105 2.512137848813036 0 0 0
2230 20 11.484211543156047 10.085673616180529 2.373617469779601 0 0 0
2052 16 16.086554475618854 6.055782830834957 1.9252120750728754 0 0 0
2233 17 11.674509496137478 7.165919807249443 0.8232032114105109 0 0 0
2239 19 15.455997237528718 8.280919499398879 2.3286637848181058 0 0 0
2235 2 16.314656132065664 7.648499348804743 0.33396709125063645 0 0 0
2241 14 15.569857907309288 8.970716047949368 1.9943924805781232 0 0 0
2238 4 13.024726174759738 10.641623580805033 0.8219538714576504 0 0 0
2244 16 16.086554475619 11.334317725178973 1.9252120750727615 0 0 0
2051 15 14.14721689107133 6.50565609526845 2.4100444115705986 0 0 0
2234 1 13.591575015408191 8.296836651817378 1.155480010444884 0 0 0
2243 15 14.147216891071341 11.7841909896125 2.410044411570625 0 0 0
2056 18 20.032209616253308 6.533327821651245 2.5121378488131767 0 0 0
2242 20 17.579338627510257 10.085673616180303 2.3736174697797217 0 0 0
2064 16 22.18168155997312 6.055782830834812 1.9252120750727504 0 0 0
2245 17 17.76963658049156 7.165919807249618 0.8232032114104076 0 0 0
2251 19 21.55112432188239 8.280919499398781 2.3286637848178686 0 0 0
2247 2 22.409783216419736 7.648499348804757 0.33396709125052076 0 0 0
2253 14 21.664984991663328 8.970716047949539 1.9943924805778817 0 0 0
2250 4 19.119853259113803 10.641623580805058 0.8219538714577677 0 0 0
2256 16 22.181681559973036 11.334317725178686 1.9252120750727773 0 0 0
2063 15 20.24234397542533 6.505656095268628 2.4100444115707575 0 0 0
2246 1 19.686702099762336 8.296836651817365 1.1554800104446676 0 0 0
2255 15 20.24234397542532 11.784190989612599 2.4100444115707593 0 0 0
2068 18 26.127336700607195 6.5333278216511 2.512137848813233 0 0 0
2254 20 23.67446571186417 10.085673616180348 2.3736174697796404 0 0 0
2076 16 28.276808644326863 6.055782830834444 1.9252120750727968 0 0 0
2257 17 23.86476366484552 7.165919807249663 0.8232032114104135 0 0 0
2263 19 27.646251406236843 8.280919499398816 2.3286637848180947 0 0 0
2259 2 28.504910300773687 7.648499348804558 0.3339670912505379 0 0 0
2262 4 25.214980343467765 10.641623580805062 0.8219538714576838 0 0 0
2268 16 28.276808644326966 11.334317725178625 1.9252120750727795 0 0 0
2265 14 27.76011207601736 8.970716047949312 1.9943924805779711 0 0 0
2075 15 26.337471059779272 6.505656095268465 2.4100444115707806 0 0 0
2258 1 25.78182918411629 8.296836651817292 1.15548001044479 0 0 0
2267 15 26.33747105977933 11.784190989612469 2.410044411570693 0 0 0
2080 18 32.22246378496146 6.533327821650827 2.5121378488129125 0 0 0
2088 16 34.37193572868071 6.055782830835037 1.9252120750728683 0 0 0
2269 17 29.95989074919941 7.165919807249283 0.8232032114106912 0 0 0
2275 19 33.74137849059118 8.280919499399221 2.3286637848182377 0 0 0
2266 20 29.76959279621787 10.085673616180568 2.3736174697794983 0 0 0
2274 4 31.310107427821638 10.641623580804891 0.821953871457521 0 0 0
2280 16 34.371935728680704 11.33431772517904 1.925212075072849 0 0 0
2277 14 33.85523916037128 8.97071604794914 1.9943924805783586 0 0 0
2087 15 32.432598144133365 6.5056560952682165 2.4100444115704294 0 0 0
2270 1 31.876956268470085 8.296836651817332 1.155480010445078 0 0 0
2279 15 32.43259814413333 11.784190989612226 2.4100444115704622 0 0 0
2092 18 38.317590869315374 6.533327821651154 2.5121378488131754 0 0 0
2271 2 34.600037385127735 7.648499348804723 0.33396709125075236 0 0 0
2281 17 36.05501783355358 7.165919807249565 0.8232032114104357 0 0 0
2287 19 39.836505574944766 8.280919499398808 2.328663784818017 0 0 0
2278 20 35.86471988057207 10.085673616180497 2.373617469779625 0 0 0
2286 4 37.40523451217581 10.641623580805062 0.8219538714577213 0 0 0
2289 14 39.95036624472543 8.970716047949374 1.9943924805780073 0 0 0
2099 15 38.527725228487355 6.50565609526854 2.410044411570723 0 0 0
2282 1 37.97208335282431 8.296836651817408 1.1554800104448626 0 0 0
2291 15 38.52772522848736 11.784190989612547 2.4100444115707185 0 0 0
2104 18 44.412717953669315 6.533327821650856 2.5121378488130617 0 0 0
2100 16 40.467062813034914 6.055782830834817 1.9252120750727246 0 0 0
2283 2 40.695164469481625 7.648499348804721 0.33396709125046836 0 0 0
2292 16 40.467062813035014 11.33431772517885 1.9252120750726354 0 0 0
2293 17 42.15014491790744 7.165919807249425 0.8232032114105338 0 0 0
2290 20 41.959846964926 10.085673616180355 2.3736174697794987 0 0 0
2298 4 43.50036159652972 10.641623580804934 0.8219538714575277 0 0 0
2111 15 44.62285231284129 6.505656095268235 2.4100444115705777 0 0 0
2294 1 44.06721043717813 8.29683665181732 1.155480010445074 0 0 0
2303 15 44.622852312841296 11.784190989612236 2.4100444115705333 0 0 0
1924 18 50.50784503802355 6.533327821650909 2.51213784881291 -1 0 0
2112 16 46.56218989738869 6.055782830834704 1.9252120750728765 0 0 0
2299 19 45.931632659299204 8.280919499399003 2.328663784818299 0 0 0
2295 2 46.79029155383557 7.648499348804595 0.3339670912506251 0 0 0
2304 16 46.56218989738857 11.334317725178723 1.9252120750729762 0 0 0
2113 17 48.24527200226151 7.165919807249292 0.8232032114106119 -1 0 0
2301 14 46.045493329079335 8.970716047949088 1.9943924805782762 0 0 0
2302 20 48.0549740492798 10.085673616180747 2.373617469779466 0 0 0
2118 4 49.59548868088363 10.641623580804964 0.821953871457523 -1 0 0
2114 1 50.162337521532166 8.296836651817383 1.1554800104450285 -1 0 0
1931 15 50.71797939719542 6.505656095268307 2.410044411570457 -1 0 0
2123 15 50.71797939719537 11.784190989612291 2.4100444115704716 -1 0 0
1936 18 56.60297212237726 6.533327821650871 2.512137848813125 -1 0 0
2115 2 52.88541863818965 7.648499348804795 0.33396709125056334 -1 0 0
1932 16 52.65731698174269 6.055782830835109 1.9252120750727009 -1 0 0
2119 19 52.02675974365311 8.280919499399305 2.3286637848180334 -1 0 0
2125 17 54.34039908661549 7.1659198072495185 0.8232032114104354 -1 0 0
2121 14 52.14062041343339 8.97071604794922 1.9943924805782165 -1 0 0
2124 16 52.657316981742795 11.334317725179174 1.9252120750727284 -1 0 0
2122 20 54.150101133634 10.085673616180452 2.373617469779495 -1 0 0
2130 4 55.690615765237695 10.64162358080491 0.8219538714575544 -1 0 0
2126 1 56.25746460588623 8.296836651817296 1.1554800104450509 -1 0 0
1943 15 56.813106481549276 6.505656095268237 2.410044411570647 -1 0 0
2135 15 56.81310648154932 11.784190989612322 2.410044411570511 -1 0 0
1948 18 62.69809920673158 6.533327821650793 2.512137848812794 -1 0 0
2127 2 58.98054572254357 7.648499348804538 0.3339670912506551 -1 0 0
1944 16 58.75244406609652 6.05578283083458 1.9252120750728878 -1 0 0
2131 19 58.12188682800717 8.280919499398994 2.3286637848183123 -1 0 0
2137 17 60.43552617096945 7.165919807249229 0.8232032114106878 -1 0 0
2133 14 58.235747497787386 8.970716047949077 1.9943924805782904 -1 0 0
2136 16 58.752444066096636 11.334317725178902 1.9252120750729111 -1 0 0
2134 20 60.24522821798791 10.085673616180653 2.373617469779551 -1 0 0
2142 4 61.78574284959171 10.641623580805089 0.8219538714576847 -1 0 0
2138 1 62.35259169024012 8.296836651817367 1.155480010445103 -1 0 0
1955 15 62.9082335659034 6.505656095268186 2.4100444115703326 -1 0 0
2147 15 62.9082335659033 11.7841909896126 2.4100444115706607 -1 0 0
1960 18 68.79322629108545 6.533327821650987 2.5121378488129524 -1 0 0
2139 2 65.07567280689764 7.648499348804647 0.3339670912507154 -1 0 0
1956 16 64.84757115045048 6.055782830835195 1.9252120750727928 -1 0 0
2143 19 64.21701391236134 8.280919499399126 2.32866378481824 -1 0 0
2149 17 66.53065325532354 7.16591980724951 0.823203211410457 -1 0 0
2145 14 64.33087458214138 8.970716047949116 1.994392480578327 -1 0 0
2148 16 64.8475711504512 11.33431772517904 1.9252120750727797 -1 0 0
2146 20 66.34035530234206 10.085673616180433 2.3736174697795946 -1 0 0
2154 4 67.8808699339458 10.641623580805165 0.8219538714577885 -1 0 0
2150 1 68.44771877459428 8.296836651817374 1.1554800104448837 -1 0 0
2151 2 71.17079989125172 7.648499348804703 0.3339670912506121 -1 0 0
1968 16 70.94269823480477 6.055782830834975 1.9252120750728747 -1 0 0
2155 19 70.31214099671482 8.28091949939938 2.328663784817911 -1 0 0
2161 17 72.62578033967745 7.165919807249738 0.8232032114103831 -1 0 0
2157 14 70.42600166649544 8.97071604794928 1.9943924805781552 -1 0 0
2160 16 70.94269823480528 11.334317725178487 1.9252120750727886 -1 0 0
2158 20 72.43548238669607 10.085673616180415 2.3736174697794965 -1 0 0
2166 4 73.97599701829968 10.64162358080498 0.8219538714575512 -1 0 0
1967 15 69.00336065025742 6.505656095268355 2.410044411570486 -1 0 0
2159 15 69.0033606502573 11.784190989612602 2.4100444115708544 -1 0 0
2162 1 74.54284585894825 8.296836651817292 1.1554800104446585 -1 0 0
1972 18 74.88835337543922 6.533327821651065 2.512137848813064 -1 0 0
1980 16 77.03782531915886 6.055782830834601 1.9252120750730988 -1 0 0
2167 19 76.4072680810684 8.280919499398966 2.3286637848179907 -1 0 0
2173 17 78.72090742403162 7.165919807249897 0.8232032114103794 -1 0 0
2163 2 77.26592697560577 7.648499348804556 0.33396709125073515 -1 0 0
2169 14 76.52112875084929 8.97071604794938 1.9943924805780362 -1 0 0
2172 16 77.0378253191587 11.33431772517867 1.9252120750730748 -1 0 0
2178 4 80.07112410265371 10.641623580805076 0.8219538714576162 -1 0 0
2170 20 78.53060947105004 10.085673616180632 2.373617469779665 -1 0 0
1979 15 75.09848773461127 6.505656095268426 2.4100444115706097 -1 0 0
2171 15 75.09848773461134 11.784190989612222 2.4100444115705497 -1 0 0
1984 18 80.98348045979326 6.533327821651377 2.5121378488132478 -1 0 0
1992 16 83.13295240351347 6.055782830834576 1.9252120750728423 -1 0 0
2179 19 82.50239516542213 8.280919499398488 2.3286637848177842 -1 0 0
2185 17 84.81603450838544 7.165919807249615 0.8232032114105178 -1 0 0
2175 2 83.36105405995984 7.648499348804643 0.3339670912504959 -1 0 0
2181 14 82.61625583520343 8.97071604794963 1.9943924805777171 -1 0 0
2184 16 83.13295240351306 11.334317725179027 1.9252120750728228 -1 0 0
2182 20 84.62573655540417 10.085673616180237 2.3736174697796586 -1 0 0
1991 15 81.19361481896532 6.50565609526875 2.4100444115708406 -1 0 0
2174 1 80.63797294330247 8.296836651817395 1.1554800104445038 -1 0 0
2183 15 81.1936148189654 11.784190989612451 2.4100444115705204 -1 0 0
1996 18 87.07860754414726 6.5333278216511985 2.5121378488131527 -1 0 0
2190 4 86.1662511870078 10.641623580805076 0.8219538714577586 -1 0 0
2004 16 89.2280794878672 6.055782830834754 1.925212075072767 -1 0 0
2191 19 88.5975222497765 8.280919499398381 2.328663784818075 -1 0 0
2197 17 90.91116159273956 7.165919807249663 0.8232032114105243 -1 0 0
2187 2 89.45618114431375 7.648499348804716 0.33396709125055657 -1 0 0
2193 14 88.71138291955724 8.970716047949493 1.9943924805778965 -1 0 0
2196 16 89.22807948786725 11.334317725178744 1.9252120750727972 -1 0 0
2194 20 90.72086363975815 10.085673616180665 2.3736174697798487 -1 0 0
2003 15 87.28874190331928 6.505656095268574 2.410044411570698 -1 0 0
2186 1 86.73310002765622 8.296836651817333 1.1554800104446632 -1 0 0
2195 15 87.28874190331923 11.784190989612602 2.41004441157079 -1 0 0
2008 18 93.17373462850144 6.533327821651217 2.512137848813083 -1 0 0
2209 17 97.00628867709356 7.165919807249557 0.8232032114103119 -1 0 0
2202 4 92.26137827136179 10.641623580805106 0.8219538714577852 -1 0 0
2016 16 95.3232065722216 6.055782830835127 1.9252120750723758 -1 0 0
2203 19 94.69264933413051 8.280919499398703 2.328663784817749 -1 0 0
2199 2 95.55130822866782 7.64849934880505 0.33396709125034807 -1 0 0
2205 14 94.80651000391144 8.97071604794951 1.9943924805779567 -1 0 0
2208 16 95.32320657222168 11.33431772517918 1.9252120750722985 -1 0 0
2206 20 96.81599072411225 10.085673616180197 2.3736174697794823 -1 0 0
2015 15 93.38386898767341 6.505656095268594 2.410044411570651 -1 0 0
2198 1 92.82822711201038 8.296836651817443 1.1554800104447387 -1 0 0
2207 15 93.38386898767344 11.78419098961267 2.410044411570676 -1 0 0
2212 18 1.74682836319125 11.811862715995034 2.5121378488131185 0 0 0
2407 19 3.265743068820842 13.559454393743165 2.328663784818121 0 0 0
2403 2 4.124401963357755 12.927034243148466 0.3339670912507427 0 0 0
2409 14 3.3796037386013063 14.249250942293322 1.9943924805780517 0 0 0
2406 4 0.8344720060518755 15.920158475149057 0.8219538714576248 0 0 0
2404 18 1.746828363191209 17.090397610339096 2.5121378488132105 0 0 0
2412 16 3.896300306910655 16.61285261952239 1.9252120750729957 0 0 0
2410 20 5.389084458802056 15.364208510524481 2.3736174697796066 0 0 0
2413 17 5.579382411783446 12.444454701593553 0.823203211410538 0 0 0
2402 1 1.4013208467003122 13.575371546161263 1.155480010444749 0 0 0
2411 15 1.9569627223633048 17.062725883956453 2.410044411570738 0 0 0
2224 18 7.84195544754532 11.811862715995062 2.5121378488130905 0 0 0
2419 19 9.360870153174803 13.559454393742786 2.328663784818158 0 0 0
2415 2 10.219529047711681 12.927034243148636 0.33396709125063795 0 0 0
2421 14 9.474730822955319 14.249250942293315 1.994392480578098 0 0 0
2418 4 6.929599090405719 15.920158475149064 0.8219538714576599 0 0 0
2416 18 7.841955447545371 17.090397610339043 2.5121378488131016 0 0 0
2424 16 9.991427391264907 16.61285261952278 1.9252120750729722 0 0 0
2414 1 7.496447931054187 13.575371546161382 1.1554800104448941 0 0 0
2423 15 8.052089806717333 17.062725883956436 2.4100444115706208 0 0 0
2236 18 13.93708253189939 11.811862715995105 2.512137848813053 0 0 0
2422 20 11.48421154315605 15.36420851052459 2.373617469779641 0 0 0
2425 17 11.674509496137508 12.444454701593521 0.8232032114104951 0 0 0
2431 19 15.455997237528639 13.559454393742882 2.3286637848180103 0 0 0
2427 2 16.31465613206574 12.92703424314881 0.3339670912506072 0 0 0
2433 14 15.569857907309318 14.249250942293429 1.994392480578083 0 0 0
2430 4 13.02472617475978 15.920158475149055 0.8219538714576953 0 0 0
2428 18 13.93708253189944 17.090397610339146 2.512137848813068 0 0 0
2436 16 16.086554475619145 16.6128526195231 1.9252120750727462 0 0 0
2426 1 13.591575015408255 13.575371546161385 1.1554800104448162 0 0 0
2435 15 14.14721689107136 17.062725883956553 2.4100444115706403 0 0 0
2248 18 20.032209616253276 11.811862715995224 2.512137848813193 0 0 0
2434 20 17.579338627510356 15.36420851052421 2.373617469779727 0 0 0
2437 17 17.769636580491564 12.444454701593635 0.8232032114103712 0 0 0
2443 19 21.551124321882554 13.559454393742874 2.3286637848179614 0 0 0
2439 2 22.409783216419758 12.927034243148743 0.33396709125054586 0 0 0
2445 14 21.664984991663307 14.249250942293509 1.9943924805779125 0 0 0
2442 4 19.119853259113903 15.92015847514911 0.8219538714578473 0 0 0
2440 18 20.032209616253237 17.090397610339355 2.512137848813291 0 0 0
2448 16 22.181681559973107 16.61285261952262 1.925212075072823 0 0 0
2438 1 19.686702099762332 13.575371546161326 1.1554800104446457 0 0 0
2447 15 20.242343975425307 17.062725883956738 2.4100444115708837 0 0 0
2260 18 26.12733670060731 11.811862715995094 2.5121378488131527 0 0 0
2446 20 23.67446571186422 15.3642085105243 2.3736174697796986 0 0 0
2449 17 23.86476366484553 12.444454701593626 0.8232032114104776 0 0 0
2455 19 27.646251406236885 13.559454393742827 2.3286637848180907 0 0 0
2451 2 28.504910300773712 12.927034243148668 0.3339670912505224 0 0 0
2454 4 25.21498034346778 15.920158475149094 0.8219538714577387 0 0 0
2452 18 26.127336700607263 17.090397610339178 2.5121378488132096 0 0 0
2460 16 28.276808644327044 16.612852619522602 1.9252120750728061 0 0 0
2457 14 27.760112076017396 14.24925094229332 1.9943924805780233 0 0 0
2450 1 25.78182918411627 13.575371546161357 1.1554800104448468 0 0 0
2459 15 26.337471059779304 17.062725883956556 2.4100444115707553 0 0 0
2272 18 32.22246378496143 11.81186271599483 2.5121378488129325 0 0 0
2461 17 29.95989074919938 12.444454701593287 0.8232032114106734 0 0 0