LAMMPS data file via write_data, version 29 Aug 2024, timestep = 102, units = metal

7296 atoms
24 atom types

0 97.522033349664 xlo xhi
0 100.292162992536 ylo yhi
-50 50 zlo zhi

Masses

1 51.9961
2 51.9961
3 51.9961
4 51.9961
5 51.9961
6 51.9961
7 51.9961
8 51.9961
9 32.06
10 32.06
11 32.06
12 32.06
13 32.06
14 32.06
15 32.06
16 32.06
17 32.06
18 32.06
19 32.06
20 32.06
21 32.06
22 32.06
23 32.06
24 32.06

Atoms # atomic

1830 4 0.26185758411603594 0.8536052130735864 0.27996234562205335 0 0 0
1828 14 1.7039254378486728 0.7512985843733596 2.0104019328299887 0 0 0
1836 12 3.4074551723920252 0.8500736018354902 1.7321445488377363 0 0 0
2023 15 2.934713447361722 2.657177396659519 1.4355554290095338 0 0 0
2019 2 2.5107338057433313 3.6861261348642747 -0.524156922780939 0 0 0
2025 10 3.477530607431662 3.058945406883162 1.4087432689395372 0 0 0
2026 16 5.22148757335504 4.622930209683597 1.5116103290055471 0 0 0
2029 13 5.332408122212646 2.251551257306255 1.722235051024744 0 0 0
1835 11 1.8122600931301682 0.7755480359395478 1.9177058685504522 0 0 0
2018 1 1.336959461275691 2.969714004918129 2.0957571655741676 0 0 0
2024 9 4.708967849247531 4.614537791194619 1.8207642511549469 0 0 0
1842 4 6.356984668470037 0.8536052130735842 0.27996234562204464 0 0 0
1840 14 7.799052522202661 0.7512985843733536 2.0104019328299834 0 0 0
1848 12 9.502582256746035 0.8500736018354879 1.7321445488377245 0 0 0
2035 15 9.029840531715713 2.65717739665953 1.435555429009549 0 0 0
2031 2 8.605860890097322 3.686126134864275 -0.5241569227809295 0 0 0
2037 10 9.57265769178566 3.0589454068831388 1.4087432689395378 0 0 0
2038 16 11.316614657709039 4.622930209683596 1.5116103290055543 0 0 0
2041 13 11.427535206566636 2.251551257306248 1.7222350510247517 0 0 0
1847 11 7.907387177484153 0.7755480359395387 1.9177058685504567 0 0 0
2030 1 7.432086545629693 2.969714004918126 2.0957571655741654 0 0 0
2036 9 10.804094933601537 4.614537791194615 1.8207642511549509 0 0 0
1854 4 12.452111752824035 0.8536052130735894 0.27996234562204175 0 0 0
1852 14 13.894179606556674 0.7512985843733575 2.0104019328299767 0 0 0
1860 12 15.597709341100032 0.8500736018354894 1.7321445488377287 0 0 0
2047 15 15.12496761606973 2.6571773966595282 1.4355554290095458 0 0 0
2043 2 14.700987974451321 3.6861261348642755 -0.5241569227809239 0 0 0
2049 10 15.667784776139657 3.058945406883155 1.408743268939546 0 0 0
1859 11 14.002514261838162 0.7755480359395484 1.9177058685504444 0 0 0
2042 1 13.527213629983681 2.969714004918128 2.0957571655741685 0 0 0
2048 9 16.899222017955537 4.614537791194609 1.8207642511549536 0 0 0
2050 16 17.411741742063036 4.6229302096835925 1.5116103290055574 0 0 0
1866 4 18.54723883717802 0.853605213073596 0.27996234562203476 0 0 0
1864 14 19.989306690910656 0.7512985843733647 2.0104019328299776 0 0 0
1872 12 21.692836425454043 0.8500736018354884 1.732144548837725 0 0 0
2053 13 17.52266229092066 2.251551257306282 1.7222350510247482 0 0 0
2059 15 21.22009470042373 2.6571773966595424 1.4355554290095427 0 0 0
2055 2 20.796115058805345 3.6861261348642738 -0.5241569227809406 0 0 0
2061 10 21.76291186049366 3.0589454068831388 1.4087432689395365 0 0 0
1871 11 20.097641346192148 0.7755480359395371 1.9177058685504405 0 0 0
2054 1 19.62234071433769 2.969714004918139 2.0957571655741605 0 0 0
2062 16 23.506868826417033 4.622930209683598 1.5116103290055594 0 0 0
1878 4 24.642365921532033 0.8536052130735904 0.279962345622055 0 0 0
1876 14 26.08443377526467 0.7512985843733481 2.01040193282999 0 0 0
1884 12 27.787963509808048 0.8500736018354909 1.732144548837728 0 0 0
2065 13 23.61778937527463 2.251551257306259 1.7222350510247446 0 0 0
2071 15 27.315221784777705 2.6571773966595176 1.4355554290095436 0 0 0
2067 2 26.89124214315934 3.6861261348642786 -0.5241569227809226 0 0 0
2073 10 27.858038944847678 3.058945406883138 1.4087432689395358 0 0 0
2060 9 22.994349102309535 4.614537791194616 1.8207642511549555 0 0 0
1883 11 26.192768430546153 0.7755480359395382 1.917705868550462 0 0 0
2066 1 25.717467798691697 2.9697140049181168 2.0957571655741685 0 0 0
1890 4 30.73749300588603 0.8536052130735902 0.2799623456220307 0 0 0
1888 14 32.17956085961867 0.751298584373352 2.0104019328299727 0 0 0
1896 12 33.88309059416203 0.8500736018354882 1.732144548837728 0 0 0
2077 13 29.71291645962863 2.2515512573062435 1.7222350510247446 0 0 0
2083 15 33.41034886913176 2.6571773966595433 1.4355554290095314 0 0 0
2079 2 32.98636922751334 3.6861261348642764 -0.5241569227809294 0 0 0
2074 16 29.601995910771027 4.622930209683595 1.5116103290055503 0 0 0
2085 10 33.95316602920167 3.0589454068831534 1.4087432689395387 0 0 0
1895 11 32.287895514900164 0.7755480359395378 1.9177058685504407 0 0 0
2072 9 29.089476186663518 4.614537791194611 1.8207642511549524 0 0 0
2078 1 31.81259488304569 2.9697140049181243 2.095757165574164 0 0 0
1902 4 36.832620090240034 0.8536052130735982 0.27996234562202776 0 0 0
1908 12 39.97821767851604 0.850073601835492 1.732144548837728 0 0 0
1900 14 38.27468794397265 0.7512985843733592 2.0104019328299736 0 0 0
2089 13 35.80804354398264 2.251551257306247 1.7222350510247537 0 0 0
2095 15 39.50547595348576 2.6571773966595487 1.4355554290095511 0 0 0
2091 2 39.081496311867305 3.6861261348642675 -0.524156922780934 0 0 0
2086 16 35.697122995125035 4.622930209683587 1.5116103290055602 0 0 0
2097 10 40.04829311355564 3.0589454068831534 1.4087432689395518 0 0 0
1907 11 38.383022599254154 0.7755480359395374 1.9177058685504371 0 0 0
2084 9 35.18460327101754 4.614537791194609 1.820764251154957 0 0 0
2090 1 37.90772196739969 2.9697140049181305 2.095757165574185 0 0 0
1914 4 42.92774717459404 0.8536052130735963 0.27996234562203337 0 0 0
1912 14 44.369815028326656 0.7512985843733623 2.0104019328299785 0 0 0
2101 13 41.90317062833665 2.2515512573062724 1.7222350510247315 0 0 0
2107 15 45.60060303783969 2.6571773966595207 1.4355554290095487 0 0 0
2103 2 45.17662339622134 3.6861261348642747 -0.5241569227809322 0 0 0
2098 16 41.79225007947903 4.622930209683598 1.511610329005554 0 0 0
1919 11 44.47814968360815 0.7755480359395435 1.9177058685504484 0 0 0
2096 9 41.27973035537151 4.614537791194617 1.820764251154962 0 0 0
2102 1 44.002849051753685 2.969714004918133 2.095757165574167 0 0 0
1920 12 46.07334476287002 0.8500736018354866 1.7321445488377243 0 0 0
1734 4 49.022874258948036 0.8536052130735973 0.2799623456220395 -1 0 0
1732 14 50.46494211268067 0.751298584373357 2.010401932829993 -1 0 0
1921 13 47.99829771269065 2.251551257306267 1.72223505102475 -1 0 0
2109 10 46.143420197909656 3.0589454068831365 1.4087432689395443 0 0 0
1923 2 51.271750480575335 3.6861261348642604 -0.5241569227809239 -1 0 0
2110 16 47.887377163833044 4.6229302096835925 1.5116103290055445 0 0 0
2108 9 47.37485743972554 4.6145377911946115 1.8207642511549393 0 0 0
1922 1 50.09797613610769 2.9697140049181345 2.0957571655741787 -1 0 0
1739 11 50.573276767962156 0.7755480359395357 1.9177058685504598 -1 0 0
1740 12 52.168471847224026 0.8500736018354937 1.732144548837727 -1 0 0
1746 4 55.11800134330203 0.8536052130736012 0.2799623456220381 -1 0 0
1744 14 56.56006919703464 0.7512985843733653 2.0104019328299825 -1 0 0
1927 15 51.695730122193766 2.657177396659553 1.4355554290095591 -1 0 0
1933 13 54.09342479704466 2.2515512573062817 1.7222350510247482 -1 0 0
1929 10 52.23854728226367 3.0589454068831397 1.408743268939549 -1 0 0
1930 16 53.982504248187034 4.622930209683593 1.5116103290055545 -1 0 0
1928 9 53.46998452407952 4.6145377911946115 1.8207642511549478 -1 0 0
1934 1 56.1931032204617 2.9697140049181376 2.095757165574179 -1 0 0
1751 11 56.66840385231615 0.7755480359395304 1.9177058685504518 -1 0 0
1935 2 57.366877564929325 3.686126134864266 -0.5241569227809397 -1 0 0
1752 12 58.26359893157802 0.8500736018354945 1.7321445488377252 -1 0 0
1758 4 61.21312842765605 0.8536052130736176 0.2799623456220233 -1 0 0
1756 14 62.65519628138866 0.7512985843733815 2.010401932829952 -1 0 0
1939 15 57.79085720654776 2.6571773966595544 1.4355554290095502 -1 0 0
1945 13 60.188551881398695 2.251551257306285 1.7222350510247613 -1 0 0
1941 10 58.33367436661764 3.0589454068831463 1.4087432689395427 -1 0 0
1942 16 60.07763133254104 4.622930209683598 1.5116103290055425 -1 0 0
1940 9 59.56511160843351 4.614537791194628 1.8207642511549609 -1 0 0
1946 1 62.28823030481571 2.9697140049181585 2.095757165574174 -1 0 0
1763 11 62.763530936670165 0.7755480359395599 1.9177058685504373 -1 0 0
1947 2 63.46200464928331 3.6861261348642915 -0.5241569227809292 -1 0 0
1764 12 64.358726015932 0.850073601835469 1.732144548837719 -1 0 0
1770 4 67.30825551201004 0.8536052130735915 0.2799623456220584 -1 0 0
1768 14 68.75032336574266 0.7512985843733662 2.010401932829947 -1 0 0
1951 15 63.885984290901625 2.657177396659518 1.4355554290095571 -1 0 0
1957 13 66.28367896575269 2.2515512573062777 1.7222350510247642 -1 0 0
1953 10 64.42880145097166 3.0589454068831516 1.4087432689395323 -1 0 0
1954 16 66.17275841689502 4.622930209683599 1.5116103290055654 -1 0 0
1952 9 65.66023869278757 4.614537791194606 1.8207642511549482 -1 0 0
1958 1 68.38335738916975 2.9697140049181296 2.095757165574159 -1 0 0
1959 2 69.55713173363732 3.6861261348642964 -0.52415692278094 -1 0 0
1776 12 70.45385310028604 0.8500736018354647 1.732144548837729 -1 0 0
1782 4 73.40338259636407 0.8536052130735832 0.27996234562206046 -1 0 0
1963 15 69.98111137525564 2.6571773966595162 1.435555429009539 -1 0 0
1969 13 72.37880605010668 2.2515512573062755 1.722235051024747 -1 0 0
1965 10 70.52392853532567 3.058945406883135 1.4087432689395152 -1 0 0
1966 16 72.26788550124901 4.622930209683617 1.5116103290055831 -1 0 0
1775 11 68.85865802102416 0.7755480359395347 1.917705868550421 -1 0 0
1964 9 71.75536577714158 4.614537791194637 1.8207642511549278 -1 0 0
1970 1 74.47848447352374 2.9697140049181385 2.0957571655741503 -1 0 0
1780 14 74.84545045009668 0.7512985843733717 2.010401932829993 -1 0 0
1788 12 76.54898018464004 0.8500736018354496 1.7321445488377445 -1 0 0
1794 4 79.49850968071806 0.8536052130735915 0.2799623456220621 -1 0 0
1975 15 76.07623845960957 2.6571773966594723 1.4355554290095476 -1 0 0
1981 13 78.47393313446067 2.2515512573062573 1.722235051024757 -1 0 0
1971 2 75.65225881799135 3.6861261348642995 -0.5241569227809326 -1 0 0
1977 10 76.61905561967968 3.0589454068831547 1.4087432689395296 -1 0 0
1978 16 78.36301258560306 4.622930209683597 1.5116103290055636 -1 0 0
1787 11 74.95378510537819 0.7755480359395558 1.9177058685504544 -1 0 0
1976 9 77.85049286149554 4.614537791194626 1.8207642511549738 -1 0 0
1792 14 80.94057753445067 0.7512985843733593 2.010401932829979 -1 0 0
1800 12 82.64410726899402 0.8500736018354643 1.7321445488377336 -1 0 0
1806 4 85.59363676507199 0.8536052130735969 0.2799623456220448 -1 0 0
1987 15 82.17136554396363 2.6571773966595 1.4355554290095678 -1 0 0
1993 13 84.56906021881466 2.2515512573062777 1.7222350510247753 -1 0 0
1983 2 81.74738590234531 3.6861261348642835 -0.5241569227809175 -1 0 0
1989 10 82.71418270403368 3.058945406883133 1.4087432689395358 -1 0 0
1990 16 84.45813966995708 4.622930209683588 1.5116103290055511 -1 0 0
1799 11 81.04891218973216 0.7755480359395405 1.9177058685504735 -1 0 0
1982 1 80.57361155787771 2.9697140049181256 2.0957571655741765 -1 0 0
1988 9 83.94561994584956 4.614537791194614 1.8207642511549464 -1 0 0
1804 14 87.03570461880466 0.7512985843733699 2.0104019328299576 -1 0 0
1812 12 88.73923435334804 0.8500736018354474 1.7321445488377198 -1 0 0
1818 4 91.68876384942607 0.8536052130735899 0.27996234562206546 -1 0 0
1999 15 88.26649262831766 2.6571773966595207 1.4355554290095456 -1 0 0
2005 13 90.66418730316867 2.251551257306247 1.722235051024778 -1 0 0
1995 2 87.84251298669932 3.6861261348642964 -0.5241569227809357 -1 0 0
2001 10 88.80930978838765 3.0589454068831343 1.4087432689395243 -1 0 0
2002 16 90.55326675431107 4.622930209683598 1.5116103290055427 -1 0 0
1811 11 87.14403927408613 0.7755480359395508 1.9177058685504371 -1 0 0
1994 1 86.66873864223167 2.969714004918143 2.095757165574143 -1 0 0
2000 9 90.04074703020355 4.614537791194624 1.820764251154955 -1 0 0
2017 13 96.75931438752265 2.2515512573062644 1.7222350510247593 -1 0 0
1816 14 93.13083170315869 0.7512985843733732 2.01040193282996 -1 0 0
1824 12 94.83436143770203 0.8500736018354575 1.732144548837719 -1 0 0
2011 15 94.36161971267154 2.657177396659493 1.43555542900958 -1 0 0
2007 2 93.9376400710533 3.686126134864296 -0.5241569227809303 -1 0 0
2013 10 94.90443687274167 3.0589454068831468 1.4087432689395358 -1 0 0
2014 16 96.64839383866504 4.622930209683595 1.5116103290055631 -1 0 0
1823 11 93.23916635844019 0.7755480359395551 1.9177058685504595 -1 0 0
2006 1 92.76386572658573 2.9697140049181363 2.0957571655741756 -1 0 0
2012 9 96.13587411455757 4.614537791194615 1.8207642511549396 -1 0 0
2020 14 1.7039254378486377 6.029833478717372 2.0104019328299847 0 0 0
2022 4 0.2618575841160274 6.132140107417572 0.2799623456220319 0 0 0
2028 12 3.4074551723920403 6.128608496179479 1.7321445488377223 0 0 0
2215 15 2.934713447361716 7.935712291003519 1.435555429009532 0 0 0
2211 2 2.510733805743347 8.964661029208264 -0.5241569227809499 0 0 0
2217 10 3.477530607431639 8.337480301227144 1.4087432689395492 0 0 0
2214 4 0.26185758411602533 11.410675001761609 0.27996234562202216 0 0 0
2212 14 1.7039254378486588 11.308368373061382 2.010401932829953 0 0 0
2220 12 3.4074551723920283 11.407143390523492 1.7321445488377252 0 0 0
2218 16 5.221487573355021 9.9014651040276 1.511610329005562 0 0 0
2221 13 5.332408122212663 7.53008615165026 1.722235051024756 0 0 0
2027 11 1.8122600931301658 6.054082930283517 1.91770586855044 0 0 0
2210 1 1.3369594612756748 8.248248899262148 2.0957571655741676 0 0 0
2216 9 4.708967849247526 9.893072685538614 1.8207642511549598 0 0 0
2219 11 1.8122600931301656 11.332617824627542 1.9177058685504138 0 0 0
2032 14 7.799052522202648 6.029833478717366 2.01040193282997 0 0 0
2034 4 6.356984668470026 6.1321401074175865 0.27996234562203615 0 0 0
2040 12 9.50258225674603 6.128608496179485 1.7321445488377227 0 0 0
2227 15 9.029840531715719 7.935712291003532 1.4355554290095431 0 0 0
2223 2 8.605860890097333 8.964661029208276 -0.5241569227809373 0 0 0
2229 10 9.572657691785643 8.337480301227146 1.4087432689395454 0 0 0
2226 4 6.356984668469993 11.410675001761588 0.2799623456220405 0 0 0
2224 14 7.799052522202635 11.308368373061365 2.0104019328299616 0 0 0
2232 12 9.502582256746031 11.40714339052349 1.7321445488377236 0 0 0
2230 16 11.316614657709033 9.901465104027599 1.5116103290055538 0 0 0
2233 13 11.42753520656666 7.530086151650264 1.7222350510247606 0 0 0
2039 11 7.907387177484151 6.054082930283537 1.917705868550439 0 0 0
2222 1 7.432086545629688 8.24824889926214 2.0957571655741614 0 0 0
2228 9 10.80409493360154 9.893072685538622 1.8207642511549464 0 0 0
2231 11 7.907387177484132 11.332617824627537 1.917705868550429 0 0 0
2044 14 13.894179606556646 6.02983347871737 2.0104019328299723 0 0 0
2046 4 12.452111752824017 6.132140107417586 0.2799623456220349 0 0 0
2052 12 15.597709341100028 6.128608496179482 1.732144548837722 0 0 0
2239 15 15.124967616069728 7.935712291003531 1.4355554290095411 0 0 0
2235 2 14.700987974451333 8.964661029208267 -0.5241569227809382 0 0 0
2241 10 15.667784776139639 8.337480301227155 1.4087432689395487 0 0 0
2238 4 12.452111752824013 11.41067500176159 0.27996234562202915 0 0 0
2236 14 13.894179606556628 11.30836837306138 2.010401932829962 0 0 0
2244 12 15.59770934110002 11.407143390523492 1.7321445488377218 0 0 0
2051 11 14.00251426183815 6.054082930283537 1.917705868550437 0 0 0
2234 1 13.527213629983677 8.24824889926214 2.0957571655741614 0 0 0
2240 9 16.899222017955527 9.893072685538618 1.8207642511549584 0 0 0
2243 11 14.002514261838142 11.33261782462754 1.9177058685504316 0 0 0
2056 14 19.989306690910645 6.029833478717359 2.0104019328299687 0 0 0
2242 16 17.411741742063032 9.901465104027597 1.5116103290055558 0 0 0
2058 4 18.547238837178014 6.132140107417578 0.27996234562203476 0 0 0
2064 12 21.69283642545404 6.128608496179482 1.73214454883772 0 0 0
2245 13 17.52266229092066 7.530086151650256 1.7222350510247608 0 0 0
2251 15 21.22009470042374 7.9357122910035525 1.4355554290095391 0 0 0
2247 2 20.796115058805327 8.964661029208267 -0.5241569227809489 0 0 0
2253 10 21.762911860493638 8.337480301227144 1.408743268939534 0 0 0
2250 4 18.547238837178003 11.410675001761584 0.27996234562202443 0 0 0
2248 14 19.989306690910638 11.308368373061374 2.010401932829958 0 0 0
2256 12 21.692836425454036 11.407143390523494 1.7321445488377247 0 0 0
2063 11 20.097641346192145 6.054082930283528 1.9177058685504347 0 0 0
2246 1 19.622340714337682 8.248248899262133 2.0957571655741507 0 0 0
2255 11 20.09764134619214 11.332617824627537 1.917705868550424 0 0 0
2068 14 26.084433775264646 6.029833478717366 2.010401932829969 0 0 0
2254 16 23.50686882641702 9.901465104027606 1.5116103290055538 0 0 0
2070 4 24.642365921532015 6.132140107417583 0.27996234562204486 0 0 0
2076 12 27.787963509808037 6.128608496179485 1.7321445488377223 0 0 0
2257 13 23.617789375274654 7.53008615165026 1.722235051024762 0 0 0
2263 15 27.31522178477773 7.935712291003539 1.4355554290095447 0 0 0
2259 2 26.89124214315933 8.964661029208267 -0.5241569227809403 0 0 0
2262 4 24.642365921531997 11.410675001761595 0.279962345622033 0 0 0
2260 14 26.084433775264635 11.308368373061365 2.01040193282997 0 0 0
2268 12 27.787963509808037 11.40714339052349 1.7321445488377258 0 0 0
2265 10 27.85803894484765 8.337480301227144 1.4087432689395427 0 0 0
2252 9 22.994349102309524 9.893072685538623 1.8207642511549482 0 0 0
2075 11 26.19276843054615 6.054082930283533 1.917705868550438 0 0 0
2258 1 25.717467798691676 8.248248899262132 2.0957571655741574 0 0 0
2267 11 26.192768430546135 11.332617824627535 1.9177058685504322 0 0 0
2080 14 32.17956085961863 6.029833478717357 2.0104019328299687 0 0 0
2082 4 30.73749300588601 6.132140107417585 0.27996234562203415 0 0 0
2088 12 33.88309059416202 6.128608496179492 1.7321445488377116 0 0 0
2269 13 29.712916459628662 7.530086151650261 1.7222350510247697 0 0 0
2275 15 33.41034886913179 7.935712291003575 1.435555429009553 0 0 0
2271 2 32.98636922751332 8.964661029208266 -0.5241569227809424 0 0 0
2266 16 29.60199591077104 9.901465104027592 1.5116103290055485 0 0 0
2274 4 30.73749300588602 11.410675001761582 0.2799623456220264 0 0 0
2272 14 32.17956085961863 11.308368373061372 2.01040193282997 0 0 0
2280 12 33.88309059416201 11.407143390523501 1.7321445488377196 0 0 0
2277 10 33.953166029201626 8.337480301227142 1.4087432689395394 0 0 0
2087 11 32.28789551490014 6.054082930283522 1.9177058685504373 0 0 0
2264 9 29.08947618666354 9.893072685538614 1.8207642511549387 0 0 0
2270 1 31.812594883045676 8.24824889926213 2.0957571655741627 0 0 0
2279 11 32.28789551490014 11.332617824627535 1.9177058685504316 0 0 0
2092 14 38.274687943972644 6.02983347871736 2.010401932829967 0 0 0
2094 4 36.832620090240006 6.1321401074175785 0.2799623456220383 0 0 0
2100 12 39.978217678516025 6.1286084961794804 1.7321445488377158 0 0 0
2281 13 35.80804354398265 7.530086151650258 1.722235051024761 0 0 0
2287 15 39.50547595348578 7.935712291003545 1.4355554290095347 0 0 0
2283 2 39.08149631186735 8.96466102920827 -0.524156922780942 0 0 0
2278 16 35.697122995125056 9.901465104027595 1.5116103290055338 0 0 0
2286 4 36.832620090240034 11.410675001761597 0.2799623456220214 0 0 0
2292 12 39.97821767851601 11.407143390523492 1.7321445488377205 0 0 0
2284 14 38.27468794397263 11.308368373061386 2.010401932829959 0 0 0
2289 10 40.04829311355564 8.337480301227144 1.4087432689395463 0 0 0
2099 11 38.383022599254154 6.05408293028353 1.91770586855043 0 0 0
2276 9 35.18460327101754 9.893072685538623 1.8207642511549391 0 0 0
2282 1 37.90772196739968 8.248248899262132 2.0957571655741543 0 0 0
2291 11 38.38302259925415 11.332617824627539 1.9177058685504322 0 0 0
2104 14 44.36981502832664 6.029833478717363 2.010401932829977 0 0 0
2106 4 42.927747174594025 6.13214010741758 0.2799623456220424 0 0 0
2293 13 41.90317062833666 7.530086151650257 1.722235051024763 0 0 0
2299 15 45.60060303783971 7.935712291003519 1.4355554290095436 0 0 0
2295 2 45.17662339622133 8.964661029208271 -0.5241569227809326 0 0 0
2290 16 41.79225007947904 9.901465104027606 1.511610329005548 0 0 0
2298 4 42.927747174594025 11.41067500176159 0.27996234562202965 0 0 0
2296 14 44.36981502832665 11.308368373061372 2.010401932829975 0 0 0
2111 11 44.47814968360815 6.05408293028353 1.9177058685504444 0 0 0
2288 9 41.27973035537153 9.893072685538622 1.8207642511549493 0 0 0
2294 1 44.002849051753685 8.24824889926213 2.095757165574168 0 0 0
2303 11 44.47814968360815 11.332617824627548 1.9177058685504405 0 0 0
1924 14 50.464942112680646 6.029833478717369 2.01040193282998 -1 0 0
2112 12 46.07334476287001 6.128608496179477 1.732144548837723 0 0 0
2304 12 46.073344762870015 11.407143390523494 1.7321445488377303 0 0 0
1926 4 49.02287425894803 6.132140107417593 0.27996234562204414 -1 0 0
2113 13 47.99829771269066 7.530086151650264 1.7222350510247606 -1 0 0
2301 10 46.14342019790964 8.337480301227144 1.408743268939549 0 0 0
2115 2 51.27175048057532 8.964661029208258 -0.5241569227809404 -1 0 0
2302 16 47.887377163833044 9.901465104027604 1.5116103290055383 0 0 0
2118 4 49.02287425894802 11.410675001761597 0.279962345622017 -1 0 0
2116 14 50.46494211268064 11.308368373061391 2.010401932829961 -1 0 0
2300 9 47.37485743972554 9.893072685538623 1.8207642511549342 0 0 0
2114 1 50.09797613610768 8.248248899262137 2.0957571655741702 -1 0 0
1931 11 50.57327676796215 6.054082930283537 1.9177058685504382 -1 0 0
2123 11 50.57327676796215 11.332617824627555 1.9177058685504176 -1 0 0
1936 14 56.56006919703464 6.029833478717357 2.0104019328299785 -1 0 0
1932 12 52.16847184722401 6.128608496179494 1.7321445488377192 -1 0 0
1938 4 55.118001343302005 6.132140107417582 0.2799623456220395 -1 0 0
2119 15 51.69573012219375 7.935712291003547 1.4355554290095531 -1 0 0
2125 13 54.09342479704464 7.530086151650257 1.7222350510247595 -1 0 0
2121 10 52.23854728226364 8.337480301227156 1.408743268939555 -1 0 0
2124 12 52.16847184722399 11.407143390523496 1.7321445488377216 -1 0 0
2122 16 53.982504248187034 9.901465104027604 1.5116103290055318 -1 0 0
2130 4 55.11800134330201 11.4106750017616 0.2799623456220198 -1 0 0
2128 14 56.56006919703465 11.308368373061375 2.010401932829955 -1 0 0
2120 9 53.46998452407951 9.893072685538622 1.8207642511549564 -1 0 0
2126 1 56.19310322046167 8.248248899262135 2.0957571655741676 -1 0 0
1943 11 56.668403852316146 6.054082930283536 1.9177058685504387 -1 0 0
2135 11 56.668403852316146 11.332617824627551 1.9177058685504136 -1 0 0
1948 14 62.655196281388655 6.029833478717375 2.0104019328299483 -1 0 0
2127 2 57.366877564929325 8.964661029208253 -0.524156922780936 -1 0 0
1944 12 58.26359893157801 6.1286084961794876 1.7321445488377127 -1 0 0
1950 4 61.21312842765602 6.132140107417599 0.2799623456220369 -1 0 0
2131 15 57.79085720654778 7.93571229100356 1.4355554290095502 -1 0 0
2137 13 60.188551881398666 7.53008615165025 1.7222350510247852 -1 0 0
2133 10 58.333674366617636 8.337480301227144 1.4087432689395487 -1 0 0
2136 12 58.26359893157801 11.407143390523492 1.7321445488377167 -1 0 0
2134 16 60.07763133254103 9.901465104027608 1.511610329005563 -1 0 0
2142 4 61.21312842765601 11.410675001761588 0.2799623456220249 -1 0 0
2140 14 62.65519628138864 11.308368373061382 2.0104019328299425 -1 0 0
2132 9 59.56511160843354 9.893072685538638 1.8207642511549482 -1 0 0
2138 1 62.28823030481569 8.248248899262144 2.0957571655741734 -1 0 0
1955 11 62.76353093667016 6.054082930283535 1.917705868550441 -1 0 0
2147 11 62.76353093667015 11.332617824627537 1.9177058685504265 -1 0 0
1960 14 68.75032336574263 6.029833478717359 2.010401932829954 -1 0 0
2139 2 63.4620046492833 8.964661029208287 -0.524156922780931 -1 0 0
1956 12 64.358726015932 6.128608496179457 1.7321445488377136 -1 0 0
1962 4 67.30825551201004 6.132140107417573 0.2799623456220602 -1 0 0
2143 15 63.885984290901646 7.935712291003508 1.4355554290095547 -1 0 0
2149 13 66.2836789657527 7.530086151650268 1.7222350510247628 -1 0 0
2145 10 64.42880145097165 8.337480301227151 1.4087432689395467 -1 0 0
2148 12 64.358726015932 11.407143390523457 1.7321445488377136 -1 0 0
2146 16 66.17275841689504 9.901465104027602 1.5116103290055878 -1 0 0
2154 4 67.30825551201002 11.41067500176157 0.27996234562204564 -1 0 0
2152 14 68.75032336574263 11.308368373061365 2.010401932829988 -1 0 0
2144 9 65.66023869278757 9.893072685538645 1.8207642511549378 -1 0 0
2150 1 68.38335738916972 8.248248899262123 2.0957571655741334 -1 0 0
2151 2 69.55713173363733 8.964661029208296 -0.5241569227809593 -1 0 0
1968 12 70.45385310028604 6.12860849617946 1.7321445488377274 -1 0 0
1974 4 73.40338259636401 6.132140107417574 0.27996234562205374 -1 0 0
2155 15 69.98111137525568 7.935712291003502 1.435555429009534 -1 0 0
2161 13 72.37880605010669 7.530086151650274 1.7222350510247728 -1 0 0
2157 10 70.52392853532564 8.337480301227133 1.4087432689395252 -1 0 0
2160 12 70.45385310028603 11.407143390523474 1.7321445488377225 -1 0 0
2158 16 72.26788550124904 9.901465104027608 1.5116103290055534 -1 0 0
2166 4 73.40338259636404 11.410675001761593 0.2799623456220405 -1 0 0
1967 11 68.85865802102414 6.054082930283517 1.9177058685504234 -1 0 0
2156 9 71.75536577714152 9.893072685538646 1.820764251154954 -1 0 0
2159 11 68.85865802102416 11.33261782462751 1.917705868550467 -1 0 0
2162 1 74.47848447352371 8.248248899262126 2.0957571655741623 -1 0 0
1972 14 74.84545045009662 6.029833478717358 2.0104019328299767 -1 0 0
1980 12 76.54898018464004 6.128608496179469 1.7321445488377163 -1 0 0
1986 4 79.49850968071806 6.132140107417579 0.2799623456220397 -1 0 0
2167 15 76.07623845960961 7.935712291003499 1.435555429009552 -1 0 0
2173 13 78.4739331344607 7.53008615165026 1.7222350510247675 -1 0 0
2163 2 75.65225881799132 8.96466102920829 -0.5241569227809304 -1 0 0
2169 10 76.61905561967964 8.337480301227098 1.4087432689395287 -1 0 0
2164 14 74.84545045009666 11.308368373061372 2.0104019328299687 -1 0 0
2172 12 76.54898018464004 11.407143390523476 1.732144548837726 -1 0 0
2178 4 79.498509680718 11.410675001761584 0.2799623456220308 -1 0 0
2170 16 78.36301258560304 9.901465104027602 1.511610329005577 -1 0 0
1979 11 74.95378510537813 6.054082930283518 1.917705868550467 -1 0 0
2168 9 77.85049286149555 9.893072685538636 1.8207642511549609 -1 0 0
2171 11 74.95378510537817 11.332617824627542 1.917705868550448 -1 0 0
1984 14 80.94057753445067 6.029833478717377 2.0104019328299647 -1 0 0
1992 12 82.64410726899403 6.12860849617947 1.7321445488377245 -1 0 0
1998 4 85.59363676507206 6.132140107417577 0.27996234562202105 -1 0 0
2179 15 82.17136554396362 7.935712291003496 1.435555429009541 -1 0 0
2185 13 84.5690602188147 7.530086151650243 1.722235051024773 -1 0 0
2175 2 81.74738590234531 8.964661029208287 -0.5241569227809336 -1 0 0
2181 10 82.71418270403365 8.337480301227153 1.4087432689395263 -1 0 0
2176 14 80.94057753445067 11.308368373061372 2.010401932829958 -1 0 0
2184 12 82.64410726899403 11.407143390523473 1.7321445488377263 -1 0 0
2182 16 84.45813966995705 9.901465104027597 1.511610329005571 -1 0 0
2190 4 85.59363676507202 11.41067500176159 0.2799623456220404 -1 0 0
1991 11 81.04891218973218 6.054082930283527 1.9177058685504582 -1 0 0
2174 1 80.57361155787773 8.248248899262144 2.0957571655741574 -1 0 0
2180 9 83.94561994584956 9.893072685538622 1.8207642511549733 -1 0 0
2183 11 81.04891218973216 11.332617824627535 1.9177058685504271 -1 0 0
1996 14 87.03570461880466 6.02983347871738 2.010401932829973 -1 0 0
2004 12 88.73923435334802 6.128608496179469 1.7321445488377238 -1 0 0
2010 4 91.68876384942605 6.132140107417598 0.2799623456220148 -1 0 0
2191 15 88.26649262831768 7.9357122910035365 1.4355554290095542 -1 0 0
2197 13 90.66418730316872 7.530086151650271 1.7222350510247746 -1 0 0
2187 2 87.84251298669929 8.964661029208271 -0.5241569227809392 -1 0 0
2193 10 88.80930978838764 8.337480301227155 1.4087432689395345 -1 0 0
2188 14 87.03570461880466 11.308368373061375 2.010401932829956 -1 0 0
2196 12 88.73923435334801 11.407143390523471 1.7321445488377292 -1 0 0
2194 16 90.55326675431105 9.901465104027604 1.5116103290055702 -1 0 0
2202 4 91.68876384942604 11.410675001761593 0.27996234562205885 -1 0 0
2003 11 87.14403927408618 6.054082930283516 1.9177058685504667 -1 0 0
2186 1 86.66873864223172 8.248248899262157 2.0957571655741787 -1 0 0
2192 9 90.04074703020356 9.893072685538643 1.8207642511549382 -1 0 0
2195 11 87.14403927408615 11.332617824627532 1.9177058685504256 -1 0 0
2008 14 93.13083170315865 6.029833478717381 2.0104019328299403 -1 0 0
2209 13 96.75931438752269 7.530086151650271 1.7222350510247604 -1 0 0
2016 12 94.83436143770204 6.128608496179455 1.7321445488377196 -1 0 0
2203 15 94.36161971267165 7.935712291003524 1.435555429009542 -1 0 0
2199 2 93.93764007105332 8.964661029208294 -0.5241569227809644 -1 0 0
2205 10 94.90443687274163 8.337480301227162 1.4087432689395256 -1 0 0
2200 14 93.13083170315868 11.308368373061374 2.010401932829988 -1 0 0
2208 12 94.834361437702 11.407143390523489 1.7321445488377174 -1 0 0
2206 16 96.64839383866506 9.901465104027606 1.511610329005536 -1 0 0
2015 11 93.23916635844017 6.054082930283535 1.9177058685504167 -1 0 0
2198 1 92.76386572658573 8.248248899262153 2.095757165574148 -1 0 0
2204 9 96.13587411455755 9.893072685538623 1.820764251154943 -1 0 0
2207 11 93.23916635844014 11.332617824627542 1.9177058685504744 -1 0 0
2407 15 2.934713447361718 13.214247185347544 1.4355554290095358 0 0 0
2403 2 2.5107338057433317 14.243195923552278 -0.5241569227809522 0 0 0
2409 10 3.477530607431644 13.61601519557118 1.4087432689395436 0 0 0
2406 4 0.26185758411599475 16.689209896105577 0.27996234562202915 0 0 0
2404 14 1.7039254378486246 16.58690326740537 2.0104019328299634 0 0 0
2412 12 3.4074551723920172 16.68567828486748 1.7321445488377232 0 0 0
2410 16 5.22148757335503 15.179999998371594 1.5116103290055618 0 0 0
2413 13 5.332408122212646 12.808621045994267 1.7222350510247701 0 0 0