LAMMPS data file via write_data, version 29 Aug 2024, timestep = 0, units = metal

3648 atoms
12 atom types

0 97.522033349664 xlo xhi
0 100.292162992536 ylo yhi
0 17.948169139615 zlo zhi

Masses

1 32.06
2 32.06
3 32.06
4 51.9961
5 32.06
6 32.06
7 32.06
8 32.06
9 51.9961
10 51.9961
11 51.9961
12 32.06

Atoms # atomic

1830 4 0 0.8797558157239962 0 0 0 0
1828 10 1.5237817710889985 0 1.4740845698069993 0 0 0
1836 8 3.047563542177002 0.8797558157239962 0 0 0 0
1834 12 4.571345313266001 0 1.4740845698069993 0 0 0
1842 4 6.095127084353997 0.8797558157239962 0 0 0 0
1840 10 7.618908855443003 0 1.4740845698069993 0 0 0
1848 8 9.142690626531 0.8797558157239962 0 0 0 0
1846 12 10.666472397619998 0 1.4740845698069993 0 0 0
1854 4 12.190254168708002 0.8797558157239962 0 0 0 0
1852 10 13.714035939797 0 1.4740845698069993 0 0 0
1860 8 15.237817710884997 0.8797558157239962 0 0 0 0
1858 12 16.761599481973995 0 1.4740845698069993 0 0 0
1866 4 18.285381253062006 0.8797558157239962 0 0 0 0
1864 10 19.809163024150998 0 1.4740845698069993 0 0 0
1872 8 21.332944795238994 0.8797558157239962 0 0 0 0
1870 12 22.856726566328 0 1.4740845698069993 0 0 0
1878 4 24.380508337415996 0.8797558157239962 0 0 0 0
1876 10 25.904290108505002 0 1.4740845698069993 0 0 0
1884 8 27.428071879593 0.8797558157239962 0 0 0 0
1882 12 28.951853650682004 0 1.4740845698069993 0 0 0
1890 4 30.47563542177 0.8797558157239962 0 0 0 0
1888 10 31.999417192859006 0 1.4740845698069993 0 0 0
1896 8 33.523198963947 0.8797558157239962 0 0 0 0
1894 12 35.046980735035994 0 1.4740845698069993 0 0 0
1902 4 36.570762506124005 0.8797558157239962 0 0 0 0
1908 8 39.61832604830101 0.8797558157239962 0 0 0 0
1900 10 38.094544277213 0 1.4740845698069993 0 0 0
1906 12 41.14210781939 0 1.4740845698069993 0 0 0
1914 4 42.665889590477995 0.8797558157239962 0 0 0 0
1912 10 44.189671361567 0 1.4740845698069993 0 0 0
1920 8 45.713453132655 0.8797558157239962 0 0 0 0
1918 12 47.237234903744 0 1.4740845698069993 0 0 0
1734 4 48.761016674832 0.8797558157239962 0 -1 0 0
1732 10 50.284798445921 0 1.4740845698069993 -1 0 0
1740 8 51.808580217009 0.8797558157239962 0 -1 0 0
1738 12 53.332361988098 0 1.4740845698069993 -1 0 0
1746 4 54.856143759186 0.8797558157239962 0 -1 0 0
1744 10 56.379925530275 0 1.4740845698069993 -1 0 0
1752 8 57.903707301363 0.8797558157239962 0 -1 0 0
1750 12 59.427489072452 0 1.4740845698069993 -1 0 0
1758 4 60.95127084354 0.8797558157239962 0 -1 0 0
1756 10 62.475052614629 0 1.4740845698069993 -1 0 0
1764 8 63.998834385717004 0.8797558157239962 0 -1 0 0
1762 12 65.522616156806 0 1.4740845698069993 -1 0 0
1770 4 67.04639792789399 0.8797558157239962 0 -1 0 0
1768 10 68.570179698983 0 1.4740845698069993 -1 0 0
1776 8 70.09396147007101 0.8797558157239962 0 -1 0 0
1774 12 71.61774324116 0 1.4740845698069993 -1 0 0
1782 4 73.141525012248 0.8797558157239962 0 -1 0 0
1780 10 74.665306783337 0 1.4740845698069993 -1 0 0
1788 8 76.189088554425 0.8797558157239962 0 -1 0 0
1794 4 79.236652096602 0.8797558157239962 0 -1 0 0
1786 12 77.712870325514 0 1.4740845698069993 -1 0 0
1792 10 80.760433867691 0 1.4740845698069993 -1 0 0
1800 8 82.284215638779 0.8797558157239962 0 -1 0 0
1798 12 83.807997409868 0 1.4740845698069993 -1 0 0
1806 4 85.331779180956 0.8797558157239962 0 -1 0 0
1804 10 86.855560952045 0 1.4740845698069993 -1 0 0
1812 8 88.37934272313299 0.8797558157239962 0 -1 0 0
1810 12 89.903124494222 0 1.4740845698069993 -1 0 0
1818 4 91.42690626531001 0.8797558157239962 0 -1 0 0
1816 10 92.950688036399 0 1.4740845698069993 -1 0 0
1824 8 94.474469807487 0.8797558157239962 0 -1 0 0
1822 12 95.998251578576 0 1.4740845698069993 -1 0 0
2017 9 0 2.6392674471719957 1.4740845698069993 0 0 0
2023 11 3.047563542177002 2.6392674471719957 1.4740845698069993 0 0 0
2029 9 6.095127084353997 2.6392674471719957 1.4740845698069993 0 0 0
2035 11 9.142690626531 2.6392674471719957 1.4740845698069993 0 0 0
2041 9 12.190254168708002 2.6392674471719957 1.4740845698069993 0 0 0
2047 11 15.237817710884997 2.6392674471719957 1.4740845698069993 0 0 0
2053 9 18.285381253062006 2.6392674471719957 1.4740845698069993 0 0 0
2059 11 21.332944795238994 2.6392674471719957 1.4740845698069993 0 0 0
2065 9 24.380508337415996 2.6392674471719957 1.4740845698069993 0 0 0
2071 11 27.428071879593 2.6392674471719957 1.4740845698069993 0 0 0
2077 9 30.47563542177 2.6392674471719957 1.4740845698069993 0 0 0
2083 11 33.523198963947 2.6392674471719957 1.4740845698069993 0 0 0
2089 9 36.570762506124005 2.6392674471719957 1.4740845698069993 0 0 0
2095 11 39.61832604830101 2.6392674471719957 1.4740845698069993 0 0 0
2101 9 42.665889590477995 2.6392674471719957 1.4740845698069993 0 0 0
2107 11 45.713453132655 2.6392674471719957 1.4740845698069993 0 0 0
1921 9 48.761016674832 2.6392674471719957 1.4740845698069993 -1 0 0
1927 11 51.808580217009 2.6392674471719957 1.4740845698069993 -1 0 0
1933 9 54.856143759186 2.6392674471719957 1.4740845698069993 -1 0 0
1939 11 57.903707301363 2.6392674471719957 1.4740845698069993 -1 0 0
1945 9 60.95127084354 2.6392674471719957 1.4740845698069993 -1 0 0
1951 11 63.998834385717004 2.6392674471719957 1.4740845698069993 -1 0 0
1957 9 67.04639792789399 2.6392674471719957 1.4740845698069993 -1 0 0
1963 11 70.09396147007101 2.6392674471719957 1.4740845698069993 -1 0 0
1969 9 73.141525012248 2.6392674471719957 1.4740845698069993 -1 0 0
1975 11 76.189088554425 2.6392674471719957 1.4740845698069993 -1 0 0
1981 9 79.236652096602 2.6392674471719957 1.4740845698069993 -1 0 0
1987 11 82.284215638779 2.6392674471719957 1.4740845698069993 -1 0 0
1993 9 85.331779180956 2.6392674471719957 1.4740845698069993 -1 0 0
1999 11 88.37934272313299 2.6392674471719957 1.4740845698069993 -1 0 0
2005 9 91.42690626531001 2.6392674471719957 1.4740845698069993 -1 0 0
2011 11 94.474469807487 2.6392674471719957 1.4740845698069993 -1 0 0
2019 2 1.5237817710880037 3.519023262895999 0 0 0 0
2025 6 4.571345313264999 3.519023262895999 0 0 0 0
2031 2 7.618908855442001 3.519023262895999 0 0 0 0
2037 6 10.666472397619003 3.519023262895999 0 0 0 0
2043 2 13.714035939795998 3.519023262895999 0 0 0 0
2049 6 16.761599481973 3.519023262895999 0 0 0 0
2055 2 19.809163024150003 3.519023262895999 0 0 0 0
2061 6 22.856726566327005 3.519023262895999 0 0 0 0
2067 2 25.904290108504007 3.519023262895999 0 0 0 0
2073 6 28.951853650680995 3.519023262895999 0 0 0 0
2079 2 31.999417192857997 3.519023262895999 0 0 0 0
2085 6 35.046980735035 3.519023262895999 0 0 0 0
2091 2 38.094544277212 3.519023262895999 0 0 0 0
2097 6 41.142107819389004 3.519023262895999 0 0 0 0
2103 2 44.189671361566006 3.519023262895999 0 0 0 0
2109 6 47.237234903742994 3.519023262895999 0 0 0 0
1923 2 50.284798445919996 3.519023262895999 0 -1 0 0
1929 6 53.332361988097 3.519023262895999 0 -1 0 0
1935 2 56.379925530274 3.519023262895999 0 -1 0 0
1941 6 59.427489072450996 3.519023262895999 0 -1 0 0
1947 2 62.475052614628 3.519023262895999 0 -1 0 0
1953 6 65.522616156805 3.519023262895999 0 -1 0 0
1959 2 68.570179698982 3.519023262895999 0 -1 0 0
1965 6 71.617743241159 3.519023262895999 0 -1 0 0
1971 2 74.665306783336 3.519023262895999 0 -1 0 0
1977 6 77.712870325513 3.519023262895999 0 -1 0 0
1983 2 80.76043386769 3.519023262895999 0 -1 0 0
1989 6 83.807997409867 3.519023262895999 0 -1 0 0
1995 2 86.855560952044 3.519023262895999 0 -1 0 0
2001 6 89.903124494221 3.519023262895999 0 -1 0 0
2007 2 92.95068803639799 3.519023262895999 0 -1 0 0
2013 6 95.99825157857501 3.519023262895999 0 -1 0 0
2022 4 0 6.158290710067995 0 0 0 0
2020 10 1.5237817710889985 5.2785348943439985 1.4740845698069993 0 0 0
2028 8 3.047563542177002 6.158290710067995 0 0 0 0
2026 12 4.571345313266001 5.2785348943439985 1.4740845698069993 0 0 0
2034 4 6.095127084353997 6.158290710067995 0 0 0 0
2032 10 7.618908855443003 5.2785348943439985 1.4740845698069993 0 0 0
2040 8 9.142690626531 6.158290710067995 0 0 0 0
2038 12 10.666472397619998 5.2785348943439985 1.4740845698069993 0 0 0
2046 4 12.190254168708002 6.158290710067995 0 0 0 0
2044 10 13.714035939797 5.2785348943439985 1.4740845698069993 0 0 0
2052 8 15.237817710884997 6.158290710067995 0 0 0 0
2050 12 16.761599481973995 5.2785348943439985 1.4740845698069993 0 0 0
2058 4 18.285381253062006 6.158290710067995 0 0 0 0
2056 10 19.809163024150998 5.2785348943439985 1.4740845698069993 0 0 0
2064 8 21.332944795238994 6.158290710067995 0 0 0 0
2062 12 22.856726566328 5.2785348943439985 1.4740845698069993 0 0 0
2070 4 24.380508337415996 6.158290710067995 0 0 0 0
2068 10 25.904290108505002 5.2785348943439985 1.4740845698069993 0 0 0
2076 8 27.428071879593 6.158290710067995 0 0 0 0
2074 12 28.951853650682004 5.2785348943439985 1.4740845698069993 0 0 0
2082 4 30.47563542177 6.158290710067995 0 0 0 0
2080 10 31.999417192859006 5.2785348943439985 1.4740845698069993 0 0 0
2088 8 33.523198963947 6.158290710067995 0 0 0 0
2086 12 35.046980735035994 5.2785348943439985 1.4740845698069993 0 0 0
2094 4 36.570762506124005 6.158290710067995 0 0 0 0
2100 8 39.61832604830101 6.158290710067995 0 0 0 0
2092 10 38.094544277213 5.2785348943439985 1.4740845698069993 0 0 0
2098 12 41.14210781939 5.2785348943439985 1.4740845698069993 0 0 0
2106 4 42.665889590477995 6.158290710067995 0 0 0 0
2104 10 44.189671361567 5.2785348943439985 1.4740845698069993 0 0 0
2112 8 45.713453132655 6.158290710067995 0 0 0 0
2110 12 47.237234903744 5.2785348943439985 1.4740845698069993 0 0 0
1926 4 48.761016674832 6.158290710067995 0 -1 0 0
1924 10 50.284798445921 5.2785348943439985 1.4740845698069993 -1 0 0
1932 8 51.808580217009 6.158290710067995 0 -1 0 0
1930 12 53.332361988098 5.2785348943439985 1.4740845698069993 -1 0 0
1938 4 54.856143759186 6.158290710067995 0 -1 0 0
1936 10 56.379925530275 5.2785348943439985 1.4740845698069993 -1 0 0
1944 8 57.903707301363 6.158290710067995 0 -1 0 0
1942 12 59.427489072452 5.2785348943439985 1.4740845698069993 -1 0 0
1950 4 60.95127084354 6.158290710067995 0 -1 0 0
1948 10 62.475052614629 5.2785348943439985 1.4740845698069993 -1 0 0
1956 8 63.998834385717004 6.158290710067995 0 -1 0 0
1954 12 65.522616156806 5.2785348943439985 1.4740845698069993 -1 0 0
1962 4 67.04639792789399 6.158290710067995 0 -1 0 0
1960 10 68.570179698983 5.2785348943439985 1.4740845698069993 -1 0 0
1968 8 70.09396147007101 6.158290710067995 0 -1 0 0
1966 12 71.61774324116 5.2785348943439985 1.4740845698069993 -1 0 0
1974 4 73.141525012248 6.158290710067995 0 -1 0 0
1972 10 74.665306783337 5.2785348943439985 1.4740845698069993 -1 0 0
1980 8 76.189088554425 6.158290710067995 0 -1 0 0
1986 4 79.236652096602 6.158290710067995 0 -1 0 0
1978 12 77.712870325514 5.2785348943439985 1.4740845698069993 -1 0 0
1984 10 80.760433867691 5.2785348943439985 1.4740845698069993 -1 0 0
1992 8 82.284215638779 6.158290710067995 0 -1 0 0
1990 12 83.807997409868 5.2785348943439985 1.4740845698069993 -1 0 0
1998 4 85.331779180956 6.158290710067995 0 -1 0 0
1996 10 86.855560952045 5.2785348943439985 1.4740845698069993 -1 0 0
2004 8 88.37934272313299 6.158290710067995 0 -1 0 0
2002 12 89.903124494222 5.2785348943439985 1.4740845698069993 -1 0 0
2010 4 91.42690626531001 6.158290710067995 0 -1 0 0
2008 10 92.950688036399 5.2785348943439985 1.4740845698069993 -1 0 0
2016 8 94.474469807487 6.158290710067995 0 -1 0 0
2014 12 95.998251578576 5.2785348943439985 1.4740845698069993 -1 0 0
2209 9 0 7.917802341515994 1.4740845698069993 0 0 0
2215 11 3.047563542177002 7.917802341515994 1.4740845698069993 0 0 0
2221 9 6.095127084353997 7.917802341515994 1.4740845698069993 0 0 0
2227 11 9.142690626531 7.917802341515994 1.4740845698069993 0 0 0
2233 9 12.190254168708002 7.917802341515994 1.4740845698069993 0 0 0
2239 11 15.237817710884997 7.917802341515994 1.4740845698069993 0 0 0
2245 9 18.285381253062006 7.917802341515994 1.4740845698069993 0 0 0
2251 11 21.332944795238994 7.917802341515994 1.4740845698069993 0 0 0
2257 9 24.380508337415996 7.917802341515994 1.4740845698069993 0 0 0
2263 11 27.428071879593 7.917802341515994 1.4740845698069993 0 0 0
2269 9 30.47563542177 7.917802341515994 1.4740845698069993 0 0 0
2275 11 33.523198963947 7.917802341515994 1.4740845698069993 0 0 0
2281 9 36.570762506124005 7.917802341515994 1.4740845698069993 0 0 0
2287 11 39.61832604830101 7.917802341515994 1.4740845698069993 0 0 0
2293 9 42.665889590477995 7.917802341515994 1.4740845698069993 0 0 0
2299 11 45.713453132655 7.917802341515994 1.4740845698069993 0 0 0
2113 9 48.761016674832 7.917802341515994 1.4740845698069993 -1 0 0
2119 11 51.808580217009 7.917802341515994 1.4740845698069993 -1 0 0
2125 9 54.856143759186 7.917802341515994 1.4740845698069993 -1 0 0
2131 11 57.903707301363 7.917802341515994 1.4740845698069993 -1 0 0
2137 9 60.95127084354 7.917802341515994 1.4740845698069993 -1 0 0
2143 11 63.998834385717004 7.917802341515994 1.4740845698069993 -1 0 0
2149 9 67.04639792789399 7.917802341515994 1.4740845698069993 -1 0 0
2155 11 70.09396147007101 7.917802341515994 1.4740845698069993 -1 0 0
2161 9 73.141525012248 7.917802341515994 1.4740845698069993 -1 0 0
2167 11 76.189088554425 7.917802341515994 1.4740845698069993 -1 0 0
2173 9 79.236652096602 7.917802341515994 1.4740845698069993 -1 0 0
2179 11 82.284215638779 7.917802341515994 1.4740845698069993 -1 0 0
2185 9 85.331779180956 7.917802341515994 1.4740845698069993 -1 0 0
2191 11 88.37934272313299 7.917802341515994 1.4740845698069993 -1 0 0
2197 9 91.42690626531001 7.917802341515994 1.4740845698069993 -1 0 0
2203 11 94.474469807487 7.917802341515994 1.4740845698069993 -1 0 0
2211 2 1.5237817710880037 8.797558157239997 0 0 0 0
2217 6 4.571345313264999 8.797558157239997 0 0 0 0
2223 2 7.618908855442001 8.797558157239997 0 0 0 0
2229 6 10.666472397619003 8.797558157239997 0 0 0 0
2235 2 13.714035939795998 8.797558157239997 0 0 0 0
2241 6 16.761599481973 8.797558157239997 0 0 0 0
2247 2 19.809163024150003 8.797558157239997 0 0 0 0
2253 6 22.856726566327005 8.797558157239997 0 0 0 0
2259 2 25.904290108504007 8.797558157239997 0 0 0 0
2265 6 28.951853650680995 8.797558157239997 0 0 0 0
2271 2 31.999417192857997 8.797558157239997 0 0 0 0
2277 6 35.046980735035 8.797558157239997 0 0 0 0
2283 2 38.094544277212 8.797558157239997 0 0 0 0
2289 6 41.142107819389004 8.797558157239997 0 0 0 0
2295 2 44.189671361566006 8.797558157239997 0 0 0 0
2301 6 47.237234903742994 8.797558157239997 0 0 0 0
2115 2 50.284798445919996 8.797558157239997 0 -1 0 0
2121 6 53.332361988097 8.797558157239997 0 -1 0 0
2127 2 56.379925530274 8.797558157239997 0 -1 0 0
2133 6 59.427489072450996 8.797558157239997 0 -1 0 0
2139 2 62.475052614628 8.797558157239997 0 -1 0 0
2145 6 65.522616156805 8.797558157239997 0 -1 0 0
2151 2 68.570179698982 8.797558157239997 0 -1 0 0
2157 6 71.617743241159 8.797558157239997 0 -1 0 0
2163 2 74.665306783336 8.797558157239997 0 -1 0 0
2169 6 77.712870325513 8.797558157239997 0 -1 0 0
2175 2 80.76043386769 8.797558157239997 0 -1 0 0
2181 6 83.807997409867 8.797558157239997 0 -1 0 0
2187 2 86.855560952044 8.797558157239997 0 -1 0 0
2193 6 89.903124494221 8.797558157239997 0 -1 0 0
2199 2 92.95068803639799 8.797558157239997 0 -1 0 0
2205 6 95.99825157857501 8.797558157239997 0 -1 0 0
2214 4 0 11.436825604412 0 0 0 0
2212 10 1.5237817710889985 10.557069788687997 1.4740845698069993 0 0 0
2220 8 3.047563542177002 11.436825604412 0 0 0 0
2218 12 4.571345313266001 10.557069788687997 1.4740845698069993 0 0 0
2226 4 6.095127084353997 11.436825604412 0 0 0 0
2224 10 7.618908855443003 10.557069788687997 1.4740845698069993 0 0 0
2232 8 9.142690626531 11.436825604412 0 0 0 0
2230 12 10.666472397619998 10.557069788687997 1.4740845698069993 0 0 0
2238 4 12.190254168708002 11.436825604412 0 0 0 0
2236 10 13.714035939797 10.557069788687997 1.4740845698069993 0 0 0
2244 8 15.237817710884997 11.436825604412 0 0 0 0
2242 12 16.761599481973995 10.557069788687997 1.4740845698069993 0 0 0
2250 4 18.285381253062006 11.436825604412 0 0 0 0
2248 10 19.809163024150998 10.557069788687997 1.4740845698069993 0 0 0
2256 8 21.332944795238994 11.436825604412 0 0 0 0
2254 12 22.856726566328 10.557069788687997 1.4740845698069993 0 0 0
2262 4 24.380508337415996 11.436825604412 0 0 0 0
2260 10 25.904290108505002 10.557069788687997 1.4740845698069993 0 0 0
2268 8 27.428071879593 11.436825604412 0 0 0 0
2266 12 28.951853650682004 10.557069788687997 1.4740845698069993 0 0 0
2274 4 30.47563542177 11.436825604412 0 0 0 0
2272 10 31.999417192859006 10.557069788687997 1.4740845698069993 0 0 0
2280 8 33.523198963947 11.436825604412 0 0 0 0
2278 12 35.046980735035994 10.557069788687997 1.4740845698069993 0 0 0
2286 4 36.570762506124005 11.436825604412 0 0 0 0
2292 8 39.61832604830101 11.436825604412 0 0 0 0
2284 10 38.094544277213 10.557069788687997 1.4740845698069993 0 0 0
2290 12 41.14210781939 10.557069788687997 1.4740845698069993 0 0 0
2298 4 42.665889590477995 11.436825604412 0 0 0 0
2296 10 44.189671361567 10.557069788687997 1.4740845698069993 0 0 0
2304 8 45.713453132655 11.436825604412 0 0 0 0
2302 12 47.237234903744 10.557069788687997 1.4740845698069993 0 0 0
2118 4 48.761016674832 11.436825604412 0 -1 0 0
2116 10 50.284798445921 10.557069788687997 1.4740845698069993 -1 0 0
2124 8 51.808580217009 11.436825604412 0 -1 0 0
2122 12 53.332361988098 10.557069788687997 1.4740845698069993 -1 0 0
2130 4 54.856143759186 11.436825604412 0 -1 0 0
2128 10 56.379925530275 10.557069788687997 1.4740845698069993 -1 0 0
2136 8 57.903707301363 11.436825604412 0 -1 0 0
2134 12 59.427489072452 10.557069788687997 1.4740845698069993 -1 0 0
2142 4 60.95127084354 11.436825604412 0 -1 0 0
2140 10 62.475052614629 10.557069788687997 1.4740845698069993 -1 0 0
2148 8 63.998834385717004 11.436825604412 0 -1 0 0
2146 12 65.522616156806 10.557069788687997 1.4740845698069993 -1 0 0
2154 4 67.04639792789399 11.436825604412 0 -1 0 0
2152 10 68.570179698983 10.557069788687997 1.4740845698069993 -1 0 0
2160 8 70.09396147007101 11.436825604412 0 -1 0 0
2158 12 71.61774324116 10.557069788687997 1.4740845698069993 -1 0 0
2166 4 73.141525012248 11.436825604412 0 -1 0 0
2164 10 74.665306783337 10.557069788687997 1.4740845698069993 -1 0 0
2172 8 76.189088554425 11.436825604412 0 -1 0 0
2178 4 79.236652096602 11.436825604412 0 -1 0 0
2170 12 77.712870325514 10.557069788687997 1.4740845698069993 -1 0 0
2176 10 80.760433867691 10.557069788687997 1.4740845698069993 -1 0 0
2184 8 82.284215638779 11.436825604412 0 -1 0 0
2182 12 83.807997409868 10.557069788687997 1.4740845698069993 -1 0 0
2190 4 85.331779180956 11.436825604412 0 -1 0 0
2188 10 86.855560952045 10.557069788687997 1.4740845698069993 -1 0 0
2196 8 88.37934272313299 11.436825604412 0 -1 0 0
2194 12 89.903124494222 10.557069788687997 1.4740845698069993 -1 0 0
2202 4 91.42690626531001 11.436825604412 0 -1 0 0
2200 10 92.950688036399 10.557069788687997 1.4740845698069993 -1 0 0
2208 8 94.474469807487 11.436825604412 0 -1 0 0
2206 12 95.998251578576 10.557069788687997 1.4740845698069993 -1 0 0
2401 9 0 13.19633723586 1.4740845698069993 0 0 0
2407 11 3.047563542177002 13.19633723586 1.4740845698069993 0 0 0
2413 9 6.095127084353997 13.19633723586 1.4740845698069993 0 0 0
2419 11 9.142690626531 13.19633723586 1.4740845698069993 0 0 0
2425 9 12.190254168708002 13.19633723586 1.4740845698069993 0 0 0
2431 11 15.237817710884997 13.19633723586 1.4740845698069993 0 0 0
2437 9 18.285381253062006 13.19633723586 1.4740845698069993 0 0 0
2443 11 21.332944795238994 13.19633723586 1.4740845698069993 0 0 0
2449 9 24.380508337415996 13.19633723586 1.4740845698069993 0 0 0
2455 11 27.428071879593 13.19633723586 1.4740845698069993 0 0 0
2461 9 30.47563542177 13.19633723586 1.4740845698069993 0 0 0
2467 11 33.523198963947 13.19633723586 1.4740845698069993 0 0 0
2473 9 36.570762506124005 13.19633723586 1.4740845698069993 0 0 0
2479 11 39.61832604830101 13.19633723586 1.4740845698069993 0 0 0
2485 9 42.665889590477995 13.19633723586 1.4740845698069993 0 0 0
2491 11 45.713453132655 13.19633723586 1.4740845698069993 0 0 0
2305 9 48.761016674832 13.19633723586 1.4740845698069993 -1 0 0
2311 11 51.808580217009 13.19633723586 1.4740845698069993 -1 0 0
2317 9 54.856143759186 13.19633723586 1.4740845698069993 -1 0 0
2323 11 57.903707301363 13.19633723586 1.4740845698069993 -1 0 0
2329 9 60.95127084354 13.19633723586 1.4740845698069993 -1 0 0
2335 11 63.998834385717004 13.19633723586 1.4740845698069993 -1 0 0
2341 9 67.04639792789399 13.19633723586 1.4740845698069993 -1 0 0
2347 11 70.09396147007101 13.19633723586 1.4740845698069993 -1 0 0
2353 9 73.141525012248 13.19633723586 1.4740845698069993 -1 0 0
2359 11 76.189088554425 13.19633723586 1.4740845698069993 -1 0 0
2365 9 79.236652096602 13.19633723586 1.4740845698069993 -1 0 0
2371 11 82.284215638779 13.19633723586 1.4740845698069993 -1 0 0
2377 9 85.331779180956 13.19633723586 1.4740845698069993 -1 0 0
2383 11 88.37934272313299 13.19633723586 1.4740845698069993 -1 0 0
2389 9 91.42690626531001 13.19633723586 1.4740845698069993 -1 0 0
2395 11 94.474469807487 13.19633723586 1.4740845698069993 -1 0 0
2403 2 1.5237817710880037 14.076093051584003 0 0 0 0
2409 6 4.571345313264999 14.076093051584003 0 0 0 0
2415 2 7.618908855442001 14.076093051584003 0 0 0 0
2421 6 10.666472397619003 14.076093051584003 0 0 0 0
2427 2 13.714035939795998 14.076093051584003 0 0 0 0
2433 6 16.761599481973 14.076093051584003 0 0 0 0
2439 2 19.809163024150003 14.076093051584003 0 0 0 0
2445 6 22.856726566327005 14.076093051584003 0 0 0 0
2451 2 25.904290108504007 14.076093051584003 0 0 0 0
2457 6 28.951853650680995 14.076093051584003 0 0 0 0
2463 2 31.999417192857997 14.076093051584003 0 0 0 0
2469 6 35.046980735035 14.076093051584003 0 0 0 0
2475 2 38.094544277212 14.076093051584003 0 0 0 0
2481 6 41.142107819389004 14.076093051584003 0 0 0 0
2487 2 44.189671361566006 14.076093051584003 0 0 0 0
2493 6 47.237234903742994 14.076093051584003 0 0 0 0
2307 2 50.284798445919996 14.076093051584003 0 -1 0 0
2313 6 53.332361988097 14.076093051584003 0 -1 0 0
2319 2 56.379925530274 14.076093051584003 0 -1 0 0
2325 6 59.427489072450996 14.076093051584003 0 -1 0 0
2331 2 62.475052614628 14.076093051584003 0 -1 0 0
2337 6 65.522616156805 14.076093051584003 0 -1 0 0
2343 2 68.570179698982 14.076093051584003 0 -1 0 0
2349 6 71.617743241159 14.076093051584003 0 -1 0 0
2355 2 74.665306783336 14.076093051584003 0 -1 0 0
2361 6 77.712870325513 14.076093051584003 0 -1 0 0
2367 2 80.76043386769 14.076093051584003 0 -1 0 0
2373 6 83.807997409867 14.076093051584003 0 -1 0 0
2379 2 86.855560952044 14.076093051584003 0 -1 0 0
2385 6 89.903124494221 14.076093051584003 0 -1 0 0
2391 2 92.95068803639799 14.076093051584003 0 -1 0 0
2397 6 95.99825157857501 14.076093051584003 0 -1 0 0
2406 4 0 16.71536049875599 0 0 0 0
2404 10 1.5237817710889985 15.835604683031995 1.4740845698069993 0 0 0
2412 8 3.047563542177002 16.71536049875599 0 0 0 0
2410 12 4.571345313266001 15.835604683031995 1.4740845698069993 0 0 0
2418 4 6.095127084353997 16.71536049875599 0 0 0 0
2416 10 7.618908855443003 15.835604683031995 1.4740845698069993 0 0 0
2424 8 9.142690626531 16.71536049875599 0 0 0 0
2422 12 10.666472397619998 15.835604683031995 1.4740845698069993 0 0 0
2430 4 12.190254168708002 16.71536049875599 0 0 0 0
2428 10 13.714035939797 15.835604683031995 1.4740845698069993 0 0 0
2436 8 15.237817710884997 16.71536049875599 0 0 0 0
2434 12 16.761599481973995 15.835604683031995 1.4740845698069993 0 0 0
2442 4 18.285381253062006 16.71536049875599 0 0 0 0
2440 10 19.809163024150998 15.835604683031995 1.4740845698069993 0 0 0
2448 8 21.332944795238994 16.71536049875599 0 0 0 0
2446 12 22.856726566328 15.835604683031995 1.4740845698069993 0 0 0
2454 4 24.380508337415996 16.71536049875599 0 0 0 0
2452 10 25.904290108505002 15.835604683031995 1.4740845698069993 0 0 0
2460 8 27.428071879593 16.71536049875599 0 0 0 0
2458 12 28.951853650682004 15.835604683031995 1.4740845698069993 0 0 0
2466 4 30.47563542177 16.71536049875599 0 0 0 0
2464 10 31.999417192859006 15.835604683031995 1.4740845698069993 0 0 0
2472 8 33.523198963947 16.71536049875599 0 0 0 0
2470 12 35.046980735035994 15.835604683031995 1.4740845698069993 0 0 0
2478 4 36.570762506124005 16.71536049875599 0 0 0 0
2484 8 39.61832604830101 16.71536049875599 0 0 0 0
2476 10 38.094544277213 15.835604683031995 1.4740845698069993 0 0 0
2482 12 41.14210781939 15.835604683031995 1.4740845698069993 0 0 0
2490 4 42.665889590477995 16.71536049875599 0 0 0 0
2488 10 44.189671361567 15.835604683031995 1.4740845698069993 0 0 0
2496 8 45.713453132655 16.71536049875599 0 0 0 0
2494 12 47.237234903744 15.835604683031995 1.4740845698069993 0 0 0
2310 4 48.761016674832 16.71536049875599 0 -1 0 0
2308 10 50.284798445921 15.835604683031995 1.4740845698069993 -1 0 0
2316 8 51.808580217009 16.71536049875599 0 -1 0 0
2314 12 53.332361988098 15.835604683031995 1.4740845698069993 -1 0 0
2322 4 54.856143759186 16.71536049875599 0 -1 0 0
2320 10 56.379925530275 15.835604683031995 1.4740845698069993 -1 0 0
2328 8 57.903707301363 16.71536049875599 0 -1 0 0
2326 12 59.427489072452 15.835604683031995 1.4740845698069993 -1 0 0
2334 4 60.95127084354 16.71536049875599 0 -1 0 0
2332 10 62.475052614629 15.835604683031995 1.4740845698069993 -1 0 0
2340 8 63.998834385717004 16.71536049875599 0 -1 0 0
2338 12 65.522616156806 15.835604683031995 1.4740845698069993 -1 0 0
2346 4 67.04639792789399 16.71536049875599 0 -1 0 0
2344 10 68.570179698983 15.835604683031995 1.4740845698069993 -1 0 0
2352 8 70.09396147007101 16.71536049875599 0 -1 0 0
2350 12 71.61774324116 15.835604683031995 1.4740845698069993 -1 0 0
2358 4 73.141525012248 16.71536049875599 0 -1 0 0
2356 10 74.665306783337 15.835604683031995 1.4740845698069993 -1 0 0
2364 8 76.189088554425 16.71536049875599 0 -1 0 0
2370 4 79.236652096602 16.71536049875599 0 -1 0 0
2362 12 77.712870325514 15.835604683031995 1.4740845698069993 -1 0 0
2368 10 80.760433867691 15.835604683031995 1.4740845698069993 -1 0 0
2376 8 82.284215638779 16.71536049875599 0 -1 0 0
2374 12 83.807997409868 15.835604683031995 1.4740845698069993 -1 0 0
2382 4 85.331779180956 16.71536049875599 0 -1 0 0
2380 10 86.855560952045 15.835604683031995 1.4740845698069993 -1 0 0
2388 8 88.37934272313299 16.71536049875599 0 -1 0 0
2386 12 89.903124494222 15.835604683031995 1.4740845698069993 -1 0 0
2394 4 91.42690626531001 16.71536049875599 0 -1 0 0
2392 10 92.950688036399 15.835604683031995 1.4740845698069993 -1 0 0
2400 8 94.474469807487 16.71536049875599 0 -1 0 0
2398 12 95.998251578576 15.835604683031995 1.4740845698069993 -1 0 0
2595 2 1.5237817710880037 19.354627945927994 0 0 0 0
2593 9 0 18.474872130203998 1.4740845698069993 0 0 0
2599 11 3.047563542177002 18.474872130203998 1.4740845698069993 0 0 0
2601 6 4.571345313264999 19.354627945927994 0 0 0 0
2605 9 6.095127084353997 18.474872130203998 1.4740845698069993 0 0 0
2607 2 7.618908855442001 19.354627945927994 0 0 0 0
2611 11 9.142690626531 18.474872130203998 1.4740845698069993 0 0 0
2613 6 10.666472397619003 19.354627945927994 0 0 0 0
2617 9 12.190254168708002 18.474872130203998 1.4740845698069993 0 0 0
2619 2 13.714035939795998 19.354627945927994 0 0 0 0
2623 11 15.237817710884997 18.474872130203998 1.4740845698069993 0 0 0
2625 6 16.761599481973 19.354627945927994 0 0 0 0
2631 2 19.809163024150003 19.354627945927994 0 0 0 0
2629 9 18.285381253062006 18.474872130203998 1.4740845698069993 0 0 0
2635 11 21.332944795238994 18.474872130203998 1.4740845698069993 0 0 0
2637 6 22.856726566327005 19.354627945927994 0 0 0 0
2641 9 24.380508337415996 18.474872130203998 1.4740845698069993 0 0 0
2643 2 25.904290108504007 19.354627945927994 0 0 0 0
2647 11 27.428071879593 18.474872130203998 1.4740845698069993 0 0 0
2649 6 28.951853650680995 19.354627945927994 0 0 0 0
2653 9 30.47563542177 18.474872130203998 1.4740845698069993 0 0 0
2655 2 31.999417192857997 19.354627945927994 0 0 0 0
2659 11 33.523198963947 18.474872130203998 1.4740845698069993 0 0 0
2661 6 35.046980735035 19.354627945927994 0 0 0 0
2665 9 36.570762506124005 18.474872130203998 1.4740845698069993 0 0 0
2667 2 38.094544277212 19.354627945927994 0 0 0 0
2671 11 39.61832604830101 18.474872130203998 1.4740845698069993 0 0 0
2673 6 41.142107819389004 19.354627945927994 0 0 0 0
2677 9 42.665889590477995 18.474872130203998 1.4740845698069993 0 0 0
2679 2 44.189671361566006 19.354627945927994 0 0 0 0
2683 11 45.713453132655 18.474872130203998 1.4740845698069993 0 0 0
2685 6 47.237234903742994 19.354627945927994 0 0 0 0
2497 9 48.761016674832 18.474872130203998 1.4740845698069993 -1 0 0
2499 2 50.284798445919996 19.354627945927994 0 -1 0 0
2503 11 51.808580217009 18.474872130203998 1.4740845698069993 -1 0 0
2505 6 53.332361988097 19.354627945927994 0 -1 0 0
2509 9 54.856143759186 18.474872130203998 1.4740845698069993 -1 0 0
2511 2 56.379925530274 19.354627945927994 0 -1 0 0
2517 6 59.427489072450996 19.354627945927994 0 -1 0 0
2515 11 57.903707301363 18.474872130203998 1.4740845698069993 -1 0 0
2521 9 60.95127084354 18.474872130203998 1.4740845698069993 -1 0 0
2523 2 62.475052614628 19.354627945927994 0 -1 0 0
2527 11 63.998834385717004 18.474872130203998 1.4740845698069993 -1 0 0
2529 6 65.522616156805 19.354627945927994 0 -1 0 0
2533 9 67.04639792789399 18.474872130203998 1.4740845698069993 -1 0 0
2535 2 68.570179698982 19.354627945927994 0 -1 0 0
2539 11 70.09396147007101 18.474872130203998 1.4740845698069993 -1 0 0
2541 6 71.617743241159 19.354627945927994 0 -1 0 0
2545 9 73.141525012248 18.474872130203998 1.4740845698069993 -1 0 0
2547 2 74.665306783336 19.354627945927994 0 -1 0 0
2551 11 76.189088554425 18.474872130203998 1.4740845698069993 -1 0 0
2553 6 77.712870325513 19.354627945927994 0 -1 0 0
2557 9 79.236652096602 18.474872130203998 1.4740845698069993 -1 0 0
2559 2 80.76043386769 19.354627945927994 0 -1 0 0
2563 11 82.284215638779 18.474872130203998 1.4740845698069993 -1 0 0
2565 6 83.807997409867 19.354627945927994 0 -1 0 0
2569 9 85.331779180956 18.474872130203998 1.4740845698069993 -1 0 0
2571 2 86.855560952044 19.354627945927994 0 -1 0 0
2575 11 88.37934272313299 18.474872130203998 1.4740845698069993 -1 0 0