LAMMPS data file via write_data, version 29 Aug 2024, timestep = 2, units = metal

4680 atoms
24 atom types

0 97.156275929778 xlo xhi
0 97.0843881834 ylo yhi
-50 50 zlo zhi

Masses

1 47.867
2 47.867
3 47.867
4 47.867
5 47.867
6 47.867
7 47.867
8 47.867
9 127.6
10 127.6
11 127.6
12 127.6
13 127.6
14 127.6
15 127.6
16 127.6
17 127.6
18 127.6
19 127.6
20 127.6
21 127.6
22 127.6
23 127.6
24 127.6

Atoms # atomic

1176 16 1.2601848779978803e-13 1.0787150853863108 0.020024336643162676 0 0 0
1174 4 1.8683899217265723 3.000560994565434e-07 1.7863760875932924 0 0 0
1182 12 3.7367798434531254 1.0787150853863112 0.020024336643161843 0 0 0
1180 2 5.605169765179571 3.0005609955533776e-07 1.7863760875932924 0 0 0
1333 1 3.736779843452724 3.236146572836097 1.786376087593292 0 0 0
1329 14 1.8683899217262252 4.31486135816631 0.02002433664316171 0 0 0
1335 10 5.605169765179225 4.31486135816631 0.02002433664316183 0 0 0
1188 16 7.473559686906125 1.078715085386311 0.02002433664316254 0 0 0
1186 4 9.341949608632572 3.0005609948106594e-07 1.7863760875932924 0 0 0
1194 12 11.210339530359125 1.078715085386311 0.020024336643162412 0 0 0
1339 3 7.473559686905724 3.236146572836097 1.786376087593292 0 0 0
1345 1 11.210339530358725 3.236146572836097 1.7863760875932917 0 0 0
1341 14 9.341949608632225 4.31486135816631 0.02002433664316197 0 0 0
1192 2 13.078729452085572 3.000560994928842e-07 1.7863760875932924 0 0 0
1200 16 14.947119373812125 1.0787150853863112 0.02002433664316221 0 0 0
1198 4 16.815509295538572 3.000560974676651e-07 1.786376087593291 0 0 0
1351 3 14.947119373811725 3.236146572836097 1.7863760875932917 0 0 0
1347 10 13.078729452085225 4.31486135816631 0.020024336643161902 0 0 0
1353 14 16.815509295538224 4.31486135816631 0.02002433664316179 0 0 0
1206 12 18.683899217265125 1.0787150853863106 0.020024336643162912 0 0 0
1204 2 20.552289138991572 3.0005609822825826e-07 1.7863760875932924 0 0 0
1212 16 22.420679060718122 1.0787150853863112 0.020024336643161975 0 0 0
1357 1 18.683899217264724 3.2361465728360965 1.786376087593292 0 0 0
1363 3 22.42067906071772 3.2361465728360974 1.786376087593292 0 0 0
1359 10 20.552289138991224 4.3148613581663104 0.02002433664316143 0 0 0
1210 4 24.28906898244457 3.00056096755461e-07 1.7863760875932924 0 0 0
1218 12 26.157458904171126 1.0787150853863106 0.020024336643162874 0 0 0
1216 2 28.025848825897572 3.0005609824795543e-07 1.7863760875932924 0 0 0
1369 1 26.157458904170724 3.236146572836096 1.786376087593292 0 0 0
1365 14 24.289068982444224 4.31486135816631 0.020024336643162378 0 0 0
1371 10 28.025848825897224 4.3148613581663104 0.020024336643161438 0 0 0
1224 16 29.894238747624122 1.0787150853863112 0.020024336643161975 0 0 0
1230 12 33.63101859107713 1.0787150853863108 0.02002433664316268 0 0 0
1222 4 31.762628669350573 3.0005609708112054e-07 1.7863760875932924 0 0 0
1375 3 29.89423874762372 3.2361465728360974 1.786376087593292 0 0 0
1381 1 33.631018591076725 3.236146572836096 1.786376087593292 0 0 0
1377 14 31.762628669350224 4.31486135816631 0.020024336643162388 0 0 0
1228 2 35.49940851280357 3.0005609805229707e-07 1.7863760875932924 0 0 0
1236 16 37.36779843453012 1.0787150853863112 0.02002433664316204 0 0 0
1234 4 39.23618835625657 3.0005609708112054e-07 1.7863760875932924 0 0 0
1387 3 37.367798434529725 3.2361465728360974 1.786376087593292 0 0 0
1383 10 35.49940851280322 4.3148613581663104 0.02002433664316153 0 0 0
1389 14 39.23618835625623 4.31486135816631 0.02002433664316235 0 0 0
1242 12 41.10457827798313 1.0787150853863106 0.02002433664316291 0 0 0
1240 2 42.97296819970957 3.000560980168422e-07 1.7863760875932924 0 0 0
1248 16 44.84135812143612 1.0787150853863112 0.020024336643162038 0 0 0
1393 1 41.104578277982725 3.236146572836096 1.786376087593292 0 0 0
1399 3 44.841358121435725 3.2361465728360974 1.786376087593292 0 0 0
1395 10 42.97296819970922 4.3148613581663104 0.02002433664316153 0 0 0
1246 4 46.70974804316257 3.000560970216454e-07 1.7863760875932924 0 0 0
1098 12 48.57813796488913 1.0787150853863106 0.02002433664316311 -1 0 0
1096 2 50.44652788661558 3.0005609914590575e-07 1.7863760875932921 -1 0 0
1249 1 48.578137964888725 3.236146572836097 1.786376087593292 -1 0 0
1401 14 46.70974804316223 4.31486135816631 0.02002433664316213 0 0 0
1251 10 50.44652788661523 4.31486135816631 0.020024336643161725 -1 0 0
1104 16 52.31491780834213 1.078715085386311 0.020024336643162378 -1 0 0
1102 4 54.18330773006858 3.00056099467978e-07 1.7863760875932924 -1 0 0
1110 12 56.05169765179513 1.078715085386311 0.02002433664316238 -1 0 0
1255 3 52.314917808341725 3.236146572836097 1.786376087593292 -1 0 0
1261 1 56.051697651794726 3.236146572836097 1.786376087593292 -1 0 0
1257 14 54.18330773006823 4.31486135816631 0.02002433664316175 -1 0 0
1108 2 57.92008757352158 3.00056099467978e-07 1.7863760875932924 -1 0 0
1116 16 59.78847749524813 1.078715085386311 0.020024336643162395 -1 0 0
1114 4 61.65686741697458 3.0005609965742286e-07 1.7863760875932924 -1 0 0
1267 3 59.788477495247726 3.236146572836097 1.786376087593292 -1 0 0
1263 10 57.92008757352123 4.31486135816631 0.020024336643161736 -1 0 0
1269 14 61.65686741697423 4.31486135816631 0.02002433664316177 -1 0 0
1122 12 63.52525733870113 1.0787150853863114 0.02002433664316143 -1 0 0
1120 2 65.39364726042757 3.0005609944205526e-07 1.7863760875932924 -1 0 0
1128 16 67.26203718215413 1.0787150853863103 0.020024336643163547 -1 0 0
1273 1 63.525257338700726 3.236146572836097 1.786376087593292 -1 0 0
1279 3 67.26203718215373 3.2361465728360983 1.786376087593292 -1 0 0
1275 10 65.39364726042723 4.3148613581663104 0.0200243366431617 -1 0 0
1126 4 69.13042710388058 3.000560981517123e-07 1.7863760875932924 -1 0 0
1134 12 70.99881702560712 1.0787150853863114 0.020024336643161566 -1 0 0
1132 2 72.86720694733357 3.000560970312211e-07 1.7863760875932921 -1 0 0
1285 1 70.99881702560673 3.2361465728360956 1.786376087593292 -1 0 0
1281 14 69.13042710388024 4.3148613581663104 0.02002433664316195 -1 0 0
1287 10 72.86720694733323 4.31486135816631 0.020024336643162128 -1 0 0
1140 16 74.73559686906013 1.0787150853863106 0.02002433664316291 -1 0 0
1138 4 76.60398679078658 3.000560970968782e-07 1.7863760875932924 -1 0 0
1146 12 78.47237671251314 1.078715085386311 0.020024336643162388 -1 0 0
1291 3 74.73559686905972 3.2361465728360956 1.7863760875932921 -1 0 0
1297 1 78.47237671251273 3.236146572836098 1.786376087593292 -1 0 0
1293 14 76.60398679078622 4.314861358166309 0.02002433664316283 -1 0 0
1144 2 80.34076663423959 3.000560978474782e-07 1.7863760875932926 -1 0 0
1152 16 82.20915655596613 1.0787150853863106 0.020024336643162707 -1 0 0
1150 4 84.07754647769258 3.000560979478544e-07 1.7863760875932924 -1 0 0
1303 3 82.20915655596573 3.2361465728360983 1.786376087593292 -1 0 0
1299 10 80.34076663423923 4.314861358166311 0.020024336643160716 -1 0 0
1305 14 84.07754647769224 4.3148613581663104 0.020024336643161934 -1 0 0
1158 12 85.94593639941912 1.078715085386311 0.02002433664316235 -1 0 0
1156 2 87.81432632114557 3.000560970567759e-07 1.7863760875932924 -1 0 0
1164 16 89.68271624287213 1.078715085386311 0.02002433664316224 -1 0 0
1309 1 85.94593639941873 3.2361465728360956 1.786376087593292 -1 0 0
1315 3 89.68271624287172 3.2361465728360956 1.786376087593292 -1 0 0
1311 10 87.81432632114523 4.31486135816631 0.02002433664316212 -1 0 0
1327 3 97.15627592977773 3.236146572836097 1.7863760875932921 -1 0 0
1162 4 91.55110616459858 3.0005609747314157e-07 1.7863760875932924 -1 0 0
1170 12 93.41949608632514 1.078715085386311 0.02002433664316242 -1 0 0
1168 2 95.28788600805159 3.000560978497208e-07 1.7863760875932921 -1 0 0
1321 1 93.41949608632473 3.236146572836098 1.786376087593292 -1 0 0
1317 14 91.55110616459822 4.314861358166309 0.020024336643162905 -1 0 0
1323 10 95.28788600805123 4.314861358166311 0.020024336643160768 -1 0 0
1332 16 1.2598735601731732e-13 7.5510076309463114 0.02002433664316224 0 0 0
1330 4 1.868389921726572 6.472292845616097 1.786376087593292 0 0 0
1338 12 3.7367798434531254 7.5510076309463114 0.020024336643161396 0 0 0
1336 2 5.605169765179571 6.472292845616097 1.786376087593292 0 0 0
1489 1 3.736779843452724 9.708439118396097 1.786376087593292 0 0 0
1485 14 1.8683899217262252 10.78715390372631 0.0200243366431622 0 0 0
1491 10 5.605169765179225 10.78715390372631 0.02002433664316246 0 0 0
1344 16 7.473559686906125 7.5510076309463114 0.020024336643161923 0 0 0
1342 4 9.341949608632572 6.472292845616097 1.786376087593292 0 0 0
1350 12 11.210339530359125 7.5510076309463114 0.0200243366431619 0 0 0
1495 3 7.473559686905724 9.708439118396097 1.7863760875932917 0 0 0
1501 1 11.210339530358725 9.708439118396097 1.786376087593292 0 0 0
1497 14 9.341949608632225 10.78715390372631 0.020024336643162475 0 0 0
1348 2 13.078729452085572 6.472292845616097 1.786376087593292 0 0 0
1356 16 14.947119373812125 7.5510076309463114 0.020024336643161736 0 0 0
1354 4 16.815509295538572 6.472292845616097 1.7863760875932917 0 0 0
1507 3 14.947119373811725 9.708439118396097 1.786376087593292 0 0 0
1503 10 13.078729452085225 10.78715390372631 0.020024336643162378 0 0 0
1509 14 16.815509295538224 10.78715390372631 0.020024336643162263 0 0 0
1362 12 18.683899217265125 7.551007630946311 0.020024336643162676 0 0 0
1360 2 20.552289138991572 6.472292845616096 1.786376087593292 0 0 0
1368 16 22.420679060718122 7.5510076309463114 0.020024336643161576 0 0 0
1513 1 18.683899217264724 9.708439118396097 1.786376087593292 0 0 0
1519 3 22.42067906071772 9.708439118396099 1.786376087593292 0 0 0
1515 10 20.552289138991224 10.78715390372631 0.02002433664316195 0 0 0
1366 4 24.28906898244457 6.4722928456160975 1.786376087593292 0 0 0
1374 12 26.157458904171126 7.551007630946311 0.02002433664316246 0 0 0
1372 2 28.025848825897572 6.472292845616096 1.786376087593292 0 0 0
1525 1 26.157458904170724 9.708439118396097 1.786376087593292 0 0 0
1521 14 24.289068982444224 10.78715390372631 0.0200243366431628 0 0 0
1527 10 28.025848825897224 10.78715390372631 0.020024336643161937 0 0 0
1380 16 29.894238747624122 7.5510076309463114 0.020024336643161552 0 0 0
1386 12 33.63101859107713 7.551007630946311 0.020024336643162263 0 0 0
1378 4 31.762628669350573 6.472292845616098 1.786376087593292 0 0 0
1531 3 29.89423874762372 9.708439118396099 1.786376087593292 0 0 0
1537 1 33.631018591076725 9.708439118396097 1.786376087593292 0 0 0
1533 14 31.762628669350224 10.78715390372631 0.0200243366431628 0 0 0
1384 2 35.49940851280357 6.472292845616096 1.786376087593292 0 0 0
1392 16 37.36779843453012 7.5510076309463114 0.020024336643161552 0 0 0
1390 4 39.23618835625657 6.472292845616098 1.786376087593292 0 0 0
1543 3 37.367798434529725 9.708439118396099 1.786376087593292 0 0 0
1539 10 35.49940851280322 10.78715390372631 0.020024336643161927 0 0 0
1545 14 39.23618835625623 10.78715390372631 0.020024336643162798 0 0 0
1398 12 41.10457827798313 7.551007630946311 0.020024336643162555 0 0 0
1396 2 42.97296819970957 6.472292845616096 1.786376087593292 0 0 0
1404 16 44.84135812143612 7.5510076309463114 0.02002433664316154 0 0 0
1549 1 41.104578277982725 9.708439118396097 1.786376087593292 0 0 0
1555 3 44.841358121435725 9.708439118396099 1.786376087593292 0 0 0
1551 10 42.97296819970922 10.78715390372631 0.020024336643161916 0 0 0
1402 4 46.70974804316257 6.472292845616098 1.786376087593292 0 0 0
1254 12 48.57813796488913 7.551007630946311 0.020024336643162718 -1 0 0
1252 2 50.44652788661558 6.472292845616097 1.786376087593292 -1 0 0
1405 1 48.578137964888725 9.708439118396097 1.786376087593292 -1 0 0
1557 14 46.70974804316223 10.78715390372631 0.02002433664316267 0 0 0
1407 10 50.44652788661523 10.78715390372631 0.02002433664316226 -1 0 0
1260 16 52.31491780834213 7.5510076309463114 0.020024336643161885 -1 0 0
1258 4 54.18330773006858 6.472292845616097 1.786376087593292 -1 0 0
1266 12 56.05169765179513 7.5510076309463114 0.020024336643161895 -1 0 0
1411 3 52.314917808341725 9.708439118396097 1.786376087593292 -1 0 0
1417 1 56.051697651794726 9.708439118396097 1.786376087593292 -1 0 0
1413 14 54.18330773006823 10.78715390372631 0.02002433664316228 -1 0 0
1264 2 57.92008757352158 6.472292845616097 1.786376087593292 -1 0 0
1272 16 59.78847749524813 7.5510076309463114 0.0200243366431619 -1 0 0
1270 4 61.65686741697458 6.472292845616097 1.786376087593292 -1 0 0
1423 3 59.788477495247726 9.708439118396097 1.786376087593292 -1 0 0
1419 10 57.92008757352123 10.78715390372631 0.02002433664316228 -1 0 0
1425 14 61.65686741697423 10.78715390372631 0.020024336643162294 -1 0 0
1278 12 63.52525733870113 7.5510076309463114 0.02002433664316099 -1 0 0
1276 2 65.39364726042757 6.472292845616097 1.786376087593292 -1 0 0
1284 16 67.26203718215413 7.551007630946311 0.020024336643163054 -1 0 0
1429 1 63.525257338700726 9.708439118396097 1.786376087593292 -1 0 0
1435 3 67.26203718215373 9.708439118396099 1.786376087593292 -1 0 0
1431 10 65.39364726042723 10.78715390372631 0.020024336643162256 -1 0 0
1282 4 69.13042710388058 6.472292845616096 1.786376087593292 -1 0 0
1290 12 70.99881702560712 7.5510076309463114 0.020024336643161073 -1 0 0
1288 2 72.86720694733357 6.472292845616098 1.786376087593292 -1 0 0
1441 1 70.99881702560673 9.708439118396097 1.786376087593292 -1 0 0
1437 14 69.13042710388024 10.787153903726312 0.020024336643162298 -1 0 0
1443 10 72.86720694733323 10.78715390372631 0.020024336643162565 -1 0 0
1296 16 74.73559686906013 7.551007630946311 0.020024336643162638 -1 0 0
1294 4 76.60398679078658 6.472292845616098 1.786376087593292 -1 0 0
1302 12 78.47237671251314 7.5510076309463114 0.020024336643162 -1 0 0
1447 3 74.73559686905972 9.708439118396097 1.786376087593292 -1 0 0
1453 1 78.47237671251273 9.708439118396099 1.7863760875932917 -1 0 0
1449 14 76.60398679078622 10.78715390372631 0.020024336643163283 -1 0 0
1300 2 80.34076663423959 6.472292845616096 1.786376087593292 -1 0 0
1308 16 82.20915655596613 7.551007630946311 0.02002433664316224 -1 0 0
1306 4 84.07754647769258 6.472292845616096 1.786376087593292 -1 0 0
1459 3 82.20915655596573 9.708439118396099 1.786376087593292 -1 0 0
1455 10 80.34076663423923 10.787153903726312 0.020024336643161153 -1 0 0
1461 14 84.07754647769224 10.787153903726312 0.020024336643162284 -1 0 0
1314 12 85.94593639941912 7.5510076309463114 0.020024336643161982 -1 0 0
1312 2 87.81432632114557 6.4722928456160975 1.786376087593292 -1 0 0
1320 16 89.68271624287213 7.5510076309463114 0.020024336643161826 -1 0 0
1465 1 85.94593639941873 9.708439118396097 1.7863760875932917 -1 0 0
1471 3 89.68271624287172 9.708439118396097 1.786376087593292 -1 0 0
1467 10 87.81432632114523 10.78715390372631 0.020024336643162634 -1 0 0
1483 3 97.15627592977773 9.708439118396099 1.7863760875932921 -1 0 0
1318 4 91.55110616459858 6.472292845616098 1.786376087593292 -1 0 0
1326 12 93.41949608632514 7.5510076309463114 0.020024336643162017 -1 0 0
1324 2 95.28788600805159 6.472292845616096 1.7863760875932915 -1 0 0
1477 1 93.41949608632473 9.708439118396099 1.7863760875932917 -1 0 0
1473 14 91.55110616459822 10.78715390372631 0.020024336643163325 -1 0 0
1479 10 95.28788600805123 10.787153903726312 0.020024336643161205 -1 0 0
1486 4 1.8683899217265723 12.944585391176096 1.786376087593292 0 0 0
1492 2 5.605169765179571 12.944585391176096 1.7863760875932917 0 0 0
1488 16 1.26023194540991e-13 14.02330017650631 0.02002433664316262 0 0 0
1494 12 3.7367798434531254 14.02330017650631 0.020024336643162034 0 0 0
1645 1 3.736779843452724 16.1807316639561 1.786376087593292 0 0 0
1498 4 9.341949608632572 12.944585391176096 1.786376087593292 0 0 0
1500 16 7.473559686906125 14.02330017650631 0.02002433664316254 0 0 0
1506 12 11.210339530359125 14.02330017650631 0.02002433664316241 0 0 0
1651 3 7.473559686905724 16.1807316639561 1.786376087593292 0 0 0
1657 1 11.210339530358725 16.1807316639561 1.786376087593292 0 0 0
1504 2 13.078729452085572 12.944585391176096 1.786376087593292 0 0 0
1510 4 16.815509295538572 12.944585391176096 1.786376087593292 0 0 0
1512 16 14.947119373812125 14.02330017650631 0.020024336643162284 0 0 0
1663 3 14.947119373811724 16.1807316639561 1.786376087593292 0 0 0
1516 2 20.552289138991572 12.944585391176096 1.7863760875932917 0 0 0
1518 12 18.683899217265125 14.02330017650631 0.020024336643163096 0 0 0
1524 16 22.420679060718122 14.02330017650631 0.020024336643161902 0 0 0
1669 1 18.683899217264724 16.1807316639561 1.786376087593292 0 0 0
1675 3 22.42067906071772 16.1807316639561 1.786376087593292 0 0 0
1522 4 24.28906898244457 12.944585391176098 1.786376087593292 0 0 0
1528 2 28.025848825897572 12.944585391176096 1.7863760875932917 0 0 0
1530 12 26.157458904171126 14.02330017650631 0.020024336643162884 0 0 0
1681 1 26.157458904170724 16.1807316639561 1.786376087593292 0 0 0
1534 4 31.762628669350573 12.944585391176098 1.786376087593292 0 0 0
1536 16 29.894238747624122 14.02330017650631 0.02002433664316187 0 0 0
1542 12 33.63101859107713 14.02330017650631 0.020024336643162666 0 0 0
1687 3 29.89423874762372 16.1807316639561 1.786376087593292 0 0 0
1693 1 33.631018591076725 16.1807316639561 1.786376087593292 0 0 0
1540 2 35.49940851280357 12.944585391176096 1.7863760875932917 0 0 0
1546 4 39.23618835625657 12.944585391176098 1.7863760875932917 0 0 0
1548 16 37.36779843453012 14.02330017650631 0.020024336643161954 0 0 0
1699 3 37.367798434529725 16.1807316639561 1.786376087593292 0 0 0
1552 2 42.97296819970957 12.944585391176096 1.7863760875932917 0 0 0
1554 12 41.10457827798313 14.02330017650631 0.02002433664316295 0 0 0
1560 16 44.84135812143612 14.02330017650631 0.020024336643161948 0 0 0
1705 1 41.104578277982725 16.1807316639561 1.786376087593292 0 0 0
1711 3 44.841358121435725 16.1807316639561 1.786376087593292 0 0 0
1558 4 46.70974804316257 12.944585391176098 1.786376087593292 0 0 0
1408 2 50.44652788661558 12.944585391176096 1.786376087593292 -1 0 0
1410 12 48.57813796488913 14.02330017650631 0.020024336643163113 -1 0 0
1561 1 48.578137964888725 16.1807316639561 1.786376087593292 -1 0 0
1414 4 54.18330773006858 12.944585391176096 1.786376087593292 -1 0 0
1416 16 52.31491780834213 14.02330017650631 0.0200243366431625 -1 0 0
1422 12 56.05169765179513 14.02330017650631 0.02002433664316252 -1 0 0
1567 3 52.314917808341725 16.1807316639561 1.786376087593292 -1 0 0
1573 1 56.051697651794726 16.1807316639561 1.786376087593292 -1 0 0
1420 2 57.92008757352158 12.944585391176096 1.786376087593292 -1 0 0
1426 4 61.65686741697458 12.944585391176096 1.786376087593292 -1 0 0
1428 16 59.78847749524813 14.02330017650631 0.02002433664316251 -1 0 0
1579 3 59.788477495247726 16.1807316639561 1.786376087593292 -1 0 0
1432 2 65.39364726042757 12.944585391176096 1.7863760875932917 -1 0 0
1434 12 63.52525733870113 14.02330017650631 0.020024336643161608 -1 0 0
1440 16 67.26203718215413 14.02330017650631 0.02002433664316345 -1 0 0
1585 1 63.525257338700726 16.1807316639561 1.786376087593292 -1 0 0
1591 3 67.26203718215373 16.1807316639561 1.7863760875932921 -1 0 0
1438 4 69.13042710388058 12.944585391176096 1.786376087593292 -1 0 0
1444 2 72.86720694733357 12.944585391176098 1.786376087593292 -1 0 0
1446 12 70.99881702560712 14.02330017650631 0.020024336643161538 -1 0 0
1597 1 70.99881702560673 16.1807316639561 1.786376087593292 -1 0 0
1450 4 76.60398679078658 12.944585391176098 1.7863760875932917 -1 0 0
1452 16 74.73559686906013 14.02330017650631 0.02002433664316305 -1 0 0
1458 12 78.47237671251314 14.02330017650631 0.020024336643162367 -1 0 0
1603 3 74.73559686905972 16.1807316639561 1.786376087593292 -1 0 0
1609 1 78.47237671251273 16.1807316639561 1.786376087593292 -1 0 0
1456 2 80.34076663423959 12.944585391176096 1.786376087593292 -1 0 0
1462 4 84.07754647769258 12.944585391176096 1.786376087593292 -1 0 0
1464 16 82.20915655596613 14.023300176506309 0.020024336643162638 -1 0 0
1615 3 82.20915655596573 16.1807316639561 1.786376087593292 -1 0 0
1468 2 87.81432632114557 12.944585391176098 1.786376087593292 -1 0 0
1470 12 85.94593639941912 14.02330017650631 0.02002433664316251 -1 0 0
1476 16 89.68271624287213 14.02330017650631 0.02002433664316231 -1 0 0
1621 1 85.94593639941873 16.1807316639561 1.786376087593292 -1 0 0
1627 3 89.68271624287172 16.1807316639561 1.786376087593292 -1 0 0
1639 3 97.15627592977773 16.1807316639561 1.7863760875932921 -1 0 0
1474 4 91.55110616459858 12.944585391176098 1.786376087593292 -1 0 0
1480 2 95.28788600805159 12.944585391176096 1.7863760875932917 -1 0 0
1482 12 93.41949608632514 14.02330017650631 0.02002433664316239 -1 0 0
1633 1 93.41949608632473 16.1807316639561 1.786376087593292 -1 0 0
1641 14 1.8683899217262252 17.25944644928631 0.020024336643161698 0 0 0
1647 10 5.605169765179225 17.25944644928631 0.02002433664316159 0 0 0
1642 4 1.8683899217265723 19.4168779367361 1.786376087593292 0 0 0
1648 2 5.605169765179571 19.4168779367361 1.7863760875932921 0 0 0
1644 16 1.2602191286643985e-13 20.495592722066313 0.02002433664316268 0 0 0
1650 12 3.7367798434531254 20.495592722066313 0.020024336643161826 0 0 0
1801 1 3.736779843452724 22.653024209516097 1.786376087593292 0 0 0
1653 14 9.341949608632225 17.25944644928631 0.020024336643161746 0 0 0
1654 4 9.341949608632572 19.4168779367361 1.786376087593292 0 0 0
1656 16 7.473559686906125 20.495592722066313 0.020024336643162444 0 0 0
1662 12 11.210339530359125 20.495592722066313 0.02002433664316239 0 0 0
1807 3 7.473559686905724 22.653024209516097 1.7863760875932921 0 0 0
1813 1 11.210339530358725 22.653024209516097 1.786376087593292 0 0 0
1659 10 13.078729452085225 17.25944644928631 0.02002433664316164 0 0 0
1665 14 16.815509295538224 17.25944644928631 0.02002433664316148 0 0 0
1660 2 13.078729452085572 19.4168779367361 1.786376087593292 0 0 0
1666 4 16.815509295538572 19.4168779367361 1.786376087593292 0 0 0
1668 16 14.947119373812125 20.495592722066313 0.02002433664316224 0 0 0
1819 3 14.947119373811725 22.653024209516097 1.786376087593292 0 0 0
1671 10 20.552289138991224 17.25944644928631 0.02002433664316111 0 0 0
1672 2 20.552289138991572 19.416877936736096 1.786376087593292 0 0 0
1674 12 18.683899217265125 20.495592722066313 0.020024336643163176 0 0 0
1680 16 22.420679060718122 20.495592722066313 0.020024336643161975 0 0 0
1825 1 18.683899217264724 22.653024209516097 1.786376087593292 0 0 0
1831 3 22.42067906071772 22.653024209516097 1.786376087593292 0 0 0
1677 14 24.289068982444224 17.25944644928631 0.02002433664316197 0 0 0
1683 10 28.025848825897224 17.25944644928631 0.020024336643161084 0 0 0
1678 4 24.28906898244457 19.4168779367361 1.786376087593292 0 0 0
1684 2 28.025848825897572 19.416877936736096 1.786376087593292 0 0 0
1686 12 26.157458904171126 20.495592722066313 0.02002433664316306 0 0 0
1837 1 26.157458904170724 22.653024209516097 1.786376087593292 0 0 0
1689 14 31.762628669350224 17.25944644928631 0.020024336643161965 0 0 0
1690 4 31.762628669350573 19.4168779367361 1.786376087593292 0 0 0
1692 16 29.894238747624122 20.495592722066313 0.020024336643161958 0 0 0
1698 12 33.63101859107713 20.495592722066313 0.02002433664316279 0 0 0
1843 3 29.89423874762372 22.653024209516097 1.7863760875932921 0 0 0
1849 1 33.631018591076725 22.653024209516097 1.786376087593292 0 0 0
1695 10 35.49940851280322 17.25944644928631 0.020024336643161056 0 0 0
1701 14 39.23618835625623 17.25944644928631 0.02002433664316194 0 0 0
1696 2 35.49940851280357 19.416877936736096 1.786376087593292 0 0 0
1702 4 39.23618835625657 19.4168779367361 1.786376087593292 0 0 0
1704 16 37.36779843453012 20.495592722066313 0.020024336643161972 0 0 0
1855 3 37.367798434529725 22.6530242095161 1.7863760875932921 0 0 0
1707 10 42.97296819970922 17.25944644928631 0.02002433664316104 0 0 0
1708 2 42.97296819970957 19.416877936736096 1.7863760875932917 0 0 0
1710 12 41.10457827798313 20.495592722066313 0.020024336643163082 0 0 0
1716 16 44.84135812143612 20.495592722066313 0.020024336643161958 0 0 0
1861 1 41.104578277982725 22.653024209516097 1.786376087593292 0 0 0
1867 3 44.841358121435725 22.6530242095161 1.786376087593292 0 0 0
1713 14 46.70974804316223 17.25944644928631 0.020024336643161913 0 0 0
1563 10 50.44652788661523 17.25944644928631 0.020024336643161764 -1 0 0
1714 4 46.70974804316257 19.4168779367361 1.786376087593292 0 0 0
1564 2 50.44652788661558 19.4168779367361 1.786376087593292 -1 0 0
1566 12 48.57813796488913 20.495592722066313 0.020024336643163127 -1 0 0
1717 1 48.578137964888725 22.653024209516097 1.786376087593292 -1 0 0
1569 14 54.18330773006823 17.25944644928631 0.020024336643161778 -1 0 0
1570 4 54.18330773006858 19.4168779367361 1.786376087593292 -1 0 0
1572 16 52.31491780834213 20.495592722066313 0.02002433664316235 -1 0 0
1578 12 56.05169765179513 20.495592722066313 0.02002433664316237 -1 0 0
1723 3 52.314917808341725 22.653024209516097 1.786376087593292 -1 0 0
1729 1 56.051697651794726 22.653024209516097 1.786376087593292 -1 0 0
1575 10 57.92008757352123 17.25944644928631 0.02002433664316178 -1 0 0
1581 14 61.65686741697423 17.25944644928631 0.020024336643161784 -1 0 0
1576 2 57.92008757352158 19.4168779367361 1.786376087593292 -1 0 0
1582 4 61.65686741697458 19.4168779367361 1.786376087593292 -1 0 0
1584 16 59.78847749524813 20.495592722066313 0.02002433664316236 -1 0 0
1735 3 59.788477495247726 22.653024209516097 1.786376087593292 -1 0 0
1587 10 65.39364726042723 17.25944644928631 0.020024336643161573 -1 0 0
1588 2 65.39364726042757 19.4168779367361 1.7863760875932921 -1 0 0
1590 12 63.52525733870113 20.495592722066313 0.020024336643161326 -1 0 0
1596 16 67.26203718215413 20.495592722066313 0.02002433664316347 -1 0 0
1741 1 63.525257338700726 22.653024209516097 1.786376087593292 -1 0 0
1747 3 67.26203718215373 22.6530242095161 1.786376087593292 -1 0 0
1593 14 69.13042710388024 17.25944644928631 0.02002433664316154 -1 0 0
1599 10 72.86720694733323 17.25944644928631 0.020024336643161594 -1 0 0
1594 4 69.13042710388058 19.416877936736096 1.786376087593292 -1 0 0
1600 2 72.86720694733357 19.4168779367361 1.786376087593292 -1 0 0
1602 12 70.99881702560712 20.495592722066313 0.02002433664316172 -1 0 0
1753 1 70.99881702560673 22.653024209516097 1.786376087593292 -1 0 0
1605 14 76.60398679078622 17.25944644928631 0.02002433664316246 -1 0 0
1606 4 76.60398679078658 19.4168779367361 1.786376087593292 -1 0 0
1608 16 74.73559686906013 20.495592722066313 0.02002433664316312 -1 0 0
1614 12 78.47237671251314 20.495592722066313 0.02002433664316252 -1 0 0
1759 3 74.73559686905972 22.653024209516097 1.786376087593292 -1 0 0
1765 1 78.47237671251273 22.6530242095161 1.786376087593292 -1 0 0
1611 10 80.34076663423923 17.25944644928631 0.020024336643160345 -1 0 0
1617 14 84.07754647769224 17.25944644928631 0.020024336643161497 -1 0 0
1612 2 80.34076663423959 19.416877936736096 1.786376087593292 -1 0 0
1618 4 84.07754647769258 19.416877936736096 1.7863760875932917 -1 0 0
1620 16 82.20915655596613 20.495592722066313 0.020024336643162804 -1 0 0
1771 3 82.20915655596573 22.6530242095161 1.786376087593292 -1 0 0
1623 10 87.81432632114523 17.25944644928631 0.020024336643161673 -1 0 0
1624 2 87.81432632114557 19.4168779367361 1.786376087593292 -1 0 0
1626 12 85.94593639941912 20.495592722066313 0.020024336643162572 -1 0 0
1632 16 89.68271624287213 20.495592722066313 0.020024336643161982 -1 0 0
1777 1 85.94593639941873 22.653024209516097 1.786376087593292 -1 0 0
1783 3 89.68271624287172 22.653024209516097 1.786376087593292 -1 0 0
1795 3 97.15627592977773 22.653024209516097 1.7863760875932921 -1 0 0
1629 14 91.55110616459822 17.25944644928631 0.020024336643162485 -1 0 0
1635 10 95.28788600805123 17.25944644928631 0.020024336643160452 -1 0 0
1630 4 91.55110616459858 19.4168779367361 1.786376087593292 -1 0 0
1636 2 95.28788600805159 19.416877936736096 1.7863760875932917 -1 0 0
1638 12 93.41949608632514 20.495592722066313 0.020024336643162513 -1 0 0
1789 1 93.41949608632473 22.6530242095161 1.786376087593292 -1 0 0
1797 14 1.8683899217262252 23.73173899484631 0.020024336643162107 0 0 0
1803 10 5.605169765179225 23.73173899484631 0.02002433664316215 0 0 0
1800 16 1.2611867034309065e-13 26.96788526762631 0.020024336643161816 0 0 0
1798 4 1.8683899217265723 25.889170482296098 1.786376087593292 0 0 0
1806 12 3.7367798434531254 26.96788526762631 0.020024336643160934 0 0 0
1804 2 5.605169765179571 25.889170482296098 1.786376087593292 0 0 0
1809 14 9.341949608632225 23.73173899484631 0.020024336643162156 0 0 0
1812 16 7.473559686906125 26.96788526762631 0.020024336643161635 0 0 0
1810 4 9.341949608632572 25.889170482296098 1.786376087593292 0 0 0
1818 12 11.210339530359125 26.96788526762631 0.0200243366431616 0 0 0
1815 10 13.078729452085225 23.73173899484631 0.02002433664316211 0 0 0
1821 14 16.815509295538224 23.73173899484631 0.020024336643162007 0 0 0
1816 2 13.078729452085572 25.889170482296098 1.786376087593292 0 0 0
1824 16 14.947119373812125 26.96788526762631 0.020024336643161517 0 0 0
1822 4 16.815509295538572 25.889170482296098 1.786376087593292 0 0 0
1827 10 20.552289138991224 23.73173899484631 0.020024336643161902 0 0 0
1830 12 18.683899217265125 26.96788526762631 0.020024336643161954 0 0 0
1828 2 20.552289138991572 25.889170482296098 1.786376087593292 0 0 0
1836 16 22.420679060718122 26.96788526762631 0.020024336643161073 0 0 0
1833 14 24.289068982444224 23.73173899484631 0.02002433664316256 0 0 0
1839 10 28.025848825897224 23.73173899484631 0.0200243366431619 0 0 0
1834 4 24.28906898244457 25.889170482296098 1.786376087593292 0 0 0
1842 12 26.157458904171126 26.96788526762631 0.02002433664316184 0 0 0
1840 2 28.025848825897572 25.889170482296098 1.786376087593292 0 0 0
1845 14 31.762628669350224 23.73173899484631 0.020024336643162555 0 0 0
1848 16 29.894238747624122 26.96788526762631 0.020024336643161045 0 0 0
1854 12 33.63101859107713 26.96788526762631 0.020024336643161642 0 0 0
1846 4 31.762628669350573 25.889170482296098 1.786376087593292 0 0 0
1851 10 35.49940851280322 23.73173899484631 0.020024336643161854 0 0 0
1857 14 39.23618835625623 23.73173899484631 0.020024336643162527 0 0 0
1852 2 35.49940851280357 25.889170482296098 1.786376087593292 0 0 0