LAMMPS data file via write_data, version 29 Aug 2024, timestep = 2, units = metal

7020 atoms
36 atom types

0 97.156275929778 xlo xhi
0 97.0843881834 ylo yhi
-50 50 zlo zhi

Masses

1 47.867
2 47.867
3 47.867
4 47.867
5 47.867
6 47.867
7 47.867
8 47.867
9 47.867
10 47.867
11 47.867
12 47.867
13 127.6
14 127.6
15 127.6
16 127.6
17 127.6
18 127.6
19 127.6
20 127.6
21 127.6
22 127.6
23 127.6
24 127.6
25 127.6
26 127.6
27 127.6
28 127.6
29 127.6
30 127.6
31 127.6
32 127.6
33 127.6
34 127.6
35 127.6
36 127.6

Atoms # atomic

1176 20 1.2243349360243137e-13 1.078715085158557 0.020013088151529874 0 0 0
1174 4 1.8683899217265751 2.9683457054418267e-07 1.7862552079573843 0 0 0
1182 16 3.7367798434531228 1.0787150851585579 0.020013088151528708 0 0 0
1180 2 5.605169765179574 2.968345705911718e-07 1.7862552079573843 0 0 0
1333 1 3.7367798434527284 3.23614656961457 1.7862552079573841 0 0 0
1329 18 1.8683899217262243 4.314861357938557 0.02001308815152879 0 0 0
1335 14 5.605169765179224 4.314861357938557 0.02001308815152885 0 0 0
1188 20 7.473559686906122 1.0787150851585576 0.02001308815152922 0 0 0
1186 4 9.341949608632573 2.9683457053102703e-07 1.7862552079573843 0 0 0
1194 16 11.210339530359121 1.0787150851585576 0.02001308815152932 0 0 0
1339 3 7.473559686905729 3.23614656961457 1.7862552079573843 0 0 0
1345 1 11.210339530358729 3.23614656961457 1.7862552079573843 0 0 0
1341 18 9.341949608632225 4.314861357938557 0.020013088151528764 0 0 0
1192 2 13.078729452085573 2.968345705059144e-07 1.7862552079573843 0 0 0
1200 20 14.947119373812123 1.0787150851585576 0.02001308815152948 0 0 0
1198 4 16.815509295538575 2.968345704198348e-07 1.7862552079573843 0 0 0
1351 3 14.947119373811729 3.23614656961457 1.7862552079573841 0 0 0
1347 14 13.078729452085225 4.314861357938557 0.020013088151528788 0 0 0
1353 18 16.815509295538224 4.314861357938557 0.02001308815152871 0 0 0
1206 16 18.683899217265125 1.0787150851585572 0.020013088151529596 0 0 0
1204 2 20.552289138991572 2.9683456919964296e-07 1.7862552079573846 0 0 0
1212 20 22.42067906071812 1.0787150851585579 0.020013088151528892 0 0 0
1357 1 18.683899217264727 3.2361465696145695 1.7862552079573843 0 0 0
1363 3 22.420679060717724 3.236146569614571 1.7862552079573841 0 0 0
1359 14 20.55228913899122 4.314861357938557 0.020013088151528486 0 0 0
1210 4 24.289068982444572 2.9683457190506625e-07 1.7862552079573843 0 0 0
1218 16 26.157458904171122 1.0787150851585572 0.020013088151529825 0 0 0
1216 2 28.025848825897572 2.968345692149895e-07 1.7862552079573846 0 0 0
1369 1 26.157458904170728 3.2361465696145695 1.7862552079573843 0 0 0
1365 18 24.289068982444224 4.314861357938557 0.020013088151529333 0 0 0
1371 14 28.02584882589722 4.314861357938557 0.02001308815152849 0 0 0
1224 20 29.89423874762412 1.0787150851585579 0.020013088151528958 0 0 0
1230 16 33.63101859107712 1.0787150851585572 0.020013088151529704 0 0 0
1222 4 31.762628669350573 2.968345716748675e-07 1.7862552079573843 0 0 0
1375 3 29.894238747623728 3.2361465696145704 1.7862552079573843 0 0 0
1381 1 33.63101859107673 3.2361465696145695 1.7862552079573843 0 0 0
1377 18 31.762628669350224 4.314861357938557 0.020013088151529586 0 0 0
1228 2 35.499408512803576 2.9683456963074234e-07 1.7862552079573846 0 0 0
1236 20 37.36779843453012 1.0787150851585579 0.020013088151528902 0 0 0
1234 4 39.23618835625658 2.9683457151582115e-07 1.7862552079573843 0 0 0
1387 3 37.367798434529725 3.2361465696145704 1.7862552079573843 0 0 0
1383 14 35.49940851280322 4.3148613579385575 0.020013088151527903 0 0 0
1389 18 39.23618835625622 4.314861357938556 0.020013088151529863 0 0 0
1242 16 41.10457827798312 1.0787150851585572 0.020013088151529707 0 0 0
1240 2 42.97296819970958 2.9683456959725886e-07 1.7862552079573846 0 0 0
1248 20 44.84135812143612 1.0787150851585579 0.020013088151528868 0 0 0
1393 1 41.104578277982725 3.23614656961457 1.7862552079573843 0 0 0
1399 3 44.841358121435725 3.2361465696145704 1.7862552079573843 0 0 0
1395 14 42.97296819970922 4.3148613579385575 0.020013088151527875 0 0 0
1246 4 46.70974804316258 2.968345713882902e-07 1.7862552079573843 0 0 0
1098 16 48.57813796488912 1.078715085158557 0.02001308815153008 -1 0 0
1096 2 50.44652788661558 2.968345708774684e-07 1.7862552079573843 -1 0 0
1249 1 48.57813796488873 3.236146569614571 1.7862552079573843 -1 0 0
1401 18 46.70974804316222 4.314861357938557 0.020013088151529627 0 0 0
1251 14 50.44652788661523 4.314861357938557 0.020013088151528614 -1 0 0
1104 20 52.31491780834213 1.0787150851585574 0.020013088151529083 -1 0 0
1102 4 54.183307730068584 2.9683457047524774e-07 1.7862552079573846 -1 0 0
1110 16 56.05169765179513 1.0787150851585574 0.02001308815152914 -1 0 0
1255 3 52.31491780834173 3.23614656961457 1.7862552079573843 -1 0 0
1261 1 56.05169765179473 3.23614656961457 1.7862552079573843 -1 0 0
1257 18 54.18330773006823 4.314861357938557 0.02001308815152876 -1 0 0
1108 2 57.920087573521585 2.9683457047385257e-07 1.7862552079573846 -1 0 0
1116 20 59.78847749524813 1.0787150851585574 0.020013088151529208 -1 0 0
1114 4 61.65686741697458 2.96834570110696e-07 1.7862552079573846 -1 0 0
1267 3 59.78847749524773 3.23614656961457 1.7862552079573843 -1 0 0
1263 14 57.92008757352123 4.314861357938557 0.020013088151528764 -1 0 0
1269 18 61.65686741697423 4.314861357938557 0.020013088151528826 -1 0 0
1122 16 63.525257338701124 1.0787150851585576 0.020013088151528812 -1 0 0
1120 2 65.39364726042758 2.968345712500989e-07 1.7862552079573843 -1 0 0
1128 20 67.26203718215413 1.0787150851585574 0.02001308815152928 -1 0 0
1273 1 63.52525733870073 3.23614656961457 1.7862552079573841 -1 0 0
1279 3 67.26203718215373 3.2361465696145713 1.7862552079573843 -1 0 0
1275 14 65.39364726042723 4.314861357938556 0.020013088151529242 -1 0 0
1126 4 69.13042710388058 2.968345690246771e-07 1.7862552079573846 -1 0 0
1134 16 70.99881702560712 1.0787150851585576 0.020013088151529468 -1 0 0
1132 2 72.86720694733359 2.968345718283333e-07 1.7862552079573841 -1 0 0
1285 1 70.99881702560674 3.236146569614569 1.7862552079573843 -1 0 0
1281 18 69.13042710388024 4.3148613579385575 0.020013088151527834 -1 0 0
1287 14 72.86720694733323 4.314861357938556 0.020013088151529138 -1 0 0
1140 20 74.73559686906013 1.0787150851585576 0.020013088151529187 -1 0 0
1138 4 76.60398679078658 2.9683457098985197e-07 1.7862552079573841 -1 0 0
1146 16 78.47237671251312 1.0787150851585574 0.02001308815152935 -1 0 0
1291 3 74.73559686905973 3.236146569614569 1.7862552079573841 -1 0 0
1297 1 78.47237671251273 3.236146569614571 1.7862552079573841 -1 0 0
1293 18 76.60398679078622 4.314861357938557 0.020013088151529978 -1 0 0
1144 2 80.34076663423959 2.968345703418627e-07 1.7862552079573846 -1 0 0
1152 20 82.20915655596613 1.0787150851585572 0.0200130881515294 -1 0 0
1150 4 84.07754647769258 2.968345686047552e-07 1.7862552079573846 -1 0 0
1303 3 82.20915655596573 3.2361465696145713 1.7862552079573841 -1 0 0
1299 14 80.34076663423923 4.314861357938557 0.02001308815152859 -1 0 0
1305 18 84.07754647769224 4.3148613579385575 0.020013088151527768 -1 0 0
1158 16 85.94593639941912 1.078715085158557 0.020013088151530214 -1 0 0
1156 2 87.81432632114559 2.968345718046902e-07 1.7862552079573843 -1 0 0
1164 20 89.68271624287213 1.0787150851585583 0.020013088151528295 -1 0 0
1309 1 85.94593639941874 3.2361465696145695 1.7862552079573843 -1 0 0
1315 3 89.68271624287173 3.2361465696145686 1.7862552079573841 -1 0 0
1311 14 87.81432632114523 4.314861357938556 0.02001308815152912 -1 0 0
1327 3 97.15627592977773 3.2361465696145695 1.7862552079573848 -1 0 0
1162 4 91.55110616459858 2.968345713238479e-07 1.7862552079573841 -1 0 0
1170 16 93.41949608632513 1.0787150851585574 0.020013088151529315 -1 0 0
1168 2 95.28788600805159 2.9683456996529854e-07 1.7862552079573841 -1 0 0
1321 1 93.41949608632473 3.2361465696145713 1.7862552079573843 -1 0 0
1317 18 91.55110616459822 4.314861357938557 0.020013088151529974 -1 0 0
1323 14 95.28788600805123 4.3148613579385575 0.020013088151527643 -1 0 0
1332 20 1.223824462018363e-13 7.551007630718557 0.020013088151529565 0 0 0
1330 4 1.8683899217265754 6.4722928423945705 1.7862552079573843 0 0 0
1338 16 3.7367798434531228 7.551007630718558 0.0200130881515284 0 0 0
1336 2 5.605169765179574 6.4722928423945705 1.7862552079573843 0 0 0
1489 1 3.7367798434527284 9.708439115174569 1.7862552079573841 0 0 0
1485 18 1.8683899217262243 10.787153903498558 0.020013088151529218 0 0 0
1491 14 5.605169765179224 10.787153903498558 0.02001308815152914 0 0 0
1344 20 7.473559686906122 7.551007630718558 0.020013088151528902 0 0 0
1342 4 9.341949608632573 6.4722928423945705 1.7862552079573843 0 0 0
1350 16 11.210339530359121 7.551007630718558 0.020013088151528937 0 0 0
1495 3 7.473559686905729 9.70843911517457 1.7862552079573841 0 0 0
1501 1 11.210339530358729 9.70843911517457 1.7862552079573841 0 0 0
1497 18 9.341949608632225 10.787153903498558 0.02001308815152919 0 0 0
1348 2 13.078729452085573 6.4722928423945705 1.7862552079573843 0 0 0
1356 20 14.947119373812123 7.551007630718558 0.020013088151529065 0 0 0
1354 4 16.815509295538575 6.47229284239457 1.7862552079573843 0 0 0
1507 3 14.947119373811729 9.70843911517457 1.7862552079573841 0 0 0
1503 14 13.078729452085225 10.787153903498558 0.020013088151529173 0 0 0
1509 18 16.815509295538224 10.787153903498558 0.020013088151529072 0 0 0
1362 16 18.683899217265125 7.551007630718557 0.020013088151529305 0 0 0
1360 2 20.552289138991572 6.472292842394569 1.7862552079573843 0 0 0
1368 20 22.42067906071812 7.551007630718558 0.020013088151528642 0 0 0
1513 1 18.683899217264727 9.708439115174569 1.7862552079573841 0 0 0
1519 3 22.420679060717724 9.70843911517457 1.7862552079573841 0 0 0
1515 14 20.55228913899122 10.787153903498558 0.02001308815152896 0 0 0
1366 4 24.289068982444572 6.472292842394571 1.7862552079573843 0 0 0
1374 16 26.157458904171122 7.551007630718557 0.020013088151529385 0 0 0
1372 2 28.025848825897572 6.472292842394569 1.7862552079573843 0 0 0
1525 1 26.157458904170728 9.708439115174569 1.7862552079573841 0 0 0
1521 18 24.289068982444224 10.787153903498556 0.020013088151529836 0 0 0
1527 14 28.02584882589722 10.787153903498558 0.02001308815152895 0 0 0
1380 20 29.89423874762412 7.551007630718558 0.020013088151528677 0 0 0
1386 16 33.63101859107712 7.551007630718557 0.020013088151529298 0 0 0
1378 4 31.762628669350573 6.472292842394571 1.7862552079573843 0 0 0
1531 3 29.894238747623724 9.70843911517457 1.7862552079573841 0 0 0
1537 1 33.63101859107673 9.708439115174569 1.7862552079573841 0 0 0
1533 18 31.762628669350224 10.787153903498556 0.0200130881515301 0 0 0
1384 2 35.499408512803576 6.47229284239457 1.7862552079573843 0 0 0
1392 20 37.36779843453012 7.551007630718558 0.020013088151528594 0 0 0
1390 4 39.23618835625658 6.4722928423945705 1.7862552079573843 0 0 0
1543 3 37.367798434529725 9.70843911517457 1.7862552079573843 0 0 0
1539 14 35.49940851280322 10.787153903498558 0.020013088151528392 0 0 0
1545 18 39.23618835625622 10.787153903498556 0.02001308815153043 0 0 0
1398 16 41.10457827798312 7.551007630718557 0.020013088151529305 0 0 0
1396 2 42.97296819970958 6.47229284239457 1.7862552079573843 0 0 0
1404 20 44.84135812143612 7.551007630718558 0.02001308815152857 0 0 0
1549 1 41.10457827798273 9.70843911517457 1.7862552079573841 0 0 0
1555 3 44.841358121435725 9.70843911517457 1.7862552079573843 0 0 0
1551 14 42.97296819970922 10.787153903498558 0.020013088151528358 0 0 0
1402 4 46.70974804316258 6.4722928423945705 1.7862552079573843 0 0 0
1254 16 48.57813796488912 7.551007630718557 0.020013088151529693 -1 0 0
1252 2 50.44652788661558 6.4722928423945705 1.7862552079573841 -1 0 0
1405 1 48.57813796488873 9.70843911517457 1.7862552079573841 -1 0 0
1557 18 46.70974804316222 10.787153903498558 0.020013088151530096 0 0 0
1407 14 50.44652788661523 10.787153903498558 0.020013088151528944 -1 0 0
1260 20 52.31491780834213 7.551007630718558 0.020013088151529003 -1 0 0
1258 4 54.183307730068584 6.4722928423945705 1.7862552079573843 -1 0 0
1266 16 56.05169765179513 7.551007630718558 0.020013088151529013 -1 0 0
1411 3 52.31491780834173 9.70843911517457 1.7862552079573841 -1 0 0
1417 1 56.05169765179473 9.70843911517457 1.7862552079573841 -1 0 0
1413 18 54.18330773006823 10.787153903498558 0.020013088151529114 -1 0 0
1264 2 57.920087573521585 6.4722928423945705 1.7862552079573843 -1 0 0
1272 20 59.78847749524813 7.551007630718558 0.02001308815152908 -1 0 0
1270 4 61.65686741697458 6.47229284239457 1.7862552079573843 -1 0 0
1423 3 59.78847749524773 9.70843911517457 1.7862552079573841 -1 0 0
1419 14 57.92008757352123 10.787153903498558 0.020013088151529076 -1 0 0
1425 18 61.65686741697423 10.787153903498558 0.02001308815152928 -1 0 0
1278 16 63.525257338701124 7.551007630718558 0.020013088151528503 -1 0 0
1276 2 65.39364726042758 6.472292842394571 1.7862552079573841 -1 0 0
1284 20 67.26203718215413 7.551007630718558 0.020013088151529024 -1 0 0
1429 1 63.52525733870073 9.708439115174569 1.7862552079573841 -1 0 0
1435 3 67.26203718215373 9.70843911517457 1.7862552079573841 -1 0 0
1431 14 65.39364726042723 10.787153903498556 0.020013088151529718 -1 0 0
1282 4 69.13042710388058 6.472292842394569 1.7862552079573843 -1 0 0
1290 16 70.99881702560712 7.551007630718558 0.020013088151529176 -1 0 0
1288 2 72.86720694733359 6.472292842394571 1.7862552079573841 -1 0 0
1441 1 70.99881702560674 9.708439115174569 1.7862552079573843 -1 0 0
1437 18 69.13042710388024 10.787153903498558 0.0200130881515284 -1 0 0
1443 14 72.86720694733323 10.787153903498556 0.020013088151529444 -1 0 0
1296 20 74.73559686906013 7.5510076307185585 0.020013088151528677 -1 0 0
1294 4 76.60398679078658 6.4722928423945705 1.7862552079573843 -1 0 0
1302 16 78.47237671251312 7.551007630718558 0.02001308815152912 -1 0 0
1447 3 74.73559686905973 9.708439115174569 1.7862552079573841 -1 0 0
1453 1 78.47237671251273 9.70843911517457 1.7862552079573841 -1 0 0
1449 18 76.60398679078622 10.787153903498558 0.020013088151530467 -1 0 0
1300 2 80.34076663423959 6.4722928423945705 1.7862552079573841 -1 0 0
1308 20 82.20915655596613 7.551007630718558 0.02001308815152904 -1 0 0
1306 4 84.07754647769258 6.472292842394569 1.7862552079573843 -1 0 0
1459 3 82.20915655596573 9.70843911517457 1.7862552079573843 -1 0 0
1455 14 80.34076663423923 10.787153903498558 0.02001308815152906 -1 0 0
1461 18 84.07754647769224 10.787153903498558 0.020013088151528347 -1 0 0
1314 16 85.94593639941912 7.551007630718557 0.020013088151529926 -1 0 0
1312 2 87.81432632114559 6.472292842394571 1.7862552079573843 -1 0 0
1320 20 89.68271624287213 7.5510076307185585 0.02001308815152789 -1 0 0
1465 1 85.94593639941874 9.708439115174569 1.7862552079573841 -1 0 0
1471 3 89.68271624287173 9.708439115174569 1.7862552079573841 -1 0 0
1467 14 87.81432632114523 10.787153903498556 0.02001308815152953 -1 0 0
1483 3 97.15627592977773 9.70843911517457 1.7862552079573848 -1 0 0
1318 4 91.55110616459858 6.4722928423945705 1.7862552079573843 -1 0 0
1326 16 93.41949608632513 7.551007630718558 0.020013088151529135 -1 0 0
1324 2 95.28788600805159 6.47229284239457 1.786255207957384 -1 0 0
1477 1 93.41949608632473 9.70843911517457 1.786255207957384 -1 0 0
1473 18 91.55110616459822 10.787153903498558 0.02001308815153048 -1 0 0
1479 14 95.28788600805123 10.787153903498558 0.020013088151528146 -1 0 0
1486 4 1.8683899217265754 12.94458538795457 1.7862552079573846 0 0 0
1492 2 5.605169765179574 12.94458538795457 1.7862552079573843 0 0 0
1488 20 1.2244998601285784e-13 14.023300176278557 0.020013088151529936 0 0 0
1494 16 3.7367798434531228 14.023300176278557 0.02001308815152892 0 0 0
1645 1 3.7367798434527284 16.18073166073457 1.7862552079573848 0 0 0
1498 4 9.341949608632573 12.94458538795457 1.7862552079573843 0 0 0
1500 20 7.473559686906122 14.023300176278557 0.02001308815152933 0 0 0
1506 16 11.210339530359121 14.023300176278557 0.02001308815152934 0 0 0
1651 3 7.473559686905729 16.180731660734573 1.7862552079573846 0 0 0
1657 1 11.210339530358729 16.18073166073457 1.7862552079573843 0 0 0
1504 2 13.078729452085573 12.94458538795457 1.7862552079573843 0 0 0
1510 4 16.815509295538575 12.94458538795457 1.7862552079573843 0 0 0
1512 20 14.947119373812123 14.023300176278557 0.020013088151529416 0 0 0
1663 3 14.947119373811729 16.18073166073457 1.7862552079573843 0 0 0
1516 2 20.552289138991572 12.94458538795457 1.7862552079573841 0 0 0
1518 16 18.683899217265125 14.023300176278557 0.02001308815152971 0 0 0
1524 20 22.42067906071812 14.023300176278557 0.02001308815152869 0 0 0
1669 1 18.683899217264727 16.18073166073457 1.7862552079573841 0 0 0
1675 3 22.420679060717724 16.180731660734573 1.7862552079573846 0 0 0
1522 4 24.289068982444572 12.944585387954572 1.7862552079573841 0 0 0
1528 2 28.025848825897572 12.94458538795457 1.7862552079573841 0 0 0
1530 16 26.157458904171122 14.023300176278557 0.02001308815152969 0 0 0
1681 1 26.157458904170728 16.18073166073457 1.7862552079573841 0 0 0
1534 4 31.762628669350573 12.94458538795457 1.7862552079573841 0 0 0
1536 20 29.89423874762412 14.023300176278557 0.020013088151528722 0 0 0
1542 16 33.63101859107712 14.023300176278557 0.02001308815152967 0 0 0
1687 3 29.894238747623724 16.180731660734573 1.7862552079573846 0 0 0
1693 1 33.63101859107673 16.180731660734573 1.7862552079573843 0 0 0
1540 2 35.499408512803576 12.94458538795457 1.7862552079573843 0 0 0
1546 4 39.23618835625658 12.94458538795457 1.786255207957384 0 0 0
1548 20 37.36779843453012 14.023300176278557 0.020013088151528798 0 0 0
1699 3 37.367798434529725 16.180731660734573 1.7862552079573843 0 0 0
1552 2 42.97296819970958 12.94458538795457 1.7862552079573841 0 0 0
1554 16 41.10457827798312 14.023300176278557 0.02001308815152965 0 0 0
1560 20 44.84135812143612 14.023300176278559 0.02001308815152874 0 0 0
1705 1 41.104578277982725 16.180731660734573 1.7862552079573843 0 0 0
1711 3 44.841358121435725 16.180731660734573 1.7862552079573843 0 0 0
1558 4 46.70974804316258 12.94458538795457 1.7862552079573843 0 0 0
1408 2 50.44652788661558 12.94458538795457 1.7862552079573846 -1 0 0
1410 16 48.57813796488912 14.023300176278557 0.020013088151530054 -1 0 0
1561 1 48.57813796488873 16.180731660734573 1.7862552079573843 -1 0 0
1414 4 54.183307730068584 12.94458538795457 1.7862552079573843 -1 0 0
1416 20 52.31491780834213 14.023300176278557 0.0200130881515293 -1 0 0
1422 16 56.05169765179513 14.023300176278557 0.020013088151529357 -1 0 0
1567 3 52.31491780834173 16.18073166073457 1.7862552079573843 -1 0 0
1573 1 56.05169765179473 16.18073166073457 1.7862552079573843 -1 0 0
1420 2 57.920087573521585 12.94458538795457 1.7862552079573843 -1 0 0
1426 4 61.65686741697458 12.94458538795457 1.7862552079573843 -1 0 0
1428 20 59.78847749524813 14.023300176278557 0.020013088151529433 -1 0 0
1579 3 59.78847749524773 16.18073166073457 1.7862552079573843 -1 0 0
1432 2 65.39364726042758 12.94458538795457 1.7862552079573843 -1 0 0
1434 16 63.525257338701124 14.023300176278557 0.02001308815152902 -1 0 0
1440 20 67.26203718215413 14.023300176278557 0.02001308815152959 -1 0 0
1585 1 63.52525733870073 16.18073166073457 1.7862552079573848 -1 0 0
1591 3 67.26203718215373 16.180731660734573 1.7862552079573841 -1 0 0
1438 4 69.13042710388058 12.94458538795457 1.7862552079573843 -1 0 0
1444 2 72.86720694733359 12.94458538795457 1.7862552079573841 -1 0 0
1446 16 70.99881702560712 14.023300176278557 0.020013088151529405 -1 0 0
1597 1 70.99881702560674 16.18073166073457 1.7862552079573843 -1 0 0
1450 4 76.60398679078658 12.94458538795457 1.7862552079573855 -1 0 0
1452 20 74.73559686906013 14.023300176278557 0.020013088151529083 -1 0 0
1458 16 78.47237671251312 14.023300176278557 0.020013088151529322 -1 0 0
1603 3 74.73559686905973 16.18073166073457 1.7862552079573843 -1 0 0
1609 1 78.47237671251273 16.180731660734573 1.7862552079573843 -1 0 0
1456 2 80.34076663423959 12.94458538795457 1.786255207957383 -1 0 0
1462 4 84.07754647769258 12.944585387954568 1.7862552079573843 -1 0 0
1464 20 82.20915655596613 14.023300176278557 0.02001308815152952 -1 0 0
1615 3 82.20915655596573 16.180731660734573 1.7862552079573841 -1 0 0
1468 2 87.81432632114559 12.94458538795457 1.7862552079573841 -1 0 0
1470 16 85.94593639941912 14.023300176278557 0.020013088151530235 -1 0 0
1476 20 89.68271624287213 14.023300176278559 0.02001308815152823 -1 0 0
1621 1 85.94593639941874 16.18073166073457 1.7862552079573841 -1 0 0
1627 3 89.68271624287173 16.18073166073457 1.7862552079573846 -1 0 0
1639 3 97.15627592977773 16.18073166073457 1.7862552079573848 -1 0 0
1474 4 91.55110616459858 12.944585387954572 1.7862552079573855 -1 0 0
1480 2 95.28788600805159 12.94458538795457 1.7862552079573826 -1 0 0
1482 16 93.41949608632513 14.023300176278557 0.020013088151529343 -1 0 0
1633 1 93.41949608632473 16.180731660734573 1.7862552079573843 -1 0 0
1641 18 1.8683899217262243 17.259446449058558 0.020013088151528725 0 0 0
1647 14 5.605169765179224 17.259446449058558 0.020013088151528715 0 0 0
1642 4 1.8683899217265756 19.416877933514574 1.7862552079573841 0 0 0
1648 2 5.605169765179574 19.416877933514574 1.786255207957384 0 0 0
1644 20 1.2224170665568086e-13 20.49559272183856 0.020013088151529992 0 0 0
1650 16 3.7367798434531228 20.495592721838563 0.02001308815152882 0 0 0
1801 1 3.7367798434527284 22.65302420629457 1.7862552079573848 0 0 0
1653 18 9.341949608632225 17.259446449058558 0.02001308815152862 0 0 0
1654 4 9.341949608632573 19.416877933514574 1.786255207957384 0 0 0
1656 20 7.473559686906122 20.495592721838563 0.020013088151529277 0 0 0
1662 16 11.210339530359121 20.495592721838563 0.020013088151529315 0 0 0
1807 3 7.473559686905729 22.65302420629457 1.7862552079573846 0 0 0
1813 1 11.210339530358729 22.65302420629457 1.7862552079573848 0 0 0
1659 14 13.078729452085225 17.259446449058558 0.02001308815152862 0 0 0
1665 18 16.815509295538224 17.259446449058558 0.020013088151528455 0 0 0
1660 2 13.078729452085573 19.416877933514574 1.786255207957384 0 0 0
1666 4 16.815509295538575 19.416877933514574 1.7862552079573841 0 0 0
1668 20 14.947119373812123 20.495592721838563 0.020013088151529464 0 0 0
1819 3 14.947119373811729 22.65302420629457 1.7862552079573848 0 0 0
1671 14 20.55228913899122 17.25944644905856 0.02001308815152803 0 0 0
1672 2 20.552289138991572 19.41687793351457 1.7862552079573843 0 0 0
1674 16 18.683899217265125 20.49559272183856 0.020013088151529853 0 0 0
1680 20 22.42067906071812 20.495592721838563 0.020013088151528916 0 0 0
1825 1 18.683899217264727 22.65302420629457 1.7862552079573841 0 0 0
1831 3 22.420679060717724 22.65302420629457 1.7862552079573846 0 0 0
1677 18 24.289068982444224 17.259446449058558 0.020013088151528906 0 0 0
1683 14 28.02584882589722 17.25944644905856 0.020013088151528028 0 0 0
1678 4 24.289068982444572 19.416877933514574 1.7862552079573841 0 0 0
1684 2 28.025848825897572 19.41687793351457 1.7862552079573843 0 0 0
1686 16 26.157458904171122 20.49559272183856 0.020013088151529936 0 0 0
1837 1 26.157458904170728 22.65302420629457 1.7862552079573841 0 0 0
1689 18 31.762628669350224 17.259446449058558 0.020013088151529187 0 0 0
1690 4 31.762628669350573 19.416877933514574 1.7862552079573841 0 0 0
1692 20 29.89423874762412 20.495592721838563 0.02001308815152894 0 0 0
1698 16 33.63101859107712 20.49559272183856 0.02001308815152992 0 0 0
1843 3 29.894238747623724 22.65302420629457 1.7862552079573846 0 0 0
1849 1 33.63101859107673 22.65302420629457 1.7862552079573841 0 0 0
1695 14 35.49940851280322 17.25944644905856 0.020013088151527452 0 0 0
1701 18 39.23618835625622 17.259446449058558 0.020013088151529523 0 0 0
1696 2 35.499408512803576 19.41687793351457 1.7862552079573846 0 0 0
1702 4 39.23618835625658 19.416877933514574 1.7862552079573841 0 0 0
1704 20 37.36779843453012 20.495592721838563 0.02001308815152889 0 0 0
1855 3 37.367798434529725 22.65302420629457 1.7862552079573843 0 0 0
1707 14 42.97296819970922 17.25944644905856 0.020013088151527428 0 0 0
1708 2 42.97296819970958 19.41687793351457 1.7862552079573843 0 0 0
1710 16 41.10457827798312 20.49559272183856 0.020013088151529922 0 0 0
1716 20 44.84135812143612 20.495592721838563 0.020013088151528875 0 0 0
1861 1 41.10457827798273 22.65302420629457 1.786255207957384 0 0 0
1867 3 44.841358121435725 22.65302420629457 1.7862552079573846 0 0 0
1713 18 46.70974804316222 17.259446449058558 0.020013088151529468 0 0 0
1563 14 50.44652788661523 17.259446449058558 0.020013088151528587 -1 0 0
1714 4 46.70974804316258 19.416877933514574 1.786255207957384 0 0 0
1564 2 50.44652788661558 19.416877933514574 1.786255207957384 -1 0 0
1566 16 48.57813796488912 20.49559272183856 0.02001308815153006 -1 0 0
1717 1 48.57813796488873 22.65302420629457 1.7862552079573841 -1 0 0
1569 18 54.18330773006823 17.259446449058558 0.02001308815152869 -1 0 0
1570 4 54.183307730068584 19.416877933514574 1.786255207957384 -1 0 0
1572 20 52.31491780834213 20.495592721838563 0.020013088151529215 -1 0 0
1578 16 56.05169765179513 20.495592721838563 0.02001308815152931 -1 0 0
1723 3 52.31491780834173 22.65302420629457 1.7862552079573846 -1 0 0
1729 1 56.05169765179473 22.65302420629457 1.7862552079573846 -1 0 0
1575 14 57.92008757352123 17.259446449058558 0.020013088151528677 -1 0 0
1581 18 61.65686741697423 17.259446449058558 0.02001308815152877 -1 0 0
1576 2 57.920087573521585 19.416877933514574 1.786255207957384 -1 0 0
1582 4 61.65686741697458 19.416877933514574 1.786255207957384 -1 0 0
1584 20 59.78847749524813 20.495592721838563 0.020013088151529353 -1 0 0
1735 3 59.78847749524773 22.65302420629457 1.7862552079573846 -1 0 0
1587 14 65.39364726042723 17.259446449058558 0.020013088151528892 -1 0 0
1588 2 65.39364726042758 19.416877933514574 1.7862552079573841 -1 0 0
1590 16 63.525257338701124 20.495592721838563 0.02001308815152891 -1 0 0
1596 20 67.26203718215413 20.49559272183856 0.020013088151529263 -1 0 0
1741 1 63.52525733870073 22.65302420629457 1.7862552079573846 -1 0 0
1747 3 67.26203718215373 22.65302420629457 1.7862552079573843 -1 0 0
1593 18 69.13042710388024 17.25944644905856 0.0200130881515274 -1 0 0
1599 14 72.86720694733323 17.259446449058558 0.020013088151528594 -1 0 0
1594 4 69.13042710388058 19.41687793351457 1.7862552079573846 -1 0 0
1600 2 72.86720694733359 19.416877933514574 1.7862552079573841 -1 0 0
1602 16 70.99881702560712 20.495592721838563 0.02001308815152965 -1 0 0
1753 1 70.99881702560674 22.65302420629457 1.7862552079573846 -1 0 0
1605 18 76.60398679078622 17.259446449058558 0.020013088151529572 -1 0 0
1606 4 76.60398679078658 19.416877933514574 1.7862552079573852 -1 0 0
1608 20 74.73559686906013 20.49559272183856 0.020013088151529135 -1 0 0
1614 16 78.47237671251312 20.495592721838563 0.020013088151529485 -1 0 0
1759 3 74.73559686905973 22.65302420629457 1.786255207957384 -1 0 0
1765 1 78.47237671251273 22.65302420629457 1.7862552079573843 -1 0 0
1611 14 80.34076663423923 17.25944644905856 0.020013088151528087 -1 0 0
1617 18 84.07754647769224 17.25944644905856 0.020013088151527424 -1 0 0
1612 2 80.34076663423959 19.416877933514574 1.7862552079573835 -1 0 0
1618 4 84.07754647769258 19.41687793351457 1.7862552079573846 -1 0 0
1620 20 82.20915655596613 20.49559272183856 0.02001308815152949 -1 0 0
1771 3 82.20915655596573 22.65302420629457 1.7862552079573843 -1 0 0
1623 14 87.81432632114523 17.259446449058558 0.02001308815152861 -1 0 0
1624 2 87.81432632114559 19.416877933514574 1.7862552079573841 -1 0 0
1626 16 85.94593639941912 20.49559272183856 0.02001308815153051 -1 0 0
1632 20 89.68271624287213 20.495592721838563 0.020013088151528326 -1 0 0
1777 1 85.94593639941874 22.65302420629457 1.7862552079573841 -1 0 0
1783 3 89.68271624287173 22.65302420629457 1.7862552079573843 -1 0 0
1795 3 97.15627592977773 22.65302420629457 1.7862552079573848 -1 0 0
1629 18 91.55110616459822 17.259446449058558 0.02001308815152957 -1 0 0
1635 14 95.28788600805123 17.25944644905856 0.02001308815152732 -1 0 0
1630 4 91.55110616459858 19.416877933514574 1.7862552079573852 -1 0 0
1636 2 95.28788600805159 19.41687793351457 1.7862552079573828 -1 0 0
1638 16 93.41949608632513 20.495592721838563 0.02001308815152952 -1 0 0
1789 1 93.41949608632473 22.65302420629457 1.7862552079573846 -1 0 0
1797 18 1.8683899217262243 23.731738994618556 0.020013088151529163 0 0 0
1803 14 5.605169765179224 23.731738994618556 0.020013088151529218 0 0 0
1800 20 1.2254567801076738e-13 26.967885267398557 0.020013088151529107 0 0 0
1798 4 1.8683899217265754 25.889170479074572 1.7862552079573841 0 0 0
1806 16 3.7367798434531228 26.967885267398557 0.02001308815152822 0 0 0
1804 2 5.605169765179574 25.889170479074572 1.7862552079573841 0 0 0
1809 18 9.341949608632225 23.731738994618556 0.0200130881515291 0 0 0
1812 20 7.473559686906122 26.967885267398557 0.02001308815152848 0 0 0
1810 4 9.341949608632573 25.889170479074572 1.7862552079573843 0 0 0
1818 16 11.210339530359121 26.967885267398557 0.02001308815152851 0 0 0
1815 14 13.078729452085225 23.731738994618556 0.02001308815152912 0 0 0
1821 18 16.815509295538224 23.731738994618556 0.020013088151528958 0 0 0
1816 2 13.078729452085573 25.889170479074572 1.7862552079573843 0 0 0
1824 20 14.947119373812123 26.967885267398557 0.020013088151528666 0 0 0
1822 4 16.815509295538575 25.889170479074572 1.7862552079573843 0 0 0
1827 14 20.55228913899122 23.731738994618556 0.020013088151528916 0 0 0
1830 16 18.683899217265125 26.967885267398557 0.020013088151528705 0 0 0
1828 2 20.552289138991572 25.88917047907457 1.7862552079573841 0 0 0
1836 20 22.42067906071812 26.967885267398557 0.0200130881515282 0 0 0
1833 18 24.289068982444224 23.731738994618556 0.0200130881515295 0 0 0
1839 14 28.02584882589722 23.731738994618556 0.020013088151528913 0 0 0
1834 4 24.289068982444572 25.889170479074572 1.7862552079573846 0 0 0
1842 16 26.157458904171122 26.967885267398557 0.0200130881515289 0 0 0
1840 2 28.025848825897572 25.88917047907457 1.7862552079573843 0 0 0
1845 18 31.762628669350224 23.731738994618556 0.020013088151529815 0 0 0
1848 20 29.89423874762412 26.967885267398557 0.02001308815152825 0 0 0