LAMMPS data file via write_data, version 29 Aug 2024, timestep = 2, units = metal

6072 atoms
24 atom types

0 104.06 xlo xhi
0 100.28 ylo yhi
-50 119.61855879172985 zlo zhi

Masses

1 121.76
2 121.76
3 121.76
4 121.76
5 121.76
6 121.76
7 121.76
8 121.76
9 121.76
10 121.76
11 121.76
12 121.76
13 121.76
14 121.76
15 121.76
16 121.76
17 121.76
18 121.76
19 121.76
20 121.76
21 121.76
22 121.76
23 121.76
24 121.76

Atoms # atomic

1017 1 4.72980238668156 0 0.004095968960388638 0 0 0
1104 8 2.779626027465834 2.1799999999999993 0.3750454051279769 0 0 0
1105 1 4.729802386681562 4.359999999999999 0.004095968960388776 0 0 0
1108 4 7.509626027465837 2.1799999999999997 0.3750454051279765 0 0 0
1021 5 9.459802386681563 0 0.0040959689603896395 0 0 0
1109 5 9.459802386681565 4.359999999999999 0.004095968960389703 0 0 0
1112 8 12.239626027465837 2.1799999999999993 0.37504540512797724 0 0 0
1025 1 14.189802386681565 0 0.004095968960389213 0 0 0
1116 4 16.969626027465836 2.1799999999999993 0.37504540512797785 0 0 0
1113 1 14.189802386681567 4.359999999999999 0.0040959689603895354 0 0 0
1029 5 18.91980238668156 0 0.004095968960388914 0 0 0
1120 8 21.699626027465836 2.1799999999999993 0.3750454051279761 0 0 0
1117 5 18.919802386681564 4.359999999999999 0.0040959689603887834 0 0 0
1033 1 23.649802386681564 0 0.004095968960389768 0 0 0
1037 5 28.37980238668156 0 0.004095968960389244 0 0 0
1124 4 26.429626027465837 2.1799999999999993 0.3750454051279774 0 0 0
1121 1 23.649802386681564 4.359999999999999 0.004095968960389565 0 0 0
1125 5 28.379802386681565 4.359999999999999 0.00409596896038909 0 0 0
1128 8 31.159626027465837 2.1799999999999993 0.37504540512797735 0 0 0
1041 1 33.109802386681565 0 0.004095968960388654 0 0 0
1129 1 33.109802386681565 4.359999999999999 0.004095968960388924 0 0 0
1132 4 35.88962602746584 2.1799999999999993 0.37504540512797674 0 0 0
1045 5 37.83980238668156 0 0.004095968960390828 0 0 0
1133 5 37.83980238668156 4.359999999999999 0.00409596896039042 0 0 0
1136 8 40.619626027465834 2.1799999999999993 0.3750454051279761 0 0 0
1049 1 42.569802386681566 0 0.00409596896038884 0 0 0
1140 4 45.34962602746584 2.1799999999999993 0.37504540512797657 0 0 0
1137 1 42.569802386681566 4.359999999999999 0.004095968960388831 0 0 0
1053 5 47.29980238668156 0 0.004095968960389508 0 0 0
1144 8 50.079626027465835 2.1799999999999993 0.37504540512797785 0 0 0
1141 5 47.29980238668156 4.359999999999999 0.0040959689603895216 0 0 0
969 1 52.02980238668157 0 0.004095968960389014 -1 0 0
1057 1 52.02980238668157 4.359999999999999 0.004095968960388692 -1 0 0
973 5 56.75980238668157 0 0.0040959689603897315 -1 0 0
1060 4 54.80962602746584 2.1799999999999993 0.3750454051279763 -1 0 0
1061 5 56.75980238668157 4.359999999999999 0.004095968960389568 -1 0 0
1064 8 59.539626027465836 2.1799999999999993 0.3750454051279775 -1 0 0
977 1 61.48980238668157 0 0.004095968960389626 -1 0 0
1065 1 61.48980238668157 4.359999999999999 0.004095968960389399 -1 0 0
1068 4 64.26962602746585 2.1799999999999993 0.37504540512797646 -1 0 0
981 5 66.21980238668156 0 0.004095968960391034 -1 0 0
1072 8 68.99962602746584 2.1799999999999993 0.3750454051279775 -1 0 0
1069 5 66.21980238668156 4.359999999999999 0.0040959689603906144 -1 0 0
985 1 70.94980238668155 0 0.004095968960388105 -1 0 0
1076 4 73.72962602746584 2.1799999999999993 0.37504540512797696 -1 0 0
1073 1 70.94980238668157 4.359999999999999 0.0040959689603878606 -1 0 0
989 5 75.67980238668156 0 0.004095968960389041 -1 0 0
993 1 80.40980238668156 0 0.004095968960391702 -1 0 0
1080 8 78.45962602746584 2.1799999999999993 0.3750454051279765 -1 0 0
1077 5 75.67980238668156 4.359999999999999 0.0040959689603888415 -1 0 0
1081 1 80.40980238668156 4.359999999999999 0.004095968960391265 -1 0 0
1084 4 83.18962602746583 2.1799999999999993 0.37504540512797757 -1 0 0
997 5 85.13980238668155 0 0.004095968960387551 -1 0 0
1085 5 85.13980238668157 4.359999999999999 0.004095968960387478 -1 0 0
1088 8 87.91962602746585 2.1799999999999993 0.3750454051279756 -1 0 0
1001 1 89.86980238668157 0 0.004095968960391293 -1 0 0
1089 1 89.86980238668157 4.359999999999999 0.004095968960391125 -1 0 0
1092 4 92.64962602746584 2.1799999999999993 0.3750454051279767 -1 0 0
1005 5 94.59980238668156 0 0.004095968960391038 -1 0 0
1096 8 97.37962602746585 2.1799999999999993 0.37504540512797635 -1 0 0
1093 5 94.59980238668156 4.359999999999999 0.004095968960390836 -1 0 0
1013 5 104.05980238668157 0 0.004095968960391208 -1 0 0
1101 5 104.05980238668157 4.359999999999999 0.004095968960390951 -1 0 0
1009 1 99.32980238668156 0 0.0040959689603881225 -1 0 0
1100 4 102.10962602746585 2.179999999999999 0.37504540512797757 -1 0 0
1097 1 99.32980238668156 4.359999999999999 0.004095968960387702 -1 0 0
1192 8 2.7796260274658344 6.539999999999999 0.37504540512797657 0 0 0
1193 1 4.729802386681562 8.719999999999999 0.004095968960388776 0 0 0
1280 8 2.779626027465834 10.899999999999999 0.37504540512797685 0 0 0
1196 4 7.509626027465837 6.539999999999999 0.37504540512797624 0 0 0
1197 5 9.459802386681565 8.719999999999999 0.004095968960389703 0 0 0
1284 4 7.509626027465837 10.899999999999999 0.3750454051279765 0 0 0
1200 8 12.239626027465837 6.539999999999999 0.37504540512797685 0 0 0
1204 4 16.969626027465836 6.539999999999999 0.3750454051279777 0 0 0
1201 1 14.189802386681567 8.719999999999999 0.0040959689603895354 0 0 0
1288 8 12.239626027465837 10.899999999999999 0.37504540512797724 0 0 0
1292 4 16.969626027465836 10.899999999999999 0.37504540512797785 0 0 0
1208 8 21.699626027465836 6.539999999999999 0.375045405127976 0 0 0
1205 5 18.919802386681564 8.719999999999999 0.0040959689603887834 0 0 0
1296 8 21.699626027465836 10.899999999999999 0.3750454051279761 0 0 0
1212 4 26.429626027465837 6.539999999999999 0.37504540512797735 0 0 0
1209 1 23.649802386681564 8.719999999999999 0.004095968960389562 0 0 0
1213 5 28.379802386681565 8.719999999999999 0.00409596896038909 0 0 0
1300 4 26.429626027465837 10.899999999999999 0.3750454051279774 0 0 0
1216 8 31.159626027465837 6.539999999999999 0.37504540512797696 0 0 0
1217 1 33.109802386681565 8.719999999999999 0.004095968960388923 0 0 0
1304 8 31.159626027465837 10.899999999999999 0.37504540512797735 0 0 0
1220 4 35.88962602746584 6.539999999999999 0.3750454051279767 0 0 0
1221 5 37.83980238668156 8.719999999999999 0.00409596896039042 0 0 0
1308 4 35.88962602746584 10.899999999999999 0.3750454051279767 0 0 0
1224 8 40.619626027465834 6.539999999999999 0.375045405127976 0 0 0
1228 4 45.34962602746584 6.539999999999999 0.3750454051279765 0 0 0
1225 1 42.569802386681566 8.719999999999999 0.004095968960388831 0 0 0
1312 8 40.619626027465834 10.899999999999999 0.3750454051279761 0 0 0
1316 4 45.34962602746584 10.899999999999999 0.3750454051279765 0 0 0
1232 8 50.079626027465835 6.539999999999999 0.3750454051279778 0 0 0
1229 5 47.29980238668156 8.719999999999999 0.0040959689603895216 0 0 0
1320 8 50.079626027465835 10.899999999999999 0.3750454051279778 0 0 0
1145 1 52.02980238668157 8.719999999999999 0.004095968960388692 -1 0 0
1148 4 54.80962602746584 6.539999999999999 0.3750454051279764 -1 0 0
1149 5 56.75980238668157 8.719999999999999 0.004095968960389567 -1 0 0
1236 4 54.80962602746584 10.899999999999999 0.3750454051279763 -1 0 0
1152 8 59.539626027465836 6.539999999999999 0.37504540512797746 -1 0 0
1153 1 61.48980238668157 8.719999999999999 0.004095968960389393 -1 0 0
1240 8 59.539626027465836 10.899999999999999 0.37504540512797746 -1 0 0
1156 4 64.26962602746585 6.539999999999999 0.3750454051279764 -1 0 0
1160 8 68.99962602746584 6.539999999999999 0.37504540512797746 -1 0 0
1157 5 66.21980238668156 8.719999999999999 0.004095968960390614 -1 0 0
1244 4 64.26962602746585 10.899999999999999 0.3750454051279764 -1 0 0
1248 8 68.99962602746584 10.899999999999999 0.3750454051279775 -1 0 0
1164 4 73.72962602746584 6.539999999999999 0.37504540512797696 -1 0 0
1161 1 70.94980238668157 8.719999999999999 0.00409596896038786 -1 0 0
1252 4 73.72962602746584 10.899999999999999 0.37504540512797696 -1 0 0
1168 8 78.45962602746584 6.539999999999999 0.3750454051279765 -1 0 0
1165 5 75.67980238668156 8.719999999999999 0.0040959689603888415 -1 0 0
1169 1 80.40980238668156 8.719999999999999 0.004095968960391265 -1 0 0
1256 8 78.45962602746584 10.899999999999999 0.3750454051279765 -1 0 0
1172 4 83.18962602746583 6.539999999999999 0.37504540512797746 -1 0 0
1173 5 85.13980238668157 8.719999999999999 0.004095968960387478 -1 0 0
1260 4 83.18962602746583 10.899999999999999 0.3750454051279775 -1 0 0
1176 8 87.91962602746585 6.539999999999999 0.3750454051279755 -1 0 0
1177 1 89.86980238668157 8.719999999999999 0.004095968960391125 -1 0 0
1264 8 87.91962602746585 10.899999999999999 0.3750454051279755 -1 0 0
1180 4 92.64962602746584 6.539999999999999 0.3750454051279766 -1 0 0
1184 8 97.37962602746585 6.539999999999999 0.37504540512797635 -1 0 0
1181 5 94.59980238668156 8.719999999999999 0.004095968960390834 -1 0 0
1268 4 92.64962602746584 10.899999999999999 0.3750454051279766 -1 0 0
1272 8 97.37962602746585 10.899999999999999 0.37504540512797635 -1 0 0
1189 5 104.05980238668157 8.719999999999999 0.004095968960390949 -1 0 0
1188 4 102.10962602746585 6.539999999999999 0.37504540512797757 -1 0 0
1185 1 99.32980238668156 8.719999999999999 0.004095968960387702 -1 0 0
1276 4 102.10962602746585 10.899999999999999 0.37504540512797757 -1 0 0
1281 1 4.729802386681561 13.08 0.004095968960388578 0 0 0
1368 8 2.779626027465834 15.260000000000002 0.3750454051279769 0 0 0
1369 1 4.729802386681562 17.44 0.004095968960388713 0 0 0
1285 5 9.459802386681565 13.08 0.004095968960389525 0 0 0
1372 4 7.509626027465837 15.260000000000002 0.3750454051279765 0 0 0
1373 5 9.459802386681565 17.44 0.0040959689603897245 0 0 0
1289 1 14.189802386681565 13.08 0.004095968960389156 0 0 0
1376 8 12.239626027465837 15.260000000000002 0.3750454051279771 0 0 0
1380 4 16.969626027465836 15.260000000000002 0.37504540512797785 0 0 0
1377 1 14.189802386681567 17.44 0.004095968960389556 0 0 0
1293 5 18.919802386681564 13.08 0.004095968960388862 0 0 0
1384 8 21.699626027465836 15.260000000000002 0.3750454051279761 0 0 0
1381 5 18.919802386681564 17.44 0.004095968960388766 0 0 0
1297 1 23.649802386681564 13.08 0.0040959689603897054 0 0 0
1301 5 28.379802386681565 13.08 0.004095968960389185 0 0 0
1388 4 26.429626027465837 15.260000000000002 0.3750454051279774 0 0 0
1385 1 23.649802386681564 17.44 0.0040959689603895545 0 0 0
1389 5 28.379802386681565 17.44 0.0040959689603890905 0 0 0
1305 1 33.109802386681565 13.08 0.004095968960388583 0 0 0
1392 8 31.159626027465837 15.260000000000002 0.37504540512797735 0 0 0
1393 1 33.109802386681565 17.44 0.004095968960388937 0 0 0
1309 5 37.83980238668156 13.08 0.0040959689603907905 0 0 0
1396 4 35.88962602746584 15.260000000000002 0.37504540512797674 0 0 0
1397 5 37.83980238668156 17.44 0.0040959689603904175 0 0 0
1313 1 42.569802386681566 13.08 0.0040959689603888 0 0 0
1400 8 40.619626027465834 15.260000000000002 0.375045405127976 0 0 0
1404 4 45.34962602746584 15.260000000000002 0.3750454051279765 0 0 0
1401 1 42.569802386681566 17.44 0.004095968960388844 0 0 0
1317 5 47.29980238668156 13.08 0.004095968960389457 0 0 0
1408 8 50.079626027465835 15.260000000000002 0.3750454051279778 0 0 0
1405 5 47.29980238668156 17.44 0.0040959689603895285 0 0 0
1233 1 52.02980238668157 13.08 0.004095968960388865 -1 0 0
1321 1 52.02980238668157 17.44 0.004095968960388696 -1 0 0
1237 5 56.75980238668157 13.08 0.004095968960389702 -1 0 0
1324 4 54.80962602746584 15.260000000000002 0.3750454051279763 -1 0 0
1325 5 56.75980238668157 17.44 0.004095968960389575 -1 0 0
1241 1 61.48980238668157 13.08 0.004095968960389554 -1 0 0
1328 8 59.539626027465836 15.260000000000002 0.37504540512797746 -1 0 0
1329 1 61.48980238668157 17.44 0.004095968960389416 -1 0 0
1245 5 66.21980238668156 13.08 0.004095968960390991 -1 0 0
1332 4 64.26962602746585 15.260000000000002 0.3750454051279764 -1 0 0
1336 8 68.99962602746584 15.260000000000002 0.37504540512797746 -1 0 0
1333 5 66.21980238668156 17.44 0.004095968960390598 -1 0 0
1249 1 70.94980238668155 13.08 0.004095968960388011 -1 0 0
1340 4 73.72962602746584 15.260000000000002 0.37504540512797696 -1 0 0
1337 1 70.94980238668157 17.44 0.004095968960387874 -1 0 0
1253 5 75.67980238668156 13.08 0.004095968960389004 -1 0 0
1257 1 80.40980238668156 13.08 0.004095968960391647 -1 0 0
1344 8 78.45962602746584 15.260000000000002 0.3750454051279765 -1 0 0
1341 5 75.67980238668156 17.44 0.0040959689603888485 -1 0 0
1345 1 80.40980238668156 17.44 0.0040959689603912676 -1 0 0
1261 5 85.13980238668155 13.08 0.004095968960387454 -1 0 0
1348 4 83.18962602746583 15.260000000000002 0.3750454051279775 -1 0 0
1349 5 85.13980238668157 17.44 0.004095968960387498 -1 0 0
1265 1 89.86980238668157 13.08 0.00409596896039126 -1 0 0
1352 8 87.91962602746585 15.260000000000002 0.3750454051279755 -1 0 0
1353 1 89.86980238668157 17.44 0.004095968960391108 -1 0 0
1269 5 94.59980238668156 13.08 0.004095968960391013 -1 0 0
1356 4 92.64962602746584 15.260000000000002 0.3750454051279767 -1 0 0
1360 8 97.37962602746585 15.260000000000002 0.37504540512797635 -1 0 0
1357 5 94.59980238668156 17.44 0.004095968960390821 -1 0 0
1277 5 104.05980238668157 13.08 0.0040959689603911695 -1 0 0
1365 5 104.05980238668157 17.44 0.004095968960390934 -1 0 0
1273 1 99.32980238668156 13.08 0.004095968960388073 -1 0 0
1364 4 102.10962602746585 15.26 0.37504540512797757 -1 0 0
1361 1 99.32980238668156 17.44 0.004095968960387709 -1 0 0
1456 8 2.7796260274658344 19.62 0.3750454051279766 0 0 0
1457 1 4.729802386681562 21.8 0.004095968960388746 0 0 0
1460 4 7.509626027465837 19.62 0.37504540512797624 0 0 0
1461 5 9.459802386681565 21.8 0.004095968960389738 0 0 0
1464 8 12.239626027465837 19.62 0.37504540512797685 0 0 0
1468 4 16.969626027465836 19.62 0.3750454051279777 0 0 0
1465 1 14.189802386681567 21.8 0.004095968960389565 0 0 0
1472 8 21.699626027465836 19.62 0.375045405127976 0 0 0
1469 5 18.919802386681564 21.8 0.004095968960388772 0 0 0
1476 4 26.429626027465837 19.62 0.37504540512797735 0 0 0
1473 1 23.649802386681564 21.8 0.004095968960389555 0 0 0
1477 5 28.379802386681565 21.8 0.004095968960389084 0 0 0
1480 8 31.159626027465837 19.62 0.3750454051279769 0 0 0
1481 1 33.109802386681565 21.8 0.004095968960388932 0 0 0
1484 4 35.88962602746584 19.62 0.3750454051279767 0 0 0
1485 5 37.83980238668156 21.8 0.0040959689603904115 0 0 0
1488 8 40.619626027465834 19.62 0.375045405127976 0 0 0
1492 4 45.34962602746584 19.62 0.37504540512797646 0 0 0
1489 1 42.569802386681566 21.8 0.004095968960388851 0 0 0
1496 8 50.079626027465835 19.62 0.3750454051279778 0 0 0
1493 5 47.29980238668156 21.8 0.00409596896038953 0 0 0
1409 1 52.02980238668157 21.8 0.004095968960388703 -1 0 0
1412 4 54.80962602746584 19.62 0.3750454051279764 -1 0 0
1413 5 56.75980238668157 21.8 0.004095968960389582 -1 0 0
1416 8 59.539626027465836 19.62 0.37504540512797746 -1 0 0
1417 1 61.48980238668157 21.8 0.004095968960389422 -1 0 0
1420 4 64.26962602746585 19.62 0.3750454051279764 -1 0 0
1424 8 68.99962602746584 19.62 0.37504540512797746 -1 0 0
1421 5 66.21980238668156 21.8 0.004095968960390597 -1 0 0
1428 4 73.72962602746584 19.62 0.3750454051279769 -1 0 0
1425 1 70.94980238668157 21.8 0.0040959689603878805 -1 0 0
1432 8 78.45962602746584 19.62 0.3750454051279765 -1 0 0
1429 5 75.67980238668156 21.8 0.0040959689603888355 -1 0 0
1433 1 80.40980238668156 21.8 0.004095968960391255 -1 0 0
1436 4 83.18962602746583 19.62 0.37504540512797746 -1 0 0
1437 5 85.13980238668157 21.8 0.004095968960387504 -1 0 0
1440 8 87.91962602746585 19.62 0.3750454051279755 -1 0 0
1441 1 89.86980238668157 21.8 0.004095968960391114 -1 0 0
1444 4 92.64962602746584 19.62 0.3750454051279766 -1 0 0
1448 8 97.37962602746585 19.62 0.37504540512797635 -1 0 0
1445 5 94.59980238668156 21.8 0.004095968960390828 -1 0 0
1453 5 104.05980238668157 21.8 0.004095968960390939 -1 0 0
1452 4 102.10962602746585 19.62 0.37504540512797746 -1 0 0
1449 1 99.32980238668156 21.8 0.004095968960387697 -1 0 0
1544 8 2.7796260274658344 23.98 0.3750454051279766 0 0 0
1545 1 4.729802386681562 26.16 0.004095968960388746 0 0 0
1632 8 2.779626027465834 28.34 0.3750454051279766 0 0 0
1548 4 7.509626027465837 23.98 0.37504540512797624 0 0 0
1549 5 9.459802386681565 26.16 0.004095968960389738 0 0 0
1636 4 7.509626027465837 28.34 0.3750454051279763 0 0 0
1552 8 12.239626027465837 23.98 0.37504540512797685 0 0 0
1553 1 14.189802386681567 26.16 0.004095968960389564 0 0 0
1556 4 16.969626027465836 23.98 0.3750454051279777 0 0 0
1640 8 12.239626027465837 28.34 0.37504540512797685 0 0 0
1644 4 16.969626027465836 28.34 0.3750454051279777 0 0 0
1557 5 18.919802386681564 26.16 0.004095968960388772 0 0 0
1560 8 21.699626027465836 23.98 0.375045405127976 0 0 0
1648 8 21.699626027465836 28.34 0.375045405127976 0 0 0
1561 1 23.649802386681564 26.16 0.0040959689603895545 0 0 0
1564 4 26.429626027465837 23.98 0.37504540512797735 0 0 0
1565 5 28.379802386681565 26.16 0.004095968960389084 0 0 0
1652 4 26.429626027465837 28.34 0.37504540512797735 0 0 0
1568 8 31.159626027465837 23.98 0.3750454051279769 0 0 0
1569 1 33.109802386681565 26.16 0.004095968960388932 0 0 0
1656 8 31.159626027465837 28.34 0.37504540512797696 0 0 0
1572 4 35.88962602746584 23.98 0.3750454051279767 0 0 0
1573 5 37.83980238668156 26.16 0.0040959689603904115 0 0 0
1660 4 35.88962602746584 28.34 0.37504540512797674 0 0 0
1576 8 40.619626027465834 23.98 0.375045405127976 0 0 0
1577 1 42.569802386681566 26.16 0.004095968960388851 0 0 0
1580 4 45.34962602746584 23.98 0.37504540512797646 0 0 0
1664 8 40.619626027465834 28.34 0.375045405127976 0 0 0
1668 4 45.34962602746584 28.34 0.37504540512797646 0 0 0
1581 5 47.29980238668156 26.16 0.00409596896038953 0 0 0
1584 8 50.079626027465835 23.98 0.3750454051279778 0 0 0
1672 8 50.079626027465835 28.34 0.3750454051279778 0 0 0
1497 1 52.02980238668157 26.16 0.004095968960388702 -1 0 0
1500 4 54.80962602746584 23.98 0.3750454051279764 -1 0 0
1501 5 56.75980238668157 26.16 0.004095968960389582 -1 0 0
1588 4 54.80962602746584 28.34 0.3750454051279764 -1 0 0
1504 8 59.539626027465836 23.98 0.37504540512797746 -1 0 0
1505 1 61.48980238668157 26.16 0.004095968960389422 -1 0 0
1592 8 59.539626027465836 28.34 0.37504540512797746 -1 0 0
1508 4 64.26962602746585 23.98 0.3750454051279764 -1 0 0
1509 5 66.21980238668156 26.16 0.004095968960390604 -1 0 0
1512 8 68.99962602746584 23.98 0.37504540512797746 -1 0 0
1596 4 64.26962602746585 28.34 0.37504540512797646 -1 0 0
1600 8 68.99962602746584 28.34 0.37504540512797746 -1 0 0
1513 1 70.94980238668157 26.16 0.0040959689603878805 -1 0 0
1516 4 73.72962602746584 23.98 0.3750454051279769 -1 0 0
1604 4 73.72962602746584 28.34 0.37504540512797696 -1 0 0
1517 5 75.67980238668156 26.16 0.004095968960388835 -1 0 0
1520 8 78.45962602746584 23.98 0.3750454051279765 -1 0 0
1521 1 80.40980238668156 26.16 0.0040959689603912545 -1 0 0
1608 8 78.45962602746584 28.34 0.3750454051279765 -1 0 0
1524 4 83.18962602746583 23.98 0.37504540512797746 -1 0 0
1525 5 85.13980238668157 26.16 0.004095968960387504 -1 0 0
1612 4 83.18962602746583 28.34 0.3750454051279775 -1 0 0
1528 8 87.91962602746585 23.98 0.3750454051279755 -1 0 0
1529 1 89.86980238668157 26.16 0.004095968960391114 -1 0 0
1616 8 87.91962602746584 28.34 0.3750454051279755 -1 0 0
1532 4 92.64962602746584 23.98 0.3750454051279766 -1 0 0
1533 5 94.59980238668156 26.16 0.004095968960390828 -1 0 0
1536 8 97.37962602746585 23.98 0.37504540512797635 -1 0 0
1620 4 92.64962602746584 28.34 0.3750454051279766 -1 0 0
1624 8 97.37962602746585 28.34 0.37504540512797635 -1 0 0
1541 5 104.05980238668157 26.16 0.004095968960390938 -1 0 0
1537 1 99.32980238668156 26.16 0.004095968960387698 -1 0 0
1540 4 102.10962602746585 23.98 0.37504540512797746 -1 0 0
1628 4 102.10962602746585 28.34 0.37504540512797746 -1 0 0
1633 1 4.729802386681562 30.52 0.004095968960388802 0 0 0
1720 8 2.7796260274658335 32.7 0.37504540512797674 0 0 0
1721 1 4.729802386681562 34.879999999999995 0.004095968960388742 0 0 0
1637 5 9.459802386681565 30.52 0.00409596896038982 0 0 0
1724 4 7.509626027465837 32.7 0.3750454051279763 0 0 0
1725 5 9.459802386681565 34.879999999999995 0.004095968960389761 0 0 0
1641 1 14.189802386681567 30.52 0.0040959689603896465 0 0 0
1728 8 12.239626027465837 32.7 0.3750454051279769 0 0 0
1732 4 16.969626027465836 32.7 0.37504540512797774 0 0 0
1729 1 14.189802386681567 34.879999999999995 0.004095968960389591 0 0 0
1645 5 18.91980238668156 30.52 0.004095968960388845 0 0 0
1736 8 21.699626027465836 32.7 0.37504540512797613 0 0 0
1733 5 18.919802386681564 34.879999999999995 0.00409596896038877 0 0 0
1649 1 23.649802386681564 30.52 0.004095968960389627 0 0 0
1653 5 28.379802386681565 30.52 0.0040959689603891365 0 0 0
1740 4 26.429626027465833 32.7 0.37504540512797746 0 0 0
1737 1 23.649802386681564 34.879999999999995 0.0040959689603895545 0 0 0
1741 5 28.379802386681565 34.879999999999995 0.004095968960389057 0 0 0
1657 1 33.109802386681565 30.52 0.004095968960388992 0 0 0
1744 8 31.159626027465837 32.7 0.375045405127977 0 0 0
1745 1 33.109802386681565 34.879999999999995 0.004095968960388923 0 0 0
1661 5 37.83980238668156 30.52 0.004095968960390497 0 0 0
1748 4 35.88962602746584 32.7 0.37504540512797674 0 0 0
1749 5 37.83980238668156 34.879999999999995 0.004095968960390434 0 0 0
1665 1 42.569802386681566 30.52 0.004095968960388921 0 0 0
1752 8 40.619626027465834 32.7 0.37504540512797613 0 0 0
1756 4 45.34962602746584 32.7 0.37504540512797657 0 0 0
1753 1 42.569802386681566 34.879999999999995 0.004095968960388851 0 0 0
1669 5 47.29980238668156 30.52 0.004095968960389589 0 0 0
1760 8 50.079626027465835 32.7 0.37504540512797785 0 0 0
1757 5 47.29980238668156 34.879999999999995 0.004095968960389507 0 0 0
1585 1 52.02980238668157 30.52 0.004095968960388779 -1 0 0
1673 1 52.02980238668157 34.879999999999995 0.004095968960388724 -1 0 0
1589 5 56.75980238668157 30.52 0.004095968960389638 -1 0 0
1676 4 54.80962602746584 32.7 0.3750454051279765 -1 0 0
1677 5 56.75980238668157 34.879999999999995 0.00409596896038955 -1 0 0
1593 1 61.48980238668157 30.52 0.004095968960389494 -1 0 0
1680 8 59.539626027465836 32.7 0.37504540512797757 -1 0 0
1681 1 61.48980238668157 34.879999999999995 0.004095968960389413 -1 0 0
1597 5 66.21980238668156 30.52 0.004095968960390684 -1 0 0
1684 4 64.26962602746585 32.7 0.37504540512797646 -1 0 0
1688 8 68.99962602746584 32.7 0.3750454051279775 -1 0 0
1685 5 66.21980238668156 34.879999999999995 0.00409596896039062 -1 0 0
1601 1 70.94980238668155 30.52 0.004095968960387952 -1 0 0
1692 4 73.72962602746584 32.7 0.375045405127977 -1 0 0
1689 1 70.94980238668157 34.879999999999995 0.004095968960387883 -1 0 0
1605 5 75.67980238668156 30.52 0.004095968960388887 -1 0 0
1609 1 80.40980238668156 30.52 0.004095968960391334 -1 0 0
1696 8 78.45962602746583 32.7 0.37504540512797657 -1 0 0
1693 5 75.67980238668156 34.879999999999995 0.004095968960388828 -1 0 0
1697 1 80.40980238668156 34.879999999999995 0.004095968960391277 -1 0 0
1613 5 85.13980238668155 30.52 0.004095968960387577 -1 0 0
1700 4 83.18962602746583 32.7 0.37504540512797757 -1 0 0
1701 5 85.13980238668157 34.879999999999995 0.004095968960387511 -1 0 0
1617 1 89.86980238668157 30.52 0.004095968960391164 -1 0 0
1704 8 87.91962602746584 32.7 0.37504540512797563 -1 0 0
1705 1 89.86980238668157 34.879999999999995 0.004095968960391108 -1 0 0
1621 5 94.59980238668156 30.52 0.004095968960390886 -1 0 0
1708 4 92.64962602746583 32.7 0.3750454051279767 -1 0 0
1712 8 97.37962602746585 32.7 0.3750454051279764 -1 0 0
1709 5 94.59980238668156 34.879999999999995 0.004095968960390839 -1 0 0
1629 5 104.05980238668157 30.52 0.004095968960390996 -1 0 0
1717 5 104.05980238668157 34.879999999999995 0.004095968960390937 -1 0 0
1625 1 99.32980238668156 30.52 0.004095968960387768 -1 0 0
1716 4 102.10962602746584 32.7 0.3750454051279775 -1 0 0
1713 1 99.32980238668156 34.879999999999995 0.004095968960387724 -1 0 0
1808 8 2.7796260274658344 37.06 0.3750454051279766 0 0 0
1809 1 4.729802386681562 39.239999999999995 0.004095968960388728 0 0 0
1812 4 7.509626027465837 37.06 0.37504540512797624 0 0 0
1813 5 9.459802386681565 39.239999999999995 0.004095968960389746 0 0 0
1816 8 12.239626027465837 37.06 0.37504540512797685 0 0 0
1817 1 14.189802386681567 39.239999999999995 0.004095968960389577 0 0 0
1820 4 16.969626027465836 37.06 0.3750454051279777 0 0 0
1821 5 18.919802386681564 39.239999999999995 0.0040959689603887565 0 0 0
1824 8 21.699626027465836 37.06 0.3750454051279761 0 0 0
1825 1 23.649802386681564 39.239999999999995 0.004095968960389541 0 0 0
1828 4 26.429626027465833 37.06 0.37504540512797735 0 0 0
1829 5 28.379802386681565 39.239999999999995 0.004095968960389042 0 0 0
1832 8 31.159626027465837 37.059999999999995 0.37504540512797696 0 0 0
1833 1 33.109802386681565 39.239999999999995 0.00409596896038891 0 0 0
1836 4 35.88962602746584 37.06 0.3750454051279767 0 0 0
1837 5 37.83980238668156 39.239999999999995 0.00409596896039042 0 0 0
1840 8 40.619626027465834 37.06 0.375045405127976 0 0 0
1841 1 42.569802386681566 39.239999999999995 0.004095968960388837 0 0 0
1844 4 45.34962602746584 37.06 0.3750454051279765 0 0 0
1845 5 47.29980238668156 39.239999999999995 0.004095968960389493 0 0 0
1848 8 50.079626027465835 37.06 0.3750454051279778 0 0 0
1761 1 52.02980238668157 39.239999999999995 0.00409596896038871 -1 0 0
1764 4 54.80962602746584 37.06 0.37504540512797646 -1 0 0
1765 5 56.75980238668157 39.239999999999995 0.004095968960389536 -1 0 0
1768 8 59.539626027465836 37.06 0.3750454051279775 -1 0 0
1769 1 61.48980238668157 39.239999999999995 0.004095968960389399 -1 0 0
1772 4 64.26962602746585 37.06 0.37504540512797635 -1 0 0
1773 5 66.21980238668156 39.239999999999995 0.004095968960390606 -1 0 0
1776 8 68.99962602746584 37.06 0.37504540512797746 -1 0 0
1777 1 70.94980238668157 39.239999999999995 0.004095968960387869 -1 0 0
1780 4 73.72962602746584 37.06 0.37504540512797696 -1 0 0
1781 5 75.67980238668156 39.239999999999995 0.004095968960388815 -1 0 0
1784 8 78.45962602746584 37.06 0.3750454051279765 -1 0 0
1785 1 80.40980238668156 39.239999999999995 0.004095968960391263 -1 0 0
1788 4 83.18962602746583 37.06 0.3750454051279775 -1 0 0
1789 5 85.13980238668157 39.239999999999995 0.004095968960387497 -1 0 0
1792 8 87.91962602746585 37.06 0.3750454051279755 -1 0 0
1793 1 89.86980238668157 39.239999999999995 0.004095968960391094 -1 0 0
1796 4 92.64962602746584 37.06 0.3750454051279766 -1 0 0
1797 5 94.59980238668156 39.239999999999995 0.004095968960390825 -1 0 0
1800 8 97.37962602746585 37.06 0.3750454051279763 -1 0 0
1805 5 104.05980238668157 39.239999999999995 0.004095968960390922 -1 0 0
1801 1 99.32980238668156 39.239999999999995 0.0040959689603877105 -1 0 0
1804 4 102.10962602746584 37.059999999999995 0.37504540512797746 -1 0 0
1896 8 2.7796260274658344 41.42 0.3750454051279766 0 0 0
1897 1 4.729802386681562 43.599999999999994 0.004095968960388728 0 0 0
1984 8 2.779626027465834 45.78 0.3750454051279766 0 0 0
1900 4 7.509626027465837 41.42 0.37504540512797624 0 0 0
1901 5 9.459802386681565 43.599999999999994 0.004095968960389747 0 0 0
1988 4 7.509626027465837 45.78 0.37504540512797624 0 0 0
1904 8 12.239626027465837 41.42 0.37504540512797685 0 0 0
1908 4 16.969626027465836 41.42 0.3750454051279777 0 0 0
1905 1 14.189802386681567 43.599999999999994 0.004095968960389577 0 0 0
1992 8 12.239626027465837 45.78 0.3750454051279768 0 0 0
1996 4 16.969626027465836 45.78 0.37504540512797735 0 0 0
1912 8 21.699626027465836 41.42 0.3750454051279761 0 0 0
1909 5 18.919802386681564 43.599999999999994 0.004095968960388771 0 0 0
2000 8 21.69962602746584 45.78 0.37504540512797574 0 0 0
1916 4 26.429626027465833 41.42 0.37504540512797735 0 0 0
1913 1 23.649802386681564 43.599999999999994 0.0040959689603895545 0 0 0
1917 5 28.379802386681565 43.599999999999994 0.004095968960389043 0 0 0
2004 4 26.429626027465833 45.78 0.37504540512797735 0 0 0
1920 8 31.159626027465837 41.419999999999995 0.37504540512797696 0 0 0
1921 1 33.109802386681565 43.599999999999994 0.00409596896038891 0 0 0
2008 8 31.159626027465837 45.779999999999994 0.37504540512797696 0 0 0
1924 4 35.88962602746584 41.42 0.3750454051279767 0 0 0
1925 5 37.83980238668156 43.599999999999994 0.00409596896039042 0 0 0
2012 4 35.88962602746584 45.78 0.3750454051279767 0 0 0
1928 8 40.619626027465834 41.42 0.375045405127976 0 0 0
1932 4 45.34962602746584 41.42 0.3750454051279765 0 0 0
1929 1 42.569802386681566 43.599999999999994 0.004095968960388837 0 0 0
2016 8 40.619626027465834 45.78 0.375045405127976 0 0 0
2020 4 45.34962602746584 45.78 0.3750454051279765 0 0 0
1936 8 50.079626027465835 41.42 0.3750454051279778 0 0 0
1933 5 47.29980238668156 43.599999999999994 0.004095968960389493 0 0 0
2024 8 50.079626027465835 45.78 0.3750454051279778 0 0 0
1849 1 52.02980238668157 43.599999999999994 0.00409596896038871 -1 0 0
1852 4 54.80962602746584 41.42 0.37504540512797646 -1 0 0
1853 5 56.75980238668157 43.599999999999994 0.004095968960389536 -1 0 0
1940 4 54.80962602746584 45.78 0.37504540512797646 -1 0 0
1856 8 59.539626027465836 41.42 0.3750454051279775 -1 0 0
1857 1 61.48980238668157 43.599999999999994 0.004095968960389398 -1 0 0
1944 8 59.539626027465836 45.78 0.3750454051279775 -1 0 0
1860 4 64.26962602746585 41.42 0.37504540512797635 -1 0 0
1864 8 68.99962602746584 41.42 0.37504540512797746 -1 0 0
1861 5 66.21980238668156 43.599999999999994 0.004095968960390613 -1 0 0
1948 4 64.26962602746585 45.78 0.3750454051279764 -1 0 0
1952 8 68.99962602746584 45.78 0.37504540512797746 -1 0 0
1868 4 73.72962602746584 41.42 0.37504540512797696 -1 0 0
1865 1 70.94980238668157 43.599999999999994 0.004095968960387869 -1 0 0
1956 4 73.72962602746584 45.78 0.37504540512797696 -1 0 0
1872 8 78.45962602746584 41.42 0.3750454051279765 -1 0 0
1869 5 75.67980238668156 43.599999999999994 0.004095968960388815 -1 0 0
1873 1 80.40980238668156 43.599999999999994 0.004095968960391263 -1 0 0