LAMMPS data file via write_data, version 29 Aug 2024, timestep = 2, units = metal

4048 atoms
16 atom types

0 104.06 xlo xhi
0 100.28 ylo yhi
-50 112.58677939586494 zlo zhi

Masses

1 121.76
2 121.76
3 121.76
4 121.76
5 121.76
6 121.76
7 121.76
8 121.76
9 121.76
10 121.76
11 121.76
12 121.76
13 121.76
14 121.76
15 121.76
16 121.76

Atoms # atomic

1017 1 4.729756137771678 0 0.004406565216132515 0 0 0
1104 8 2.7795186571630865 2.1799999999999993 0.374994030466988 0 0 0
1105 1 4.7297561377716795 4.359999999999999 0.004406565216132654 0 0 0
1108 4 7.509518657163089 2.1799999999999993 0.37499403046698776 0 0 0
1021 5 9.45975613777168 0 0.004406565216133163 0 0 0
1109 5 9.459756137771683 4.359999999999999 0.004406565216133246 0 0 0
1112 8 12.23951865716309 2.1799999999999993 0.3749940304669884 0 0 0
1025 1 14.189756137771683 0 0.004406565216133228 0 0 0
1116 4 16.96951865716309 2.18 0.37499403046698865 0 0 0
1113 1 14.189756137771683 4.359999999999999 0.004406565216133001 0 0 0
1029 5 18.919756137771678 0 0.0044065652161326165 0 0 0
1120 8 21.69951865716309 2.18 0.37499403046698704 0 0 0
1117 5 18.91975613777168 4.359999999999999 0.004406565216133034 0 0 0
1033 1 23.649756137771682 0 0.004406565216133482 0 0 0
1037 5 28.37975613777168 0 0.004406565216132828 0 0 0
1124 4 26.42951865716309 2.1799999999999997 0.3749940304669884 0 0 0
1121 1 23.649756137771686 4.359999999999999 0.004406565216134072 0 0 0
1125 5 28.379756137771682 4.359999999999999 0.004406565216133416 0 0 0
1128 8 31.15951865716309 2.1799999999999993 0.3749940304669882 0 0 0
1041 1 33.10975613777168 0 0.0044065652161328584 0 0 0
1129 1 33.10975613777168 4.359999999999999 0.004406565216132958 0 0 0
1132 4 35.88951865716309 2.1799999999999993 0.37499403046698865 0 0 0
1045 5 37.83975613777168 0 0.004406565216133928 0 0 0
1133 5 37.83975613777168 4.359999999999999 0.004406565216133693 0 0 0
1136 8 40.619518657163084 2.1799999999999993 0.3749940304669872 0 0 0
1049 1 42.56975613777168 0 0.004406565216132717 0 0 0
1140 4 45.34951865716309 2.1799999999999993 0.3749940304669886 0 0 0
1137 1 42.56975613777168 4.359999999999999 0.004406565216132482 0 0 0
1053 5 47.29975613777168 0 0.004406565216132731 0 0 0
1144 8 50.07951865716309 2.1799999999999993 0.37499403046698854 0 0 0
1141 5 47.29975613777168 4.359999999999999 0.004406565216132492 0 0 0
969 1 52.029756137771685 0 0.0044065652161329365 -1 0 0
1057 1 52.029756137771685 4.359999999999998 0.004406565216132672 -1 0 0
973 5 56.75975613777169 0 0.004406565216133836 -1 0 0
1060 4 54.809518657163096 2.1799999999999993 0.3749940304669868 -1 0 0
1061 5 56.75975613777169 4.359999999999999 0.0044065652161335575 -1 0 0
1064 8 59.53951865716309 2.1799999999999993 0.3749940304669879 -1 0 0
977 1 61.489756137771685 0 0.004406565216133676 -1 0 0
1065 1 61.489756137771685 4.359999999999999 0.004406565216133388 -1 0 0
1068 4 64.26951865716309 2.1799999999999993 0.37499403046698665 -1 0 0
981 5 66.21975613777168 0 0.004406565216135108 -1 0 0
1072 8 68.9995186571631 2.1799999999999993 0.3749940304669881 -1 0 0
1069 5 66.21975613777168 4.359999999999999 0.004406565216134882 -1 0 0
985 1 70.94975613777169 0 0.004406565216132368 -1 0 0
1076 4 73.72951865716308 2.179999999999999 0.3749940304669878 -1 0 0
1073 1 70.94975613777169 4.359999999999999 0.00440656521613216 -1 0 0
989 5 75.67975613777168 0 0.004406565216132823 -1 0 0
993 1 80.40975613777168 0 0.0044065652161358985 -1 0 0
1080 8 78.45951865716309 2.1799999999999993 0.37499403046698665 -1 0 0
1077 5 75.67975613777168 4.359999999999999 0.0044065652161323875 -1 0 0
1081 1 80.40975613777168 4.359999999999999 0.004406565216135694 -1 0 0
1084 4 83.18951865716309 2.1799999999999993 0.3749940304669881 -1 0 0
997 5 85.13975613777168 0 0.004406565216131709 -1 0 0
1085 5 85.13975613777168 4.359999999999999 0.004406565216131503 -1 0 0
1088 8 87.9195186571631 2.180000000000002 0.37499403046698676 -1 0 0
1001 1 89.86975613777169 0 0.004406565216133481 -1 0 0
1089 1 89.86975613777169 4.359999999999999 0.0044065652161353695 -1 0 0
1092 4 92.64951865716309 2.1799999999999993 0.3749940304669873 -1 0 0
1005 5 94.59975613777168 0 0.004406565216134547 -1 0 0
1096 8 97.37951865716309 2.179999999999999 0.37499403046698715 -1 0 0
1093 5 94.59975613777168 4.359999999999999 0.004406565216134972 -1 0 0
1013 5 104.05975613777169 0 0.004406565216134991 -1 0 0
1101 5 104.05975613777169 4.360000000000001 0.004406565216134686 -1 0 0
1009 1 99.32975613777168 0 0.00440656521613171 -1 0 0
1100 4 102.1095186571631 2.179999999999998 0.3749940304669883 -1 0 0
1097 1 99.32975613777168 4.359999999999999 0.004406565216131295 -1 0 0
1192 8 2.779518657163087 6.539999999999999 0.37499403046698776 0 0 0
1193 1 4.7297561377716795 8.719999999999999 0.004406565216132652 0 0 0
1280 8 2.779518657163087 10.899999999999999 0.374994030466988 0 0 0
1196 4 7.509518657163089 6.539999999999999 0.37499403046698754 0 0 0
1197 5 9.459756137771683 8.719999999999999 0.004406565216133244 0 0 0
1284 4 7.509518657163089 10.899999999999999 0.37499403046698776 0 0 0
1200 8 12.23951865716309 6.539999999999999 0.3749940304669884 0 0 0
1204 4 16.96951865716309 6.539999999999999 0.374994030466988 0 0 0
1201 1 14.189756137771683 8.719999999999999 0.004406565216132998 0 0 0
1288 8 12.23951865716309 10.899999999999999 0.3749940304669884 0 0 0
1292 4 16.96951865716309 10.899999999999999 0.3749940304669886 0 0 0
1208 8 21.699518657163093 6.539999999999999 0.3749940304669864 0 0 0
1205 5 18.91975613777168 8.719999999999999 0.004406565216133032 0 0 0
1296 8 21.69951865716309 10.899999999999999 0.374994030466987 0 0 0
1212 4 26.42951865716309 6.539999999999999 0.3749940304669878 0 0 0
1209 1 23.649756137771686 8.719999999999999 0.00440656521613407 0 0 0
1213 5 28.379756137771682 8.719999999999999 0.004406565216133414 0 0 0
1300 4 26.42951865716309 10.899999999999999 0.37499403046698837 0 0 0
1216 8 31.15951865716309 6.539999999999999 0.3749940304669877 0 0 0
1217 1 33.10975613777168 8.719999999999999 0.0044065652161329565 0 0 0
1304 8 31.15951865716309 10.899999999999999 0.37499403046698815 0 0 0
1220 4 35.88951865716309 6.539999999999999 0.3749940304669884 0 0 0
1221 5 37.83975613777168 8.719999999999999 0.004406565216133692 0 0 0
1308 4 35.88951865716309 10.899999999999999 0.3749940304669886 0 0 0
1224 8 40.619518657163084 6.539999999999999 0.37499403046698715 0 0 0
1228 4 45.34951865716309 6.539999999999999 0.37499403046698854 0 0 0
1225 1 42.56975613777168 8.719999999999999 0.004406565216132481 0 0 0
1312 8 40.619518657163084 10.899999999999999 0.37499403046698715 0 0 0
1316 4 45.34951865716309 10.899999999999999 0.37499403046698854 0 0 0
1232 8 50.07951865716309 6.539999999999999 0.3749940304669884 0 0 0
1229 5 47.29975613777168 8.719999999999999 0.0044065652161324916 0 0 0
1320 8 50.07951865716309 10.899999999999999 0.37499403046698854 0 0 0
1145 1 52.029756137771685 8.72 0.00440656521613267 -1 0 0
1148 4 54.809518657163096 6.539999999999999 0.3749940304669867 -1 0 0
1149 5 56.75975613777169 8.719999999999999 0.004406565216133555 -1 0 0
1236 4 54.809518657163096 10.899999999999999 0.3749940304669867 -1 0 0
1152 8 59.53951865716309 6.539999999999999 0.37499403046698787 -1 0 0
1153 1 61.489756137771685 8.719999999999999 0.004406565216133387 -1 0 0
1240 8 59.53951865716309 10.899999999999999 0.3749940304669879 -1 0 0
1156 4 64.26951865716309 6.539999999999999 0.37499403046698676 -1 0 0
1160 8 68.9995186571631 6.539999999999999 0.37499403046698804 -1 0 0
1157 5 66.21975613777168 8.719999999999999 0.00440656521613488 -1 0 0
1244 4 64.26951865716309 10.899999999999999 0.37499403046698654 -1 0 0
1248 8 68.9995186571631 10.899999999999999 0.37499403046698804 -1 0 0
1164 4 73.72951865716308 6.539999999999999 0.3749940304669877 -1 0 0
1161 1 70.94975613777169 8.719999999999999 0.0044065652161321585 -1 0 0
1252 4 73.72951865716308 10.899999999999999 0.3749940304669877 -1 0 0
1168 8 78.45951865716309 6.539999999999999 0.3749940304669866 -1 0 0
1165 5 75.67975613777168 8.719999999999999 0.004406565216132386 -1 0 0
1169 1 80.40975613777168 8.719999999999999 0.004406565216135692 -1 0 0
1256 8 78.45951865716309 10.899999999999999 0.3749940304669866 -1 0 0
1172 4 83.18951865716309 6.539999999999999 0.37499403046698804 -1 0 0
1173 5 85.13975613777168 8.719999999999999 0.004406565216131501 -1 0 0
1260 4 83.18951865716309 10.899999999999999 0.37499403046698804 -1 0 0
1176 8 87.9195186571631 6.539999999999999 0.3749940304669853 -1 0 0
1177 1 89.86975613777169 8.719999999999999 0.004406565216135368 -1 0 0
1264 8 87.9195186571631 10.899999999999997 0.37499403046698676 -1 0 0
1180 4 92.64951865716309 6.539999999999999 0.3749940304669864 -1 0 0
1184 8 97.37951865716309 6.539999999999999 0.374994030466987 -1 0 0
1181 5 94.59975613777168 8.719999999999999 0.0044065652161349705 -1 0 0
1268 4 92.64951865716309 10.899999999999999 0.37499403046698726 -1 0 0
1272 8 97.37951865716309 10.899999999999999 0.37499403046698704 -1 0 0
1189 5 104.05975613777169 8.72 0.004406565216134684 -1 0 0
1188 4 102.1095186571631 6.539999999999997 0.3749940304669881 -1 0 0
1185 1 99.32975613777168 8.719999999999999 0.004406565216131293 -1 0 0
1276 4 102.1095186571631 10.899999999999997 0.3749940304669883 -1 0 0
1281 1 4.729756137771679 13.08 0.004406565216132476 0 0 0
1368 8 2.779518657163087 15.260000000000002 0.3749940304669879 0 0 0
1369 1 4.7297561377716795 17.44 0.00440656521613269 0 0 0
1285 5 9.45975613777168 13.08 0.004406565216133071 0 0 0
1372 4 7.509518657163089 15.260000000000002 0.37499403046698776 0 0 0
1373 5 9.459756137771683 17.44 0.004406565216133279 0 0 0
1289 1 14.189756137771683 13.08 0.004406565216133198 0 0 0
1376 8 12.23951865716309 15.26 0.3749940304669884 0 0 0
1380 4 16.96951865716309 15.260000000000002 0.3749940304669886 0 0 0
1377 1 14.189756137771683 17.44 0.004406565216133012 0 0 0
1293 5 18.919756137771678 13.08 0.004406565216132598 0 0 0
1384 8 21.69951865716309 15.260000000000002 0.374994030466987 0 0 0
1381 5 18.91975613777168 17.44 0.00440656521613303 0 0 0
1297 1 23.649756137771682 13.08 0.004406565216133484 0 0 0
1301 5 28.37975613777168 13.08 0.004406565216132805 0 0 0
1388 4 26.42951865716309 15.260000000000002 0.37499403046698837 0 0 0
1385 1 23.649756137771686 17.44 0.004406565216134077 0 0 0
1389 5 28.379756137771682 17.44 0.004406565216133411 0 0 0
1305 1 33.10975613777168 13.08 0.004406565216132781 0 0 0
1392 8 31.15951865716309 15.260000000000002 0.37499403046698815 0 0 0
1393 1 33.10975613777168 17.44 0.004406565216132956 0 0 0
1309 5 37.83975613777168 13.08 0.004406565216133872 0 0 0
1396 4 35.88951865716309 15.26 0.3749940304669884 0 0 0
1397 5 37.83975613777168 17.44 0.00440656521613369 0 0 0
1313 1 42.56975613777168 13.08 0.004406565216132681 0 0 0
1400 8 40.619518657163084 15.26 0.37499403046698715 0 0 0
1404 4 45.34951865716309 15.260000000000002 0.37499403046698854 0 0 0
1401 1 42.56975613777168 17.44 0.0044065652161325 0 0 0
1317 5 47.29975613777168 13.08 0.004406565216132656 0 0 0
1408 8 50.07951865716309 15.260000000000002 0.3749940304669885 0 0 0
1405 5 47.29975613777168 17.44 0.004406565216132495 0 0 0
1233 1 52.029756137771685 13.079999999999998 0.004406565216132807 -1 0 0
1321 1 52.029756137771685 17.44 0.004406565216132773 -1 0 0
1237 5 56.75975613777168 13.08 0.004406565216133695 -1 0 0
1324 4 54.809518657163096 15.260000000000002 0.37499403046698676 -1 0 0
1325 5 56.75975613777169 17.44 0.004406565216133643 -1 0 0
1241 1 61.489756137771685 13.079999999999998 0.004406565216133619 -1 0 0
1328 8 59.53951865716309 15.260000000000002 0.374994030466988 -1 0 0
1329 1 61.489756137771685 17.44 0.004406565216133593 -1 0 0
1245 5 66.21975613777168 13.08 0.004406565216135101 -1 0 0
1332 4 64.26951865716309 15.26 0.37499403046698654 -1 0 0
1336 8 68.9995186571631 15.260000000000002 0.37499403046698804 -1 0 0
1333 5 66.21975613777168 17.44 0.004406565216134865 -1 0 0
1249 1 70.94975613777169 13.08 0.004406565216132339 -1 0 0
1340 4 73.72951865716308 15.260000000000002 0.3749940304669877 -1 0 0
1337 1 70.94975613777169 17.44 0.004406565216132178 -1 0 0
1253 5 75.67975613777168 13.08 0.004406565216132548 -1 0 0
1257 1 80.40975613777168 13.08 0.004406565216135892 -1 0 0
1344 8 78.45951865716309 15.26 0.3749940304669864 -1 0 0
1341 5 75.67975613777168 17.44 0.004406565216132375 -1 0 0
1345 1 80.40975613777168 17.44 0.0044065652161356765 -1 0 0
1261 5 85.13975613777168 13.08 0.004406565216131676 -1 0 0
1348 4 83.18951865716309 15.260000000000002 0.37499403046698804 -1 0 0
1349 5 85.13975613777168 17.44 0.004406565216131517 -1 0 0
1265 1 89.86975613777169 13.08 0.004406565216133415 -1 0 0
1352 8 87.9195186571631 15.260000000000003 0.3749940304669869 -1 0 0
1353 1 89.86975613777169 17.44 0.004406565216135365 -1 0 0
1269 5 94.59975613777168 13.08 0.004406565216134532 -1 0 0
1356 4 92.64951865716309 15.26 0.37499403046698726 -1 0 0
1360 8 97.37951865716309 15.260000000000002 0.37499403046698704 -1 0 0
1357 5 94.59975613777168 17.44 0.004406565216134957 -1 0 0
1277 5 104.05975613777169 13.080000000000002 0.004406565216134922 -1 0 0
1365 5 104.05975613777169 17.44 0.004406565216134648 -1 0 0
1273 1 99.32975613777168 13.08 0.004406565216131433 -1 0 0
1364 4 102.1095186571631 15.26 0.3749940304669883 -1 0 0
1361 1 99.32975613777168 17.44 0.004406565216131288 -1 0 0
1456 8 2.779518657163087 19.62 0.37499403046698776 0 0 0
1457 1 4.7297561377716795 21.8 0.004406565216132701 0 0 0
1460 4 7.509518657163089 19.62 0.3749940304669877 0 0 0
1461 5 9.459756137771683 21.8 0.004406565216133309 0 0 0
1464 8 12.23951865716309 19.62 0.37499403046698837 0 0 0
1468 4 16.96951865716309 19.62 0.37499403046698804 0 0 0
1465 1 14.189756137771683 21.8 0.004406565216133019 0 0 0
1472 8 21.699518657163093 19.62 0.3749940304669864 0 0 0
1469 5 18.91975613777168 21.8 0.0044065652161330545 0 0 0
1476 4 26.42951865716309 19.62 0.37499403046698776 0 0 0
1473 1 23.649756137771682 21.8 0.00440656521613408 0 0 0
1477 5 28.379756137771682 21.8 0.004406565216133421 0 0 0
1480 8 31.15951865716309 19.62 0.3749940304669877 0 0 0
1481 1 33.10975613777168 21.8 0.004406565216132963 0 0 0
1484 4 35.88951865716309 19.62 0.3749940304669884 0 0 0
1485 5 37.83975613777168 21.8 0.004406565216133689 0 0 0
1488 8 40.619518657163084 19.62 0.3749940304669871 0 0 0
1492 4 45.34951865716309 19.62 0.37499403046698854 0 0 0
1489 1 42.56975613777168 21.8 0.0044065652161325 0 0 0
1496 8 50.07951865716309 19.62 0.3749940304669885 0 0 0
1493 5 47.29975613777168 21.8 0.004406565216132495 0 0 0
1409 1 52.029756137771685 21.8 0.004406565216132766 -1 0 0
1412 4 54.809518657163096 19.62 0.37499403046698676 -1 0 0
1413 5 56.75975613777169 21.8 0.004406565216133732 -1 0 0
1416 8 59.53951865716309 19.62 0.3749940304669879 -1 0 0
1417 1 61.489756137771685 21.8 0.004406565216133595 -1 0 0
1420 4 64.26951865716309 19.62 0.37499403046698676 -1 0 0
1424 8 68.9995186571631 19.62 0.374994030466988 -1 0 0
1421 5 66.21975613777168 21.8 0.004406565216134872 -1 0 0
1428 4 73.72951865716308 19.62 0.3749940304669877 -1 0 0
1425 1 70.94975613777169 21.8 0.004406565216132179 -1 0 0
1432 8 78.45951865716309 19.62 0.37499403046698665 -1 0 0
1429 5 75.67975613777168 21.8 0.004406565216132383 -1 0 0
1433 1 80.40975613777168 21.8 0.0044065652161356834 -1 0 0
1436 4 83.18951865716309 19.62 0.374994030466988 -1 0 0
1437 5 85.13975613777168 21.8 0.00440656521613152 -1 0 0
1440 8 87.9195186571631 19.62 0.3749940304669853 -1 0 0
1441 1 89.86975613777169 21.8 0.004406565216135424 -1 0 0
1444 4 92.64951865716309 19.62 0.3749940304669865 -1 0 0
1448 8 97.37951865716309 19.62 0.374994030466987 -1 0 0
1445 5 94.59975613777168 21.8 0.004406565216134964 -1 0 0
1453 5 104.05975613777169 21.8 0.004406565216134655 -1 0 0
1452 4 102.1095186571631 19.62 0.37499403046698815 -1 0 0
1449 1 99.32975613777168 21.8 0.004406565216131295 -1 0 0
1544 8 2.779518657163087 23.98 0.37499403046698776 0 0 0
1545 1 4.7297561377716795 26.16 0.0044065652161327 0 0 0
1632 8 2.779518657163087 28.34 0.37499403046698776 0 0 0
1548 4 7.509518657163089 23.98 0.3749940304669877 0 0 0
1549 5 9.459756137771683 26.16 0.004406565216133308 0 0 0
1636 4 7.509518657163089 28.34 0.3749940304669877 0 0 0
1552 8 12.23951865716309 23.98 0.37499403046698837 0 0 0
1553 1 14.189756137771683 26.16 0.004406565216133019 0 0 0
1556 4 16.96951865716309 23.98 0.37499403046698804 0 0 0
1640 8 12.23951865716309 28.34 0.37499403046698837 0 0 0
1644 4 16.96951865716309 28.34 0.37499403046698804 0 0 0
1557 5 18.91975613777168 26.16 0.0044065652161330545 0 0 0
1560 8 21.699518657163093 23.98 0.3749940304669864 0 0 0
1648 8 21.699518657163093 28.34 0.3749940304669864 0 0 0
1561 1 23.649756137771682 26.16 0.004406565216134079 0 0 0
1564 4 26.42951865716309 23.98 0.37499403046698776 0 0 0
1565 5 28.379756137771682 26.16 0.0044065652161334205 0 0 0
1652 4 26.42951865716309 28.34 0.3749940304669878 0 0 0
1568 8 31.15951865716309 23.98 0.3749940304669877 0 0 0
1569 1 33.10975613777168 26.16 0.0044065652161329625 0 0 0
1656 8 31.15951865716309 28.34 0.37499403046698776 0 0 0
1572 4 35.88951865716309 23.98 0.3749940304669884 0 0 0
1573 5 37.83975613777168 26.16 0.0044065652161336885 0 0 0
1660 4 35.88951865716309 28.34 0.3749940304669884 0 0 0
1576 8 40.619518657163084 23.98 0.3749940304669871 0 0 0
1577 1 42.56975613777168 26.16 0.0044065652161325 0 0 0
1580 4 45.34951865716309 23.98 0.37499403046698854 0 0 0
1664 8 40.619518657163084 28.34 0.3749940304669871 0 0 0
1668 4 45.34951865716309 28.34 0.37499403046698854 0 0 0
1581 5 47.29975613777168 26.16 0.004406565216132495 0 0 0
1584 8 50.07951865716309 23.98 0.3749940304669885 0 0 0
1672 8 50.07951865716309 28.34 0.3749940304669885 0 0 0
1497 1 52.029756137771685 26.16 0.004406565216132765 -1 0 0
1500 4 54.809518657163096 23.98 0.3749940304669868 -1 0 0
1501 5 56.75975613777169 26.16 0.004406565216133732 -1 0 0
1588 4 54.809518657163096 28.34 0.3749940304669868 -1 0 0
1504 8 59.53951865716309 23.98 0.3749940304669879 -1 0 0
1505 1 61.489756137771685 26.16 0.004406565216133593 -1 0 0
1592 8 59.53951865716309 28.34 0.3749940304669879 -1 0 0
1508 4 64.26951865716309 23.98 0.37499403046698676 -1 0 0
1509 5 66.21975613777168 26.16 0.004406565216134871 -1 0 0
1512 8 68.9995186571631 23.98 0.374994030466988 -1 0 0
1596 4 64.26951865716309 28.34 0.37499403046698676 -1 0 0
1600 8 68.9995186571631 28.34 0.374994030466988 -1 0 0
1513 1 70.94975613777169 26.16 0.004406565216132179 -1 0 0
1516 4 73.72951865716308 23.98 0.3749940304669877 -1 0 0
1604 4 73.72951865716308 28.34 0.3749940304669877 -1 0 0
1517 5 75.67975613777168 26.16 0.004406565216132382 -1 0 0
1520 8 78.45951865716309 23.98 0.37499403046698665 -1 0 0
1521 1 80.40975613777168 26.16 0.0044065652161356834 -1 0 0
1608 8 78.45951865716309 28.34 0.37499403046698665 -1 0 0
1524 4 83.18951865716309 23.98 0.374994030466988 -1 0 0
1525 5 85.13975613777168 26.16 0.00440656521613152 -1 0 0
1612 4 83.18951865716309 28.34 0.37499403046698804 -1 0 0
1528 8 87.9195186571631 23.98 0.3749940304669853 -1 0 0
1529 1 89.86975613777169 26.16 0.004406565216135423 -1 0 0
1616 8 87.9195186571631 28.34 0.3749940304669853 -1 0 0
1532 4 92.64951865716309 23.98 0.3749940304669865 -1 0 0
1533 5 94.59975613777168 26.16 0.004406565216134964 -1 0 0
1536 8 97.37951865716309 23.98 0.374994030466987 -1 0 0
1620 4 92.64951865716309 28.34 0.3749940304669865 -1 0 0
1624 8 97.37951865716309 28.34 0.374994030466987 -1 0 0
1541 5 104.05975613777169 26.16 0.004406565216134655 -1 0 0
1537 1 99.32975613777168 26.16 0.004406565216131295 -1 0 0
1540 4 102.1095186571631 23.98 0.37499403046698815 -1 0 0
1628 4 102.1095186571631 28.34 0.3749940304669882 -1 0 0
1633 1 4.729756137771679 30.52 0.004406565216132783 0 0 0
1720 8 2.779518657163086 32.7 0.3749940304669878 0 0 0
1721 1 4.7297561377716795 34.88 0.004406565216132701 0 0 0
1637 5 9.459756137771683 30.52 0.0044065652161334205 0 0 0
1724 4 7.509518657163089 32.7 0.3749940304669877 0 0 0
1725 5 9.459756137771683 34.88 0.0044065652161333815 0 0 0
1641 1 14.189756137771683 30.52 0.004406565216133131 0 0 0
1728 8 12.23951865716309 32.7 0.3749940304669884 0 0 0
1732 4 16.96951865716309 32.7 0.3749940304669881 0 0 0
1729 1 14.189756137771683 34.88 0.004406565216133084 0 0 0
1645 5 18.919756137771678 30.52 0.004406565216133135 0 0 0
1736 8 21.69951865716309 32.7 0.3749940304669865 0 0 0
1733 5 18.91975613777168 34.88 0.004406565216133067 0 0 0
1649 1 23.649756137771682 30.52 0.004406565216134167 0 0 0
1653 5 28.379756137771682 30.52 0.00440656521613351 0 0 0
1740 4 26.42951865716309 32.7 0.37499403046698787 0 0 0
1737 1 23.649756137771682 34.88 0.004406565216134093 0 0 0
1741 5 28.379756137771682 34.88 0.004406565216133458 0 0 0
1657 1 33.10975613777168 30.52 0.004406565216133066 0 0 0
1744 8 31.15951865716309 32.7 0.37499403046698776 0 0 0
1745 1 33.10975613777168 34.88 0.004406565216132983 0 0 0
1661 5 37.83975613777168 30.52 0.004406565216133776 0 0 0
1748 4 35.88951865716309 32.7 0.3749940304669885 0 0 0
1749 5 37.83975613777168 34.88 0.004406565216133727 0 0 0
1665 1 42.56975613777168 30.52 0.004406565216132586 0 0 0
1752 8 40.619518657163084 32.7 0.37499403046698715 0 0 0
1756 4 45.34951865716309 32.7 0.3749940304669886 0 0 0
1753 1 42.56975613777168 34.88 0.004406565216132544 0 0 0
1669 5 47.29975613777168 30.52 0.004406565216132589 0 0 0
1760 8 50.07951865716309 32.7 0.37499403046698854 0 0 0
1757 5 47.29975613777168 34.88 0.004406565216132519 0 0 0
1585 1 52.029756137771685 30.52 0.0044065652161328584 -1 0 0
1673 1 52.029756137771685 34.88 0.004406565216132781 -1 0 0
1589 5 56.75975613777169 30.52 0.004406565216133817 -1 0 0
1676 4 54.809518657163096 32.7 0.37499403046698687 -1 0 0
1677 5 56.75975613777169 34.88 0.004406565216133739 -1 0 0
1593 1 61.489756137771685 30.52 0.004406565216133673 -1 0 0
1680 8 59.53951865716309 32.7 0.37499403046698804 -1 0 0
1681 1 61.489756137771685 34.88 0.0044065652161336035 -1 0 0
1597 5 66.21975613777168 30.52 0.004406565216134951 -1 0 0
1684 4 64.26951865716309 32.7 0.3749940304669868 -1 0 0
1688 8 68.9995186571631 32.7 0.3749940304669881 -1 0 0
1685 5 66.21975613777168 34.88 0.004406565216134892 -1 0 0
1601 1 70.94975613777169 30.52 0.0044065652161322695 -1 0 0
1692 4 73.72951865716308 32.7 0.37499403046698776 -1 0 0
1689 1 70.94975613777169 34.88 0.004406565216132198 -1 0 0
1605 5 75.67975613777168 30.52 0.004406565216132476 -1 0 0
1609 1 80.40975613777168 30.52 0.004406565216135764 -1 0 0
1696 8 78.45951865716309 32.7 0.3749940304669867 -1 0 0
1693 5 75.67975613777168 34.88 0.004406565216132382 -1 0 0
1697 1 80.40975613777168 34.88 0.004406565216135713 -1 0 0
1613 5 85.13975613777168 30.52 0.00440656521613161 -1 0 0
1700 4 83.18951865716309 32.7 0.3749940304669881 -1 0 0
1701 5 85.13975613777168 34.88 0.004406565216131543 -1 0 0
1617 1 89.86975613777169 30.52 0.004406565216135515 -1 0 0
1704 8 87.9195186571631 32.7 0.3749940304669854 -1 0 0
1705 1 89.86975613777169 34.88 0.004406565216135449 -1 0 0
1621 5 94.59975613777168 30.52 0.00440656521613504 -1 0 0
1708 4 92.64951865716309 32.7 0.37499403046698654 -1 0 0
1712 8 97.37951865716309 32.7 0.3749940304669871 -1 0 0
1709 5 94.59975613777168 34.88 0.004406565216134986 -1 0 0
1629 5 104.05975613777169 30.520000000000003 0.004406565216134728 -1 0 0
1717 5 104.05975613777169 34.88 0.0044065652161346825 -1 0 0
1625 1 99.32975613777168 30.52 0.004406565216131373 -1 0 0
1716 4 102.1095186571631 32.699999999999996 0.3749940304669882 -1 0 0
1713 1 99.32975613777168 34.88 0.0044065652161312885 -1 0 0
1808 8 2.779518657163087 37.059999999999995 0.37499403046698776 0 0 0
1809 1 4.7297561377716795 39.24 0.004406565216132684 0 0 0
1812 4 7.50951865716309 37.059999999999995 0.37499403046698765 0 0 0
1813 5 9.459756137771683 39.24 0.004406565216133364 0 0 0
1816 8 12.23951865716309 37.059999999999995 0.3749940304669883 0 0 0
1817 1 14.189756137771683 39.24 0.0044065652161330675 0 0 0
1820 4 16.96951865716309 37.059999999999995 0.37499403046698804 0 0 0
1821 5 18.91975613777168 39.24 0.004406565216133051 0 0 0
1824 8 21.699518657163093 37.059999999999995 0.3749940304669864 0 0 0
1825 1 23.649756137771682 39.24 0.004406565216134077 0 0 0
1828 4 26.42951865716309 37.059999999999995 0.37499403046698776 0 0 0
1829 5 28.379756137771682 39.24 0.004406565216133442 0 0 0
1832 8 31.15951865716309 37.059999999999995 0.3749940304669877 0 0 0
1833 1 33.10975613777168 39.24 0.004406565216132967 0 0 0
1836 4 35.88951865716309 37.059999999999995 0.37499403046698837 0 0 0
1837 5 37.83975613777168 39.24 0.00440656521613371 0 0 0
1840 8 40.619518657163084 37.059999999999995 0.3749940304669871 0 0 0
1841 1 42.56975613777168 39.24 0.004406565216132528 0 0 0
1844 4 45.34951865716309 37.059999999999995 0.3749940304669885 0 0 0
1845 5 47.29975613777168 39.24 0.004406565216132504 0 0 0
1848 8 50.07951865716309 37.059999999999995 0.3749940304669885 0 0 0
1761 1 52.029756137771685 39.24 0.004406565216132766 -1 0 0
1764 4 54.809518657163096 37.059999999999995 0.3749940304669868 -1 0 0
1765 5 56.75975613777169 39.24 0.0044065652161337215 -1 0 0
1768 8 59.53951865716309 37.059999999999995 0.3749940304669879 -1 0 0
1769 1 61.489756137771685 39.24 0.004406565216133586 -1 0 0
1772 4 64.26951865716309 37.059999999999995 0.37499403046698676 -1 0 0
1773 5 66.21975613777168 39.24 0.004406565216134876 -1 0 0
1776 8 68.9995186571631 37.059999999999995 0.374994030466988 -1 0 0
1777 1 70.94975613777169 39.24 0.004406565216132183 -1 0 0
1780 4 73.72951865716308 37.059999999999995 0.37499403046698776 -1 0 0
1781 5 75.67975613777168 39.24 0.004406565216132366 -1 0 0
1784 8 78.45951865716309 37.059999999999995 0.3749940304669866 -1 0 0
1785 1 80.40975613777168 39.24 0.004406565216135696 -1 0 0
1788 4 83.18951865716309 37.059999999999995 0.374994030466988 -1 0 0
1789 5 85.13975613777168 39.24 0.004406565216131526 -1 0 0
1792 8 87.9195186571631 37.059999999999995 0.3749940304669853 -1 0 0
1793 1 89.86975613777169 39.24 0.004406565216135432 -1 0 0
1796 4 92.64951865716309 37.059999999999995 0.3749940304669865 -1 0 0
1797 5 94.59975613777168 39.24 0.00440656521613497 -1 0 0
1800 8 97.37951865716309 37.059999999999995 0.374994030466987 -1 0 0
1805 5 104.05975613777169 39.24 0.004406565216134667 -1 0 0
1801 1 99.32975613777168 39.24 0.004406565216131272 -1 0 0
1804 4 102.1095186571631 37.059999999999995 0.37499403046698815 -1 0 0
1896 8 2.779518657163087 41.419999999999995 0.37499403046698776 0 0 0
1897 1 4.7297561377716795 43.6 0.004406565216132684 0 0 0
1984 8 2.779518657163087 45.779999999999994 0.37499403046698776 0 0 0
1900 4 7.50951865716309 41.419999999999995 0.37499403046698765 0 0 0
1901 5 9.459756137771683 43.6 0.004406565216133365 0 0 0
1988 4 7.509518657163089 45.779999999999994 0.37499403046698765 0 0 0
1904 8 12.23951865716309 41.419999999999995 0.3749940304669883 0 0 0
1908 4 16.96951865716309 41.419999999999995 0.37499403046698804 0 0 0
1905 1 14.189756137771683 43.6 0.0044065652161330675 0 0 0
1992 8 12.23951865716309 45.779999999999994 0.3749940304669882 0 0 0
1996 4 16.96951865716309 45.779999999999994 0.374994030466988 0 0 0
1912 8 21.699518657163093 41.419999999999995 0.3749940304669864 0 0 0
1909 5 18.91975613777168 43.6 0.004406565216133051 0 0 0
2000 8 21.699518657163093 45.779999999999994 0.3749940304669864 0 0 0
1916 4 26.42951865716309 41.419999999999995 0.37499403046698776 0 0 0
1913 1 23.649756137771682 43.6 0.004406565216134076 0 0 0
1917 5 28.379756137771682 43.6 0.004406565216133443 0 0 0
2004 4 26.42951865716309 45.779999999999994 0.37499403046698776 0 0 0
1920 8 31.15951865716309 41.419999999999995 0.3749940304669877 0 0 0
1921 1 33.10975613777168 43.6 0.004406565216132967 0 0 0
2008 8 31.15951865716309 45.779999999999994 0.3749940304669877 0 0 0
1924 4 35.88951865716309 41.419999999999995 0.37499403046698837 0 0 0
1925 5 37.83975613777168 43.6 0.00440656521613371 0 0 0
2012 4 35.88951865716309 45.779999999999994 0.37499403046698837 0 0 0
1928 8 40.619518657163084 41.419999999999995 0.3749940304669871 0 0 0
1932 4 45.34951865716309 41.419999999999995 0.3749940304669885 0 0 0
1929 1 42.56975613777168 43.6 0.004406565216132528 0 0 0
2016 8 40.619518657163084 45.779999999999994 0.3749940304669871 0 0 0
2020 4 45.34951865716309 45.779999999999994 0.3749940304669885 0 0 0
1936 8 50.07951865716309 41.419999999999995 0.3749940304669885 0 0 0
1933 5 47.29975613777168 43.6 0.004406565216132504 0 0 0
2024 8 50.07951865716309 45.779999999999994 0.3749940304669885 0 0 0
1849 1 52.029756137771685 43.6 0.004406565216132766 -1 0 0
1852 4 54.809518657163096 41.419999999999995 0.3749940304669868 -1 0 0
1853 5 56.75975613777169 43.6 0.0044065652161337215 -1 0 0
1940 4 54.809518657163096 45.779999999999994 0.3749940304669868 -1 0 0
1856 8 59.53951865716309 41.419999999999995 0.3749940304669879 -1 0 0
1857 1 61.489756137771685 43.6 0.004406565216133586 -1 0 0
1944 8 59.53951865716309 45.779999999999994 0.3749940304669879 -1 0 0
1860 4 64.26951865716309 41.419999999999995 0.37499403046698676 -1 0 0
1864 8 68.9995186571631 41.419999999999995 0.374994030466988 -1 0 0
1861 5 66.21975613777168 43.6 0.004406565216134877 -1 0 0
1948 4 64.26951865716309 45.779999999999994 0.37499403046698676 -1 0 0
1952 8 68.9995186571631 45.779999999999994 0.374994030466988 -1 0 0
1868 4 73.72951865716308 41.419999999999995 0.37499403046698776 -1 0 0
1865 1 70.94975613777169 43.6 0.004406565216132183 -1 0 0
1956 4 73.72951865716308 45.779999999999994 0.3749940304669878 -1 0 0
1872 8 78.45951865716309 41.419999999999995 0.3749940304669866 -1 0 0
1869 5 75.67975613777168 43.6 0.004406565216132367 -1 0 0
1873 1 80.40975613777168 43.6 0.004406565216135696 -1 0 0
1960 8 78.45951865716309 45.779999999999994 0.3749940304669866 -1 0 0
1876 4 83.18951865716309 41.419999999999995 0.374994030466988 -1 0 0
1877 5 85.13975613777168 43.6 0.004406565216131526 -1 0 0
1964 4 83.18951865716309 45.779999999999994 0.374994030466988 -1 0 0
1880 8 87.9195186571631 41.419999999999995 0.3749940304669853 -1 0 0
1881 1 89.86975613777169 43.6 0.004406565216135432 -1 0 0