LAMMPS data file via write_data, version 29 Aug 2024, timestep = 0, units = metal

2688 atoms
3 atom types

0 99.01370640336 xlo xhi
0 97.998154363616 ylo yhi
0 18.105181009974 zlo zhi

Masses

1 47.867
2 78.95999999999999
3 78.971

Atoms # atomic

1433 1 0 0 1.5525905049870001 0 0 0
1439 1 3.536203800119999 0 1.5525905049870001 0 0 0
1445 1 7.072407600239998 0 1.5525905049870001 0 0 0
1451 1 10.608611400359997 0 1.5525905049870001 0 0 0
1457 1 14.144815200479997 0 1.5525905049870001 0 0 0
1463 1 17.681019000600003 0 1.5525905049870001 0 0 0
1469 1 21.217222800719995 0 1.5525905049870001 0 0 0
1475 1 24.75342660084 0 1.5525905049870001 0 0 0
1481 1 28.289630400959993 0 1.5525905049870001 0 0 0
1487 1 31.82583420108 0 1.5525905049870001 0 0 0
1493 1 35.36203800119999 0 1.5525905049870001 0 0 0
1499 1 38.89824180132 0 1.5525905049870001 0 0 0
1505 1 42.434445601440004 0 1.5525905049870001 0 0 0
1511 1 45.970649401559996 0 1.5525905049870001 0 0 0
1349 1 49.50685320168 0 1.5525905049870001 -1 0 0
1355 1 53.0430570018 0 1.5525905049870001 -1 0 0
1361 1 56.57926080192 0 1.5525905049870001 -1 0 0
1367 1 60.11546460204 0 1.5525905049870001 -1 0 0
1373 1 63.65166840216 0 1.5525905049870001 -1 0 0
1379 1 67.18787220228 0 1.5525905049870001 -1 0 0
1385 1 70.7240760024 0 1.5525905049870001 -1 0 0
1391 1 74.26027980252 0 1.5525905049870001 -1 0 0
1397 1 77.79648360264 0 1.5525905049870001 -1 0 0
1403 1 81.33268740276 0 1.5525905049870001 -1 0 0
1409 1 84.86889120288001 0 1.5525905049870001 -1 0 0
1415 1 88.405095003 0 1.5525905049870001 -1 0 0
1421 1 91.94129880311999 0 1.5525905049870001 -1 0 0
1427 1 95.47750260324 0 1.5525905049870001 -1 0 0
1429 3 0 2.0416282159090002 0 0 0 0
1434 1 1.768101900059996 3.062442323863003 1.5525905049870001 0 0 0
1435 3 3.536203800119999 2.0416282159090002 0 0 0 0
1440 1 5.304305700179995 3.062442323863003 1.5525905049870001 0 0 0
1441 3 7.072407600239998 2.0416282159090002 0 0 0 0
1446 1 8.840509500300001 3.062442323863003 1.5525905049870001 0 0 0
1447 3 10.608611400359997 2.0416282159090002 0 0 0 0
1452 1 12.37671330042 3.062442323863003 1.5525905049870001 0 0 0
1453 3 14.144815200479997 2.0416282159090002 0 0 0 0
1458 1 15.91291710054 3.062442323863003 1.5525905049870001 0 0 0
1459 3 17.681019000600003 2.0416282159090002 0 0 0 0
1464 1 19.44912090065999 3.062442323863003 1.5525905049870001 0 0 0
1465 3 21.217222800719995 2.0416282159090002 0 0 0 0
1470 1 22.985324700779998 3.062442323863003 1.5525905049870001 0 0 0
1471 3 24.75342660084 2.0416282159090002 0 0 0 0
1476 1 26.521528500900004 3.062442323863003 1.5525905049870001 0 0 0
1477 3 28.289630400959993 2.0416282159090002 0 0 0 0
1482 1 30.057732301019996 3.062442323863003 1.5525905049870001 0 0 0
1483 3 31.82583420108 2.0416282159090002 0 0 0 0
1488 1 33.59393610114 3.062442323863003 1.5525905049870001 0 0 0
1489 3 35.36203800119999 2.0416282159090002 0 0 0 0
1494 1 37.130139901259994 3.062442323863003 1.5525905049870001 0 0 0
1495 3 38.89824180132 2.0416282159090002 0 0 0 0
1500 1 40.66634370138 3.062442323863003 1.5525905049870001 0 0 0
1501 3 42.434445601440004 2.0416282159090002 0 0 0 0
1506 1 44.20254750149999 3.062442323863003 1.5525905049870001 0 0 0
1507 3 45.970649401559996 2.0416282159090002 0 0 0 0
1512 1 47.73875130162 3.062442323863003 1.5525905049870001 0 0 0
1345 3 49.50685320168 2.0416282159090002 0 -1 0 0
1350 1 51.274955101740005 3.062442323863003 1.5525905049870001 -1 0 0
1351 3 53.0430570018 2.0416282159090002 0 -1 0 0
1356 1 54.811158901860004 3.062442323863003 1.5525905049870001 -1 0 0
1357 3 56.57926080192 2.0416282159090002 0 -1 0 0
1362 1 58.34736270198 3.062442323863003 1.5525905049870001 -1 0 0
1363 3 60.11546460204 2.0416282159090002 0 -1 0 0
1368 1 61.8835665021 3.062442323863003 1.5525905049870001 -1 0 0
1369 3 63.65166840216 2.0416282159090002 0 -1 0 0
1375 3 67.18787220228 2.0416282159090002 0 -1 0 0
1374 1 65.41977030222 3.062442323863003 1.5525905049870001 -1 0 0
1380 1 68.95597410234001 3.062442323863003 1.5525905049870001 -1 0 0
1381 3 70.7240760024 2.0416282159090002 0 -1 0 0
1386 1 72.49217790246 3.062442323863003 1.5525905049870001 -1 0 0
1387 3 74.26027980252 2.0416282159090002 0 -1 0 0
1392 1 76.02838170258 3.062442323863003 1.5525905049870001 -1 0 0
1393 3 77.79648360264 2.0416282159090002 0 -1 0 0
1398 1 79.5645855027 3.062442323863003 1.5525905049870001 -1 0 0
1399 3 81.33268740276 2.0416282159090002 0 -1 0 0
1404 1 83.10078930282 3.062442323863003 1.5525905049870001 -1 0 0
1405 3 84.86889120288001 2.0416282159090002 0 -1 0 0
1410 1 86.63699310294001 3.062442323863003 1.5525905049870001 -1 0 0
1411 3 88.405095003 2.0416282159090002 0 -1 0 0
1416 1 90.17319690306 3.062442323863003 1.5525905049870001 -1 0 0
1417 3 91.94129880311999 2.0416282159090002 0 -1 0 0
1422 1 93.70940070318 3.062442323863003 1.5525905049870001 -1 0 0
1423 3 95.47750260324 2.0416282159090002 0 -1 0 0
1428 1 97.2456045033 3.062442323863003 1.5525905049870001 -1 0 0
1430 3 1.768101900059996 5.104070539772003 0 0 0 0
1436 3 5.304305700179995 5.104070539772003 0 0 0 0
1442 3 8.840509500300001 5.104070539772003 0 0 0 0
1448 3 12.37671330042 5.104070539772003 0 0 0 0
1454 3 15.91291710054 5.104070539772003 0 0 0 0
1460 3 19.44912090065999 5.104070539772003 0 0 0 0
1466 3 22.985324700779998 5.104070539772003 0 0 0 0
1472 3 26.521528500900004 5.104070539772003 0 0 0 0
1478 3 30.057732301019996 5.104070539772003 0 0 0 0
1484 3 33.59393610114 5.104070539772003 0 0 0 0
1490 3 37.130139901259994 5.104070539772003 0 0 0 0
1496 3 40.66634370138 5.104070539772003 0 0 0 0
1502 3 44.20254750149999 5.104070539772003 0 0 0 0
1508 3 47.73875130162 5.104070539772003 0 0 0 0
1346 3 51.274955101740005 5.104070539772003 0 -1 0 0
1352 3 54.811158901860004 5.104070539772003 0 -1 0 0
1358 3 58.34736270198 5.104070539772003 0 -1 0 0
1364 3 61.8835665021 5.104070539772003 0 -1 0 0
1370 3 65.41977030222 5.104070539772003 0 -1 0 0
1376 3 68.95597410234001 5.104070539772003 0 -1 0 0
1382 3 72.49217790246 5.104070539772003 0 -1 0 0
1388 3 76.02838170258 5.104070539772003 0 -1 0 0
1394 3 79.5645855027 5.104070539772003 0 -1 0 0
1400 3 83.10078930282 5.104070539772003 0 -1 0 0
1406 3 86.63699310294001 5.104070539772003 0 -1 0 0
1412 3 90.17319690306 5.104070539772003 0 -1 0 0
1418 3 93.70940070318 5.104070539772003 0 -1 0 0
1424 3 97.2456045033 5.104070539772003 0 -1 0 0
1601 1 0 6.124884647725999 1.5525905049870001 0 0 0
1607 1 3.536203800119999 6.124884647725999 1.5525905049870001 0 0 0
1613 1 7.072407600239998 6.124884647725999 1.5525905049870001 0 0 0
1619 1 10.608611400359997 6.124884647725999 1.5525905049870001 0 0 0
1625 1 14.144815200479997 6.124884647725999 1.5525905049870001 0 0 0
1631 1 17.681019000600003 6.124884647725999 1.5525905049870001 0 0 0
1637 1 21.217222800719995 6.124884647725999 1.5525905049870001 0 0 0
1643 1 24.75342660084 6.124884647725999 1.5525905049870001 0 0 0
1649 1 28.289630400959993 6.124884647725999 1.5525905049870001 0 0 0
1655 1 31.82583420108 6.124884647725999 1.5525905049870001 0 0 0
1661 1 35.36203800119999 6.124884647725999 1.5525905049870001 0 0 0
1667 1 38.89824180132 6.124884647725999 1.5525905049870001 0 0 0
1673 1 42.434445601440004 6.124884647725999 1.5525905049870001 0 0 0
1679 1 45.970649401559996 6.124884647725999 1.5525905049870001 0 0 0
1517 1 49.50685320168 6.124884647725999 1.5525905049870001 -1 0 0
1523 1 53.0430570018 6.124884647725999 1.5525905049870001 -1 0 0
1529 1 56.57926080192 6.124884647725999 1.5525905049870001 -1 0 0
1535 1 60.11546460204 6.124884647725999 1.5525905049870001 -1 0 0
1541 1 63.65166840216 6.124884647725999 1.5525905049870001 -1 0 0
1547 1 67.18787220228 6.124884647725999 1.5525905049870001 -1 0 0
1553 1 70.7240760024 6.124884647725999 1.5525905049870001 -1 0 0
1559 1 74.26027980252 6.124884647725999 1.5525905049870001 -1 0 0
1565 1 77.79648360264 6.124884647725999 1.5525905049870001 -1 0 0
1571 1 81.33268740276 6.124884647725999 1.5525905049870001 -1 0 0
1577 1 84.86889120288001 6.124884647725999 1.5525905049870001 -1 0 0
1583 1 88.405095003 6.124884647725999 1.5525905049870001 -1 0 0
1589 1 91.94129880311999 6.124884647725999 1.5525905049870001 -1 0 0
1595 1 95.47750260324 6.124884647725999 1.5525905049870001 -1 0 0
1597 3 0 8.166512863634999 0 0 0 0
1602 1 1.768101900059996 9.187326971589002 1.5525905049870001 0 0 0
1603 3 3.536203800119999 8.166512863634999 0 0 0 0
1608 1 5.304305700179995 9.187326971589002 1.5525905049870001 0 0 0
1609 3 7.072407600239998 8.166512863634999 0 0 0 0
1614 1 8.840509500300001 9.187326971589002 1.5525905049870001 0 0 0
1615 3 10.608611400359997 8.166512863634999 0 0 0 0
1620 1 12.37671330042 9.187326971589002 1.5525905049870001 0 0 0
1621 3 14.144815200479997 8.166512863634999 0 0 0 0
1626 1 15.91291710054 9.187326971589002 1.5525905049870001 0 0 0
1627 3 17.681019000600003 8.166512863634999 0 0 0 0
1632 1 19.44912090065999 9.187326971589002 1.5525905049870001 0 0 0
1633 3 21.217222800719995 8.166512863634999 0 0 0 0
1638 1 22.985324700779998 9.187326971589002 1.5525905049870001 0 0 0
1639 3 24.75342660084 8.166512863634999 0 0 0 0
1644 1 26.521528500900004 9.187326971589002 1.5525905049870001 0 0 0
1645 3 28.289630400959993 8.166512863634999 0 0 0 0
1650 1 30.057732301019996 9.187326971589002 1.5525905049870001 0 0 0
1651 3 31.82583420108 8.166512863634999 0 0 0 0
1656 1 33.59393610114 9.187326971589002 1.5525905049870001 0 0 0
1657 3 35.36203800119999 8.166512863634999 0 0 0 0
1662 1 37.130139901259994 9.187326971589002 1.5525905049870001 0 0 0
1663 3 38.89824180132 8.166512863634999 0 0 0 0
1668 1 40.66634370138 9.187326971589002 1.5525905049870001 0 0 0
1669 3 42.434445601440004 8.166512863634999 0 0 0 0
1674 1 44.20254750149999 9.187326971589002 1.5525905049870001 0 0 0
1675 3 45.970649401559996 8.166512863634999 0 0 0 0
1680 1 47.73875130162 9.187326971589002 1.5525905049870001 0 0 0
1513 3 49.50685320168 8.166512863634999 0 -1 0 0
1518 1 51.274955101740005 9.187326971589002 1.5525905049870001 -1 0 0
1519 3 53.0430570018 8.166512863634999 0 -1 0 0
1524 1 54.811158901860004 9.187326971589002 1.5525905049870001 -1 0 0
1525 3 56.57926080192 8.166512863634999 0 -1 0 0
1530 1 58.34736270198 9.187326971589002 1.5525905049870001 -1 0 0
1531 3 60.11546460204 8.166512863634999 0 -1 0 0
1536 1 61.8835665021 9.187326971589002 1.5525905049870001 -1 0 0
1537 3 63.65166840216 8.166512863634999 0 -1 0 0
1543 3 67.18787220228 8.166512863634999 0 -1 0 0
1542 1 65.41977030222 9.187326971589002 1.5525905049870001 -1 0 0
1548 1 68.95597410234001 9.187326971589002 1.5525905049870001 -1 0 0
1549 3 70.7240760024 8.166512863634999 0 -1 0 0
1554 1 72.49217790246 9.187326971589002 1.5525905049870001 -1 0 0
1555 3 74.26027980252 8.166512863634999 0 -1 0 0
1560 1 76.02838170258 9.187326971589002 1.5525905049870001 -1 0 0
1561 3 77.79648360264 8.166512863634999 0 -1 0 0
1566 1 79.5645855027 9.187326971589002 1.5525905049870001 -1 0 0
1567 3 81.33268740276 8.166512863634999 0 -1 0 0
1572 1 83.10078930282 9.187326971589002 1.5525905049870001 -1 0 0
1573 3 84.86889120288001 8.166512863634999 0 -1 0 0
1578 1 86.63699310294001 9.187326971589002 1.5525905049870001 -1 0 0
1579 3 88.405095003 8.166512863634999 0 -1 0 0
1584 1 90.17319690306 9.187326971589002 1.5525905049870001 -1 0 0
1585 3 91.94129880311999 8.166512863634999 0 -1 0 0
1590 1 93.70940070318 9.187326971589002 1.5525905049870001 -1 0 0
1591 3 95.47750260324 8.166512863634999 0 -1 0 0
1596 1 97.2456045033 9.187326971589002 1.5525905049870001 -1 0 0
1598 3 1.768101900059996 11.228955187498002 0 0 0 0
1769 1 0 12.249769295452005 1.5525905049870001 0 0 0
1775 1 3.536203800119999 12.249769295452005 1.5525905049870001 0 0 0
1604 3 5.304305700179995 11.228955187498002 0 0 0 0
1781 1 7.072407600239998 12.249769295452005 1.5525905049870001 0 0 0
1610 3 8.840509500300001 11.228955187498002 0 0 0 0
1787 1 10.608611400359997 12.249769295452005 1.5525905049870001 0 0 0
1616 3 12.37671330042 11.228955187498002 0 0 0 0
1793 1 14.144815200479997 12.249769295452005 1.5525905049870001 0 0 0
1622 3 15.91291710054 11.228955187498002 0 0 0 0
1799 1 17.681019000600003 12.249769295452005 1.5525905049870001 0 0 0
1628 3 19.44912090065999 11.228955187498002 0 0 0 0
1805 1 21.217222800719995 12.249769295452005 1.5525905049870001 0 0 0
1634 3 22.985324700779998 11.228955187498002 0 0 0 0
1811 1 24.75342660084 12.249769295452005 1.5525905049870001 0 0 0
1640 3 26.521528500900004 11.228955187498002 0 0 0 0
1817 1 28.289630400959993 12.249769295452005 1.5525905049870001 0 0 0
1646 3 30.057732301019996 11.228955187498002 0 0 0 0
1652 3 33.59393610114 11.228955187498002 0 0 0 0
1823 1 31.82583420108 12.249769295452005 1.5525905049870001 0 0 0
1829 1 35.36203800119999 12.249769295452005 1.5525905049870001 0 0 0
1658 3 37.130139901259994 11.228955187498002 0 0 0 0
1835 1 38.89824180132 12.249769295452005 1.5525905049870001 0 0 0
1664 3 40.66634370138 11.228955187498002 0 0 0 0
1841 1 42.434445601440004 12.249769295452005 1.5525905049870001 0 0 0
1670 3 44.20254750149999 11.228955187498002 0 0 0 0
1847 1 45.970649401559996 12.249769295452005 1.5525905049870001 0 0 0
1676 3 47.73875130162 11.228955187498002 0 0 0 0
1685 1 49.50685320168 12.249769295452005 1.5525905049870001 -1 0 0
1514 3 51.274955101740005 11.228955187498002 0 -1 0 0
1691 1 53.0430570018 12.249769295452005 1.5525905049870001 -1 0 0
1520 3 54.811158901860004 11.228955187498002 0 -1 0 0
1697 1 56.57926080192 12.249769295452005 1.5525905049870001 -1 0 0
1526 3 58.34736270198 11.228955187498002 0 -1 0 0
1703 1 60.11546460204 12.249769295452005 1.5525905049870001 -1 0 0
1532 3 61.8835665021 11.228955187498002 0 -1 0 0
1709 1 63.65166840216 12.249769295452005 1.5525905049870001 -1 0 0
1538 3 65.41977030222 11.228955187498002 0 -1 0 0
1715 1 67.18787220228 12.249769295452005 1.5525905049870001 -1 0 0
1544 3 68.95597410234001 11.228955187498002 0 -1 0 0
1721 1 70.7240760024 12.249769295452005 1.5525905049870001 -1 0 0
1550 3 72.49217790246 11.228955187498002 0 -1 0 0
1727 1 74.26027980252 12.249769295452005 1.5525905049870001 -1 0 0
1556 3 76.02838170258 11.228955187498002 0 -1 0 0
1733 1 77.79648360264 12.249769295452005 1.5525905049870001 -1 0 0
1562 3 79.5645855027 11.228955187498002 0 -1 0 0
1739 1 81.33268740276 12.249769295452005 1.5525905049870001 -1 0 0
1568 3 83.10078930282 11.228955187498002 0 -1 0 0
1745 1 84.86889120288001 12.249769295452005 1.5525905049870001 -1 0 0
1574 3 86.63699310294001 11.228955187498002 0 -1 0 0
1751 1 88.405095003 12.249769295452005 1.5525905049870001 -1 0 0
1580 3 90.17319690306 11.228955187498002 0 -1 0 0
1757 1 91.94129880311999 12.249769295452005 1.5525905049870001 -1 0 0
1586 3 93.70940070318 11.228955187498002 0 -1 0 0
1763 1 95.47750260324 12.249769295452005 1.5525905049870001 -1 0 0
1592 3 97.2456045033 11.228955187498002 0 -1 0 0
1765 3 0 14.291397511361005 0 0 0 0
1771 3 3.536203800119999 14.291397511361005 0 0 0 0
1777 3 7.072407600239998 14.291397511361005 0 0 0 0
1783 3 10.608611400359997 14.291397511361005 0 0 0 0
1789 3 14.144815200479997 14.291397511361005 0 0 0 0
1795 3 17.681019000600003 14.291397511361005 0 0 0 0
1801 3 21.217222800719995 14.291397511361005 0 0 0 0
1807 3 24.75342660084 14.291397511361005 0 0 0 0
1813 3 28.289630400959993 14.291397511361005 0 0 0 0
1819 3 31.82583420108 14.291397511361005 0 0 0 0
1825 3 35.36203800119999 14.291397511361005 0 0 0 0
1831 3 38.89824180132 14.291397511361005 0 0 0 0
1837 3 42.434445601440004 14.291397511361005 0 0 0 0
1843 3 45.970649401559996 14.291397511361005 0 0 0 0
1681 3 49.50685320168 14.291397511361005 0 -1 0 0
1687 3 53.0430570018 14.291397511361005 0 -1 0 0
1693 3 56.57926080192 14.291397511361005 0 -1 0 0
1699 3 60.11546460204 14.291397511361005 0 -1 0 0
1705 3 63.65166840216 14.291397511361005 0 -1 0 0
1711 3 67.18787220228 14.291397511361005 0 -1 0 0
1717 3 70.7240760024 14.291397511361005 0 -1 0 0
1723 3 74.26027980252 14.291397511361005 0 -1 0 0
1729 3 77.79648360264 14.291397511361005 0 -1 0 0
1735 3 81.33268740276 14.291397511361005 0 -1 0 0
1741 3 84.86889120288001 14.291397511361005 0 -1 0 0
1747 3 88.405095003 14.291397511361005 0 -1 0 0
1753 3 91.94129880311999 14.291397511361005 0 -1 0 0
1759 3 95.47750260324 14.291397511361005 0 -1 0 0
1770 1 1.768101900059996 15.312211619315 1.5525905049870001 0 0 0
1776 1 5.304305700179995 15.312211619315 1.5525905049870001 0 0 0
1782 1 8.840509500300001 15.312211619315 1.5525905049870001 0 0 0
1788 1 12.37671330042 15.312211619315 1.5525905049870001 0 0 0
1794 1 15.91291710054 15.312211619315 1.5525905049870001 0 0 0
1800 1 19.44912090065999 15.312211619315 1.5525905049870001 0 0 0
1806 1 22.985324700779998 15.312211619315 1.5525905049870001 0 0 0
1812 1 26.521528500900004 15.312211619315 1.5525905049870001 0 0 0
1818 1 30.057732301019996 15.312211619315 1.5525905049870001 0 0 0
1824 1 33.59393610114 15.312211619315 1.5525905049870001 0 0 0
1830 1 37.130139901259994 15.312211619315 1.5525905049870001 0 0 0
1836 1 40.66634370138 15.312211619315 1.5525905049870001 0 0 0
1842 1 44.20254750149999 15.312211619315 1.5525905049870001 0 0 0
1848 1 47.73875130162 15.312211619315 1.5525905049870001 0 0 0
1686 1 51.274955101740005 15.312211619315 1.5525905049870001 -1 0 0
1692 1 54.811158901860004 15.312211619315 1.5525905049870001 -1 0 0
1698 1 58.34736270198 15.312211619315 1.5525905049870001 -1 0 0
1704 1 61.8835665021 15.312211619315 1.5525905049870001 -1 0 0
1710 1 65.41977030222 15.312211619315 1.5525905049870001 -1 0 0
1716 1 68.95597410234001 15.312211619315 1.5525905049870001 -1 0 0
1722 1 72.49217790246 15.312211619315 1.5525905049870001 -1 0 0
1728 1 76.02838170258 15.312211619315 1.5525905049870001 -1 0 0
1734 1 79.5645855027 15.312211619315 1.5525905049870001 -1 0 0
1740 1 83.10078930282 15.312211619315 1.5525905049870001 -1 0 0
1746 1 86.63699310294001 15.312211619315 1.5525905049870001 -1 0 0
1752 1 90.17319690306 15.312211619315 1.5525905049870001 -1 0 0
1758 1 93.70940070318 15.312211619315 1.5525905049870001 -1 0 0
1764 1 97.2456045033 15.312211619315 1.5525905049870001 -1 0 0
1766 3 1.768101900059996 17.353839835224 0 0 0 0
1937 1 0 18.374653943177996 1.5525905049870001 0 0 0
1943 1 3.536203800119999 18.374653943177996 1.5525905049870001 0 0 0
1772 3 5.304305700179995 17.353839835224 0 0 0 0
1949 1 7.072407600239998 18.374653943177996 1.5525905049870001 0 0 0
1778 3 8.840509500300001 17.353839835224 0 0 0 0
1955 1 10.608611400359997 18.374653943177996 1.5525905049870001 0 0 0
1784 3 12.37671330042 17.353839835224 0 0 0 0
1961 1 14.144815200479997 18.374653943177996 1.5525905049870001 0 0 0
1790 3 15.91291710054 17.353839835224 0 0 0 0
1967 1 17.681019000600003 18.374653943177996 1.5525905049870001 0 0 0
1796 3 19.44912090065999 17.353839835224 0 0 0 0
1973 1 21.217222800719995 18.374653943177996 1.5525905049870001 0 0 0
1802 3 22.985324700779998 17.353839835224 0 0 0 0
1979 1 24.75342660084 18.374653943177996 1.5525905049870001 0 0 0
1808 3 26.521528500900004 17.353839835224 0 0 0 0
1985 1 28.289630400959993 18.374653943177996 1.5525905049870001 0 0 0
1814 3 30.057732301019996 17.353839835224 0 0 0 0
1820 3 33.59393610114 17.353839835224 0 0 0 0
1991 1 31.82583420108 18.374653943177996 1.5525905049870001 0 0 0
1997 1 35.36203800119999 18.374653943177996 1.5525905049870001 0 0 0
1826 3 37.130139901259994 17.353839835224 0 0 0 0
2003 1 38.89824180132 18.374653943177996 1.5525905049870001 0 0 0
1832 3 40.66634370138 17.353839835224 0 0 0 0
2009 1 42.434445601440004 18.374653943177996 1.5525905049870001 0 0 0
1838 3 44.20254750149999 17.353839835224 0 0 0 0
2015 1 45.970649401559996 18.374653943177996 1.5525905049870001 0 0 0
1844 3 47.73875130162 17.353839835224 0 0 0 0
1853 1 49.50685320168 18.374653943177996 1.5525905049870001 -1 0 0
1682 3 51.274955101740005 17.353839835224 0 -1 0 0
1859 1 53.0430570018 18.374653943177996 1.5525905049870001 -1 0 0
1688 3 54.811158901860004 17.353839835224 0 -1 0 0
1865 1 56.57926080192 18.374653943177996 1.5525905049870001 -1 0 0
1694 3 58.34736270198 17.353839835224 0 -1 0 0
1871 1 60.11546460204 18.374653943177996 1.5525905049870001 -1 0 0
1700 3 61.8835665021 17.353839835224 0 -1 0 0
1877 1 63.65166840216 18.374653943177996 1.5525905049870001 -1 0 0
1706 3 65.41977030222 17.353839835224 0 -1 0 0
1883 1 67.18787220228 18.374653943177996 1.5525905049870001 -1 0 0
1712 3 68.95597410234001 17.353839835224 0 -1 0 0
1889 1 70.7240760024 18.374653943177996 1.5525905049870001 -1 0 0
1718 3 72.49217790246 17.353839835224 0 -1 0 0
1895 1 74.26027980252 18.374653943177996 1.5525905049870001 -1 0 0
1724 3 76.02838170258 17.353839835224 0 -1 0 0
1901 1 77.79648360264 18.374653943177996 1.5525905049870001 -1 0 0
1730 3 79.5645855027 17.353839835224 0 -1 0 0
1907 1 81.33268740276 18.374653943177996 1.5525905049870001 -1 0 0
1736 3 83.10078930282 17.353839835224 0 -1 0 0
1913 1 84.86889120288001 18.374653943177996 1.5525905049870001 -1 0 0
1742 3 86.63699310294001 17.353839835224 0 -1 0 0
1919 1 88.405095003 18.374653943177996 1.5525905049870001 -1 0 0
1748 3 90.17319690306 17.353839835224 0 -1 0 0
1925 1 91.94129880311999 18.374653943177996 1.5525905049870001 -1 0 0
1754 3 93.70940070318 17.353839835224 0 -1 0 0
1931 1 95.47750260324 18.374653943177996 1.5525905049870001 -1 0 0
1760 3 97.2456045033 17.353839835224 0 -1 0 0
1933 3 0 20.416282159086997 0 0 0 0
1938 1 1.768101900059996 21.437096267041007 1.5525905049870001 0 0 0
1939 3 3.536203800119999 20.416282159086997 0 0 0 0
1944 1 5.304305700179995 21.437096267041007 1.5525905049870001 0 0 0
1945 3 7.072407600239998 20.416282159086997 0 0 0 0
1950 1 8.840509500300001 21.437096267041007 1.5525905049870001 0 0 0
1951 3 10.608611400359997 20.416282159086997 0 0 0 0
1956 1 12.37671330042 21.437096267041007 1.5525905049870001 0 0 0
1957 3 14.144815200479997 20.416282159086997 0 0 0 0
1962 1 15.91291710054 21.437096267041007 1.5525905049870001 0 0 0
1963 3 17.681019000600003 20.416282159086997 0 0 0 0
1968 1 19.44912090065999 21.437096267041007 1.5525905049870001 0 0 0
1969 3 21.217222800719995 20.416282159086997 0 0 0 0
1974 1 22.985324700779998 21.437096267041007 1.5525905049870001 0 0 0
1975 3 24.75342660084 20.416282159086997 0 0 0 0
1980 1 26.521528500900004 21.437096267041007 1.5525905049870001 0 0 0
1981 3 28.289630400959993 20.416282159086997 0 0 0 0
1986 1 30.057732301019996 21.437096267041007 1.5525905049870001 0 0 0
1987 3 31.82583420108 20.416282159086997 0 0 0 0
1992 1 33.59393610114 21.437096267041007 1.5525905049870001 0 0 0
1993 3 35.36203800119999 20.416282159086997 0 0 0 0
1998 1 37.130139901259994 21.437096267041007 1.5525905049870001 0 0 0
1999 3 38.89824180132 20.416282159086997 0 0 0 0
2004 1 40.66634370138 21.437096267041007 1.5525905049870001 0 0 0
2005 3 42.434445601440004 20.416282159086997 0 0 0 0
2010 1 44.20254750149999 21.437096267041007 1.5525905049870001 0 0 0
2011 3 45.970649401559996 20.416282159086997 0 0 0 0
2016 1 47.73875130162 21.437096267041007 1.5525905049870001 0 0 0
1849 3 49.50685320168 20.416282159086997 0 -1 0 0
1854 1 51.274955101740005 21.437096267041007 1.5525905049870001 -1 0 0
1855 3 53.0430570018 20.416282159086997 0 -1 0 0
1860 1 54.811158901860004 21.437096267041007 1.5525905049870001 -1 0 0
1861 3 56.57926080192 20.416282159086997 0 -1 0 0
1866 1 58.34736270198 21.437096267041007 1.5525905049870001 -1 0 0
1867 3 60.11546460204 20.416282159086997 0 -1 0 0
1872 1 61.8835665021 21.437096267041007 1.5525905049870001 -1 0 0
1873 3 63.65166840216 20.416282159086997 0 -1 0 0
1879 3 67.18787220228 20.416282159086997 0 -1 0 0
1878 1 65.41977030222 21.437096267041007 1.5525905049870001 -1 0 0
1884 1 68.95597410234001 21.437096267041007 1.5525905049870001 -1 0 0
1885 3 70.7240760024 20.416282159086997 0 -1 0 0
1890 1 72.49217790246 21.437096267041007 1.5525905049870001 -1 0 0
1891 3 74.26027980252 20.416282159086997 0 -1 0 0
1896 1 76.02838170258 21.437096267041007 1.5525905049870001 -1 0 0
1897 3 77.79648360264 20.416282159086997 0 -1 0 0
1902 1 79.5645855027 21.437096267041007 1.5525905049870001 -1 0 0
1903 3 81.33268740276 20.416282159086997 0 -1 0 0
1908 1 83.10078930282 21.437096267041007 1.5525905049870001 -1 0 0
1909 3 84.86889120288001 20.416282159086997 0 -1 0 0
1914 1 86.63699310294001 21.437096267041007 1.5525905049870001 -1 0 0
1915 3 88.405095003 20.416282159086997 0 -1 0 0
1920 1 90.17319690306 21.437096267041007 1.5525905049870001 -1 0 0
1921 3 91.94129880311999 20.416282159086997 0 -1 0 0
1926 1 93.70940070318 21.437096267041007 1.5525905049870001 -1 0 0
1927 3 95.47750260324 20.416282159086997 0 -1 0 0
1932 1 97.2456045033 21.437096267041007 1.5525905049870001 -1 0 0
1934 3 1.768101900059996 23.478724482950007 0 0 0 0
1940 3 5.304305700179995 23.478724482950007 0 0 0 0
1946 3 8.840509500300001 23.478724482950007 0 0 0 0
1952 3 12.37671330042 23.478724482950007 0 0 0 0
1958 3 15.91291710054 23.478724482950007 0 0 0 0
1964 3 19.44912090065999 23.478724482950007 0 0 0 0
1970 3 22.985324700779998 23.478724482950007 0 0 0 0
1976 3 26.521528500900004 23.478724482950007 0 0 0 0
1982 3 30.057732301019996 23.478724482950007 0 0 0 0
1988 3 33.59393610114 23.478724482950007 0 0 0 0
1994 3 37.130139901259994 23.478724482950007 0 0 0 0
2000 3 40.66634370138 23.478724482950007 0 0 0 0
2006 3 44.20254750149999 23.478724482950007 0 0 0 0
2012 3 47.73875130162 23.478724482950007 0 0 0 0
1850 3 51.274955101740005 23.478724482950007 0 -1 0 0
1856 3 54.811158901860004 23.478724482950007 0 -1 0 0
1862 3 58.34736270198 23.478724482950007 0 -1 0 0
1868 3 61.8835665021 23.478724482950007 0 -1 0 0
1874 3 65.41977030222 23.478724482950007 0 -1 0 0
1880 3 68.95597410234001 23.478724482950007 0 -1 0 0
1886 3 72.49217790246 23.478724482950007 0 -1 0 0
1892 3 76.02838170258 23.478724482950007 0 -1 0 0
1898 3 79.5645855027 23.478724482950007 0 -1 0 0
1904 3 83.10078930282 23.478724482950007 0 -1 0 0
1910 3 86.63699310294001 23.478724482950007 0 -1 0 0
1916 3 90.17319690306 23.478724482950007 0 -1 0 0
1922 3 93.70940070318 23.478724482950007 0 -1 0 0
1928 3 97.2456045033 23.478724482950007 0 -1 0 0
2105 1 0 24.499538590904002 1.5525905049870001 0 0 0
2111 1 3.536203800119999 24.499538590904002 1.5525905049870001 0 0 0
2117 1 7.072407600239998 24.499538590904002 1.5525905049870001 0 0 0
2123 1 10.608611400359997 24.499538590904002 1.5525905049870001 0 0 0
2129 1 14.144815200479997 24.499538590904002 1.5525905049870001 0 0 0
2135 1 17.681019000600003 24.499538590904002 1.5525905049870001 0 0 0
2141 1 21.217222800719995 24.499538590904002 1.5525905049870001 0 0 0
2147 1 24.75342660084 24.499538590904002 1.5525905049870001 0 0 0
2153 1 28.289630400959993 24.499538590904002 1.5525905049870001 0 0 0
2159 1 31.82583420108 24.499538590904002 1.5525905049870001 0 0 0
2165 1 35.36203800119999 24.499538590904002 1.5525905049870001 0 0 0
2171 1 38.89824180132 24.499538590904002 1.5525905049870001 0 0 0
2177 1 42.434445601440004 24.499538590904002 1.5525905049870001 0 0 0
2183 1 45.970649401559996 24.499538590904002 1.5525905049870001 0 0 0
2021 1 49.50685320168 24.499538590904002 1.5525905049870001 -1 0 0
2027 1 53.0430570018 24.499538590904002 1.5525905049870001 -1 0 0
2033 1 56.57926080192 24.499538590904002 1.5525905049870001 -1 0 0
2039 1 60.11546460204 24.499538590904002 1.5525905049870001 -1 0 0
2045 1 63.65166840216 24.499538590904002 1.5525905049870001 -1 0 0
2051 1 67.18787220228 24.499538590904002 1.5525905049870001 -1 0 0
2057 1 70.7240760024 24.499538590904002 1.5525905049870001 -1 0 0
2063 1 74.26027980252 24.499538590904002 1.5525905049870001 -1 0 0
2069 1 77.79648360264 24.499538590904002 1.5525905049870001 -1 0 0
2075 1 81.33268740276 24.499538590904002 1.5525905049870001 -1 0 0
2081 1 84.86889120288001 24.499538590904002 1.5525905049870001 -1 0 0
2087 1 88.405095003 24.499538590904002 1.5525905049870001 -1 0 0
2093 1 91.94129880311999 24.499538590904002 1.5525905049870001 -1 0 0
2099 1 95.47750260324 24.499538590904002 1.5525905049870001 -1 0 0
2101 3 0 26.541166806813003 0 0 0 0
2106 1 1.768101900059996 27.561980914767 1.5525905049870001 0 0 0
2107 3 3.536203800119999 26.541166806813003 0 0 0 0
2112 1 5.304305700179995 27.561980914767 1.5525905049870001 0 0 0
2113 3 7.072407600239998 26.541166806813003 0 0 0 0
2118 1 8.840509500300001 27.561980914767 1.5525905049870001 0 0 0
2119 3 10.608611400359997 26.541166806813003 0 0 0 0
2124 1 12.37671330042 27.561980914767 1.5525905049870001 0 0 0
2125 3 14.144815200479997 26.541166806813003 0 0 0 0
2130 1 15.91291710054 27.561980914767 1.5525905049870001 0 0 0
2131 3 17.681019000600003 26.541166806813003 0 0 0 0
2136 1 19.44912090065999 27.561980914767 1.5525905049870001 0 0 0
2137 3 21.217222800719995 26.541166806813003 0 0 0 0
2142 1 22.985324700779998 27.561980914767 1.5525905049870001 0 0 0
2143 3 24.75342660084 26.541166806813003 0 0 0 0
2148 1 26.521528500900004 27.561980914767 1.5525905049870001 0 0 0
2149 3 28.289630400959993 26.541166806813003 0 0 0 0
2154 1 30.057732301019996 27.561980914767 1.5525905049870001 0 0 0
2155 3 31.82583420108 26.541166806813003 0 0 0 0
2160 1 33.59393610114 27.561980914767 1.5525905049870001 0 0 0
2161 3 35.36203800119999 26.541166806813003 0 0 0 0
2166 1 37.130139901259994 27.561980914767 1.5525905049870001 0 0 0
2167 3 38.89824180132 26.541166806813003 0 0 0 0
2172 1 40.66634370138 27.561980914767 1.5525905049870001 0 0 0
2173 3 42.434445601440004 26.541166806813003 0 0 0 0
2178 1 44.20254750149999 27.561980914767 1.5525905049870001 0 0 0
2179 3 45.970649401559996 26.541166806813003 0 0 0 0
2184 1 47.73875130162 27.561980914767 1.5525905049870001 0 0 0
2017 3 49.50685320168 26.541166806813003 0 -1 0 0
2022 1 51.274955101740005 27.561980914767 1.5525905049870001 -1 0 0
2023 3 53.0430570018 26.541166806813003 0 -1 0 0
2028 1 54.811158901860004 27.561980914767 1.5525905049870001 -1 0 0
2029 3 56.57926080192 26.541166806813003 0 -1 0 0
2034 1 58.34736270198 27.561980914767 1.5525905049870001 -1 0 0
2035 3 60.11546460204 26.541166806813003 0 -1 0 0
2040 1 61.8835665021 27.561980914767 1.5525905049870001 -1 0 0