LAMMPS data file via write_data, version 29 Aug 2024, timestep = 2, units = metal

8064 atoms
9 atom types

0 99.01370640336 xlo xhi
0 97.998154363616 ylo yhi
-50 50 zlo zhi

Masses

1 47.867
2 47.867
3 47.867
4 78.971
5 78.971
6 78.971
7 78.971
8 78.971
9 78.971

Atoms # atomic

1433 1 0 2.999410445077705e-15 1.5515108639013928 0 0 0
1439 1 3.536203800119997 1.7868039051256607e-15 1.5515108639013917 0 0 0
1429 5 0 2.041628215908765 0.046469708004944196 0 0 0
1434 1 1.7681019000599985 3.0624423238630025 1.551510863901393 0 0 0
1435 5 3.536203800119998 2.0416282159087644 0.04646970800494387 0 0 0
1440 1 5.304305700179998 3.062442323863003 1.551510863901393 0 0 0
1430 5 1.7681019000599973 5.104070539771765 0.04646970800494271 0 0 0
1436 5 5.304305700179997 5.104070539771765 0.04646970800494305 0 0 0
1445 1 7.072407600239998 1.8282759843601606e-15 1.5515108639013915 0 0 0
1451 1 10.60861140036 1.7870606814737122e-15 1.5515108639013917 0 0 0
1441 5 7.072407600239998 2.0416282159087653 0.046469708004944585 0 0 0
1446 1 8.8405095003 3.062442323863003 1.551510863901393 0 0 0
1447 5 10.60861140036 2.0416282159087644 0.04646970800494387 0 0 0
1442 5 8.8405095003 5.104070539771765 0.04646970800494305 0 0 0
1457 1 14.144815200479998 2.693340723936517e-15 1.5515108639013924 0 0 0
1452 1 12.376713300419999 3.0624423238630025 1.551510863901393 0 0 0
1453 5 14.144815200479998 2.041628215908765 0.04646970800494425 0 0 0
1458 1 15.91291710054 3.062442323863003 1.551510863901393 0 0 0
1448 5 12.376713300419999 5.104070539771765 0.04646970800494263 0 0 0
1454 5 15.91291710054 5.104070539771766 0.04646970800494308 0 0 0
1463 1 17.6810190006 2.751542081872153e-15 1.5515108639013926 0 0 0
1469 1 21.217222800719995 2.9189239606212404e-15 1.5515108639013924 0 0 0
1459 5 17.6810190006 2.041628215908764 0.046469708004943405 0 0 0
1464 1 19.449120900659995 3.0624423238630025 1.551510863901393 0 0 0
1465 5 21.217222800719995 2.0416282159087653 0.04646970800494481 0 0 0
1470 1 22.985324700779998 3.062442323863003 1.5515108639013928 0 0 0
1460 5 19.449120900659995 5.104070539771764 0.0464697080049419 0 0 0
1466 5 22.985324700779998 5.104070539771766 0.04646970800494398 0 0 0
1475 1 24.75342660084 2.9173654841853867e-15 1.5515108639013924 0 0 0
1481 1 28.289630400959997 2.761602495006372e-15 1.5515108639013926 0 0 0
1471 5 24.75342660084 2.0416282159087653 0.04646970800494479 0 0 0
1476 1 26.5215285009 3.0624423238630025 1.551510863901393 0 0 0
1477 5 28.289630400959997 2.041628215908764 0.04646970800494337 0 0 0
1472 5 26.5215285009 5.104070539771764 0.0464697080049419 0 0 0
1487 1 31.82583420108 2.8727303165189635e-15 1.5515108639013924 0 0 0
1482 1 30.057732301019996 3.062442323863003 1.5515108639013928 0 0 0
1483 5 31.82583420108 2.0416282159087653 0.04646970800494485 0 0 0
1488 1 33.593936101139995 3.0624423238630025 1.551510863901393 0 0 0
1478 5 30.057732301019996 5.104070539771766 0.046469708004943336 0 0 0
1484 5 33.593936101139995 5.104070539771765 0.04646970800494196 0 0 0
1493 1 35.3620380012 2.7143104721217097e-15 1.5515108639013926 0 0 0
1499 1 38.89824180132 3.768090525065669e-15 1.5515108639013933 0 0 0
1489 5 35.3620380012 2.041628215908764 0.04646970800494342 0 0 0
1494 1 37.130139901259994 3.062442323863003 1.5515108639013928 0 0 0
1495 5 38.89824180132 2.0416282159087653 0.04646970800494553 0 0 0
1500 1 40.66634370138 3.062442323863003 1.5515108639013928 0 0 0
1490 5 37.130139901259994 5.104070539771766 0.04646970800494325 0 0 0
1496 5 40.66634370138 5.104070539771766 0.04646970800494325 0 0 0
1505 1 42.43444560144 2.710626511511265e-15 1.5515108639013926 0 0 0
1511 1 45.970649401559996 2.8700378246056334e-15 1.5515108639013924 0 0 0
1501 5 42.43444560144 2.041628215908764 0.046469708004943426 0 0 0
1506 1 44.2025475015 3.0624423238630025 1.551510863901393 0 0 0
1507 5 45.970649401559996 2.0416282159087653 0.04646970800494481 0 0 0
1502 5 44.2025475015 5.104070539771765 0.04646970800494196 0 0 0
1349 1 49.50685320168 2.7957957447577082e-15 1.5515108639013924 -1 0 0
1512 1 47.73875130162 3.062442323863003 1.5515108639013928 0 0 0
1345 5 49.50685320168 2.0416282159087653 0.04646970800494461 -1 0 0
1350 1 51.27495510174 3.062442323863003 1.551510863901393 -1 0 0
1508 5 47.73875130162 5.104070539771766 0.04646970800494397 0 0 0
1346 5 51.274955101740005 5.104070539771765 0.04646970800494266 -1 0 0
1355 1 53.0430570018 1.7227647851923171e-15 1.5515108639013915 -1 0 0
1361 1 56.57926080192 1.7153255905812463e-15 1.5515108639013915 -1 0 0
1351 5 53.0430570018 2.041628215908765 0.04646970800494465 -1 0 0
1356 1 54.811158901860004 3.0624423238630025 1.551510863901393 -1 0 0
1357 5 56.57926080192 2.0416282159087644 0.04646970800494388 -1 0 0
1352 5 54.811158901860004 5.104070539771765 0.046469708004942656 -1 0 0
1367 1 60.11546460204 1.7147942195375986e-15 1.5515108639013915 -1 0 0
1373 1 63.65166840216 2.6997171764602917e-15 1.5515108639013924 -1 0 0
1362 1 58.34736270198 3.0624423238630025 1.551510863901393 -1 0 0
1363 5 60.11546460204 2.0416282159087644 0.04646970800494388 -1 0 0
1368 1 61.8835665021 3.0624423238630025 1.551510863901393 -1 0 0
1369 5 63.65166840216 2.041628215908765 0.04646970800494383 -1 0 0
1358 5 58.34736270198 5.104070539771765 0.046469708004942656 -1 0 0
1364 5 61.8835665021 5.104070539771766 0.046469708004943426 -1 0 0
1379 1 67.18787220228 2.8727303165189635e-15 1.5515108639013924 -1 0 0
1375 5 67.18787220228 2.041628215908765 0.04646970800494403 -1 0 0
1374 1 65.41977030222 3.062442323863003 1.5515108639013928 -1 0 0
1380 1 68.95597410234 3.0624423238630025 1.5515108639013928 -1 0 0
1370 5 65.41977030222 5.104070539771766 0.04646970800494329 -1 0 0
1376 5 68.95597410234001 5.104070539771765 0.046469708004942795 -1 0 0
1385 1 70.72407600240001 2.7600083818754284e-15 1.5515108639013926 -1 0 0
1391 1 74.26027980252 2.8743244296499072e-15 1.5515108639013924 -1 0 0
1381 5 70.7240760024 2.0416282159087644 0.04646970800494425 -1 0 0
1386 1 72.49217790246 3.062442323863003 1.5515108639013928 -1 0 0
1387 5 74.26027980252 2.041628215908765 0.046469708004944044 -1 0 0
1382 5 72.49217790246 5.104070539771765 0.0464697080049425 -1 0 0
1397 1 77.79648360264001 2.7594770108317806e-15 1.5515108639013926 -1 0 0
1403 1 81.33268740276 3.7728728644584994e-15 1.5515108639013933 -1 0 0
1392 1 76.02838170257999 3.0624423238630025 1.551510863901393 -1 0 0
1393 5 77.79648360264 2.0416282159087644 0.04646970800494426 -1 0 0
1398 1 79.5645855027 3.062442323863003 1.5515108639013928 -1 0 0
1399 5 81.33268740276 2.0416282159087653 0.04646970800494539 -1 0 0
1388 5 76.02838170258 5.104070539771765 0.04646970800494279 -1 0 0
1394 5 79.5645855027 5.104070539771765 0.046469708004942475 -1 0 0
1409 1 84.86889120288001 2.8737930586062594e-15 1.5515108639013924 -1 0 0
1404 1 83.10078930282 3.062442323863003 1.5515108639013928 -1 0 0
1405 5 84.86889120288001 2.041628215908765 0.046469708004944016 -1 0 0
1410 1 86.63699310294 3.0624423238630025 1.551510863901393 -1 0 0
1400 5 83.10078930282 5.104070539771766 0.0464697080049439 -1 0 0
1406 5 86.63699310294001 5.104070539771764 0.04646970800494125 -1 0 0
1415 1 88.405095003 1.7626249329483275e-15 1.5515108639013917 -1 0 0
1421 1 91.94129880312 2.7581396740488885e-15 1.5515108639013926 -1 0 0
1411 5 88.405095003 2.0416282159087644 0.046469708004944196 -1 0 0
1416 1 90.17319690306 3.062442323863003 1.5515108639013928 -1 0 0
1417 5 91.94129880311999 2.0416282159087635 0.046469708004942725 -1 0 0
1412 5 90.17319690306 5.104070539771766 0.0464697080049431 -1 0 0
1427 1 95.47750260324 3.772341493414852e-15 1.5515108639013933 -1 0 0
1422 1 93.70940070318 3.062442323863003 1.5515108639013928 -1 0 0
1423 5 95.47750260324 2.0416282159087653 0.04646970800494541 -1 0 0
1428 1 97.2456045033 3.062442323863003 1.5515108639013933 -1 0 0
1418 5 93.70940070318 5.104070539771765 0.04646970800494247 -1 0 0
1424 5 97.2456045033 5.104070539771766 0.04646970800494353 -1 0 0
1601 1 0 6.124884647726002 1.5515108639013928 0 0 0
1607 1 3.536203800119997 6.1248846477260015 1.5515108639013924 0 0 0
1597 5 0 8.166512863634765 0.04646970800494375 0 0 0
1602 1 1.7681019000599985 9.187326971589002 1.5515108639013928 0 0 0
1603 5 3.536203800119998 8.166512863634765 0.04646970800494355 0 0 0
1608 1 5.304305700179998 9.187326971589002 1.5515108639013928 0 0 0
1598 5 1.7681019000599973 11.228955187497766 0.046469708004943086 0 0 0
1604 5 5.304305700179997 11.228955187497766 0.04646970800494322 0 0 0
1613 1 7.072407600239998 6.1248846477260015 1.5515108639013924 0 0 0
1619 1 10.60861140036 6.1248846477260015 1.5515108639013924 0 0 0
1609 5 7.072407600239998 8.166512863634765 0.04646970800494411 0 0 0
1614 1 8.8405095003 9.187326971589002 1.5515108639013928 0 0 0
1615 5 10.60861140036 8.166512863634765 0.04646970800494355 0 0 0
1610 5 8.8405095003 11.228955187497766 0.04646970800494322 0 0 0
1625 1 14.144815200479998 6.1248846477260015 1.5515108639013926 0 0 0
1620 1 12.376713300419999 9.187326971589002 1.5515108639013928 0 0 0
1621 5 14.144815200479998 8.166512863634765 0.046469708004943815 0 0 0
1626 1 15.91291710054 9.187326971589002 1.5515108639013928 0 0 0
1616 5 12.376713300419999 11.228955187497766 0.046469708004942996 0 0 0
1622 5 15.91291710054 11.228955187497766 0.04646970800494335 0 0 0
1631 1 17.6810190006 6.1248846477260015 1.5515108639013926 0 0 0
1637 1 21.217222800719995 6.1248846477260015 1.5515108639013926 0 0 0
1627 5 17.6810190006 8.166512863634763 0.04646970800494285 0 0 0
1632 1 19.449120900659995 9.187326971589002 1.5515108639013928 0 0 0
1633 5 21.217222800719995 8.166512863634765 0.0464697080049442 0 0 0
1638 1 22.985324700779998 9.187326971589002 1.5515108639013928 0 0 0
1628 5 19.449120900659995 11.228955187497764 0.046469708004942295 0 0 0
1634 5 22.985324700779998 11.228955187497766 0.046469708004944384 0 0 0
1643 1 24.75342660084 6.1248846477260015 1.5515108639013926 0 0 0
1649 1 28.289630400959997 6.1248846477260015 1.5515108639013926 0 0 0
1639 5 24.75342660084 8.166512863634765 0.04646970800494419 0 0 0
1644 1 26.5215285009 9.187326971589002 1.5515108639013928 0 0 0
1645 5 28.289630400959997 8.166512863634763 0.04646970800494282 0 0 0
1640 5 26.5215285009 11.228955187497764 0.046469708004942295 0 0 0
1655 1 31.82583420108 6.1248846477260015 1.5515108639013926 0 0 0
1650 1 30.057732301019996 9.187326971589002 1.5515108639013928 0 0 0
1651 5 31.82583420108 8.166512863634765 0.046469708004944245 0 0 0
1656 1 33.593936101139995 9.187326971589002 1.5515108639013928 0 0 0
1646 5 30.057732301019996 11.228955187497766 0.04646970800494372 0 0 0
1652 5 33.593936101139995 11.228955187497764 0.04646970800494217 0 0 0
1661 1 35.3620380012 6.1248846477260015 1.5515108639013926 0 0 0
1667 1 38.89824180132 6.1248846477260015 1.5515108639013926 0 0 0
1657 5 35.3620380012 8.166512863634763 0.04646970800494273 0 0 0
1662 1 37.130139901259994 9.187326971589002 1.5515108639013928 0 0 0
1663 5 38.89824180132 8.166512863634765 0.0464697080049448 0 0 0
1668 1 40.66634370138 9.187326971589002 1.5515108639013928 0 0 0
1658 5 37.130139901259994 11.228955187497766 0.046469708004943634 0 0 0
1664 5 40.66634370138 11.228955187497766 0.04646970800494362 0 0 0
1673 1 42.43444560144 6.1248846477260015 1.5515108639013926 0 0 0
1679 1 45.970649401559996 6.1248846477260015 1.5515108639013924 0 0 0
1669 5 42.43444560144 8.166512863634763 0.04646970800494274 0 0 0
1674 1 44.2025475015 9.187326971589002 1.5515108639013928 0 0 0
1675 5 45.970649401559996 8.166512863634765 0.0464697080049442 0 0 0
1670 5 44.2025475015 11.228955187497764 0.04646970800494218 0 0 0
1517 1 49.50685320168 6.1248846477260015 1.5515108639013926 -1 0 0
1680 1 47.73875130162 9.187326971589002 1.5515108639013928 0 0 0
1513 5 49.50685320168 8.166512863634765 0.04646970800494401 -1 0 0
1518 1 51.27495510174 9.187326971589002 1.5515108639013928 -1 0 0
1676 5 47.73875130162 11.228955187497766 0.04646970800494436 0 0 0
1514 5 51.274955101740005 11.228955187497766 0.046469708004942864 -1 0 0
1523 1 53.0430570018 6.1248846477260015 1.5515108639013924 -1 0 0
1529 1 56.57926080192 6.1248846477260015 1.5515108639013926 -1 0 0
1519 5 53.0430570018 8.166512863634765 0.046469708004944175 -1 0 0
1524 1 54.811158901860004 9.187326971589002 1.551510863901393 -1 0 0
1525 5 56.57926080192 8.166512863634765 0.046469708004943405 -1 0 0
1520 5 54.811158901860004 11.228955187497766 0.04646970800494304 -1 0 0
1535 1 60.11546460204 6.1248846477260015 1.5515108639013926 -1 0 0
1541 1 63.651668402160006 6.1248846477260015 1.5515108639013926 -1 0 0
1530 1 58.34736270198 9.187326971589002 1.551510863901393 -1 0 0
1531 5 60.11546460204 8.166512863634765 0.046469708004943405 -1 0 0
1536 1 61.8835665021 9.187326971589002 1.551510863901393 -1 0 0
1537 5 63.65166840216 8.166512863634765 0.04646970800494324 -1 0 0
1526 5 58.34736270198 11.228955187497766 0.04646970800494304 -1 0 0
1532 5 61.8835665021 11.228955187497766 0.04646970800494381 -1 0 0
1547 1 67.18787220228 6.1248846477260015 1.5515108639013924 -1 0 0
1543 5 67.18787220228 8.166512863634765 0.046469708004943336 -1 0 0
1542 1 65.41977030222 9.187326971589002 1.5515108639013928 -1 0 0
1548 1 68.95597410234 9.187326971589002 1.5515108639013928 -1 0 0
1538 5 65.41977030222 11.228955187497766 0.04646970800494348 -1 0 0
1544 5 68.95597410234001 11.228955187497766 0.046469708004943 -1 0 0
1553 1 70.72407600240001 6.1248846477260015 1.5515108639013926 -1 0 0
1559 1 74.26027980252 6.1248846477260015 1.5515108639013926 -1 0 0
1549 5 70.7240760024 8.166512863634763 0.04646970800494355 -1 0 0
1554 1 72.49217790246 9.187326971589002 1.5515108639013928 -1 0 0
1555 5 74.26027980252 8.166512863634765 0.04646970800494336 -1 0 0
1550 5 72.49217790246 11.228955187497766 0.046469708004942885 -1 0 0
1565 1 77.79648360264001 6.1248846477260015 1.5515108639013926 -1 0 0
1571 1 81.33268740276 6.1248846477260015 1.5515108639013926 -1 0 0
1560 1 76.02838170257999 9.187326971589002 1.5515108639013928 -1 0 0
1561 5 77.79648360264 8.166512863634763 0.04646970800494355 -1 0 0
1566 1 79.5645855027 9.187326971589002 1.5515108639013928 -1 0 0
1567 5 81.33268740276 8.166512863634765 0.04646970800494466 -1 0 0
1556 5 76.02838170258 11.228955187497766 0.046469708004943 -1 0 0
1562 5 79.5645855027 11.228955187497766 0.04646970800494286 -1 0 0
1577 1 84.86889120288001 6.1248846477260015 1.5515108639013926 -1 0 0
1572 1 83.10078930282 9.187326971589002 1.5515108639013928 -1 0 0
1573 5 84.86889120288001 8.166512863634765 0.04646970800494332 -1 0 0
1578 1 86.63699310294 9.187326971589002 1.5515108639013928 -1 0 0
1568 5 83.10078930282 11.228955187497766 0.0464697080049443 -1 0 0
1574 5 86.63699310294001 11.228955187497764 0.04646970800494149 -1 0 0
1583 1 88.405095003 6.1248846477260015 1.5515108639013924 -1 0 0
1589 1 91.94129880312 6.1248846477260015 1.5515108639013926 -1 0 0
1579 5 88.405095003 8.166512863634765 0.0464697080049438 -1 0 0
1584 1 90.17319690306 9.187326971589002 1.5515108639013926 -1 0 0
1585 5 91.94129880311999 8.166512863634763 0.04646970800494203 -1 0 0
1580 5 90.17319690306 11.228955187497766 0.04646970800494335 -1 0 0
1595 1 95.47750260324 6.1248846477260015 1.5515108639013926 -1 0 0
1590 1 93.70940070318 9.187326971589002 1.5515108639013928 -1 0 0
1591 5 95.47750260324 8.166512863634765 0.04646970800494467 -1 0 0
1596 1 97.2456045033 9.187326971589002 1.551510863901393 -1 0 0
1586 5 93.70940070318 11.228955187497766 0.04646970800494285 -1 0 0
1592 5 97.2456045033 11.228955187497766 0.04646970800494372 -1 0 0
1769 1 0 12.249769295452005 1.5515108639013928 0 0 0
1775 1 3.536203800119997 12.249769295452003 1.5515108639013924 0 0 0
1765 5 0 14.291397511360767 0.046469708004942344 0 0 0
1771 5 3.536203800119998 14.291397511360767 0.04646970800494204 0 0 0
1770 1 1.7681019000599982 15.312211619315 1.551510863901393 0 0 0
1776 1 5.304305700179998 15.312211619315 1.5515108639013928 0 0 0
1781 1 7.072407600239998 12.249769295452003 1.5515108639013928 0 0 0
1787 1 10.60861140036 12.249769295452003 1.5515108639013924 0 0 0
1777 5 7.072407600239998 14.291397511360767 0.046469708004942635 0 0 0
1783 5 10.60861140036 14.291397511360767 0.04646970800494204 0 0 0
1782 1 8.8405095003 15.312211619315 1.5515108639013928 0 0 0
1793 1 14.144815200479998 12.249769295452003 1.5515108639013924 0 0 0
1789 5 14.144815200479998 14.291397511360767 0.0464697080049424 0 0 0
1788 1 12.376713300419999 15.312211619315 1.551510863901393 0 0 0
1794 1 15.91291710054 15.312211619315 1.5515108639013928 0 0 0
1799 1 17.6810190006 12.249769295452003 1.5515108639013926 0 0 0
1805 1 21.217222800719995 12.249769295452003 1.5515108639013926 0 0 0
1795 5 17.6810190006 14.291397511360765 0.046469708004941254 0 0 0
1801 5 21.217222800719995 14.291397511360767 0.04646970800494273 0 0 0
1800 1 19.449120900659995 15.312211619315 1.5515108639013924 0 0 0
1806 1 22.985324700779998 15.312211619315 1.5515108639013926 0 0 0
1811 1 24.75342660084 12.249769295452003 1.5515108639013926 0 0 0
1817 1 28.289630400959997 12.249769295452003 1.5515108639013926 0 0 0
1807 5 24.75342660084 14.291397511360767 0.04646970800494272 0 0 0
1813 5 28.289630400959997 14.291397511360765 0.04646970800494123 0 0 0
1812 1 26.5215285009 15.312211619315 1.5515108639013921 0 0 0
1823 1 31.82583420108 12.249769295452003 1.5515108639013926 0 0 0
1819 5 31.82583420108 14.291397511360767 0.04646970800494279 0 0 0
1818 1 30.057732301019996 15.312211619315 1.5515108639013928 0 0 0
1824 1 33.593936101139995 15.312211619315 1.5515108639013924 0 0 0
1829 1 35.3620380012 12.249769295452003 1.5515108639013926 0 0 0
1835 1 38.89824180132 12.249769295452003 1.5515108639013928 0 0 0
1825 5 35.3620380012 14.291397511360765 0.04646970800494126 0 0 0
1831 5 38.89824180132 14.291397511360767 0.04646970800494334 0 0 0
1830 1 37.130139901259994 15.312211619315 1.5515108639013926 0 0 0
1836 1 40.66634370138 15.312211619315 1.5515108639013926 0 0 0
1841 1 42.43444560144 12.249769295452003 1.5515108639013926 0 0 0
1847 1 45.970649401559996 12.249769295452003 1.5515108639013926 0 0 0
1837 5 42.43444560144 14.291397511360765 0.04646970800494126 0 0 0
1843 5 45.970649401559996 14.291397511360767 0.04646970800494274 0 0 0
1842 1 44.2025475015 15.312211619315 1.5515108639013924 0 0 0
1685 1 49.50685320168 12.249769295452003 1.5515108639013926 -1 0 0
1681 5 49.50685320168 14.291397511360767 0.046469708004942586 -1 0 0
1848 1 47.73875130162 15.312211619315 1.5515108639013926 0 0 0
1686 1 51.27495510174 15.312211619315 1.5515108639013928 -1 0 0
1691 1 53.0430570018 12.249769295452003 1.5515108639013924 -1 0 0
1697 1 56.57926080192 12.249769295452003 1.5515108639013921 -1 0 0
1687 5 53.0430570018 14.291397511360767 0.04646970800494276 -1 0 0
1693 5 56.57926080192 14.291397511360767 0.04646970800494198 -1 0 0
1692 1 54.811158901860004 15.312211619315 1.551510863901393 -1 0 0
1703 1 60.11546460204 12.249769295452003 1.5515108639013921 -1 0 0
1709 1 63.651668402160006 12.249769295452003 1.5515108639013924 -1 0 0
1699 5 60.11546460204 14.291397511360767 0.04646970800494198 -1 0 0
1705 5 63.65166840216 14.291397511360767 0.04646970800494189 -1 0 0
1698 1 58.34736270198 15.312211619315 1.551510863901393 -1 0 0
1704 1 61.8835665021 15.312211619315 1.551510863901393 -1 0 0
1715 1 67.18787220228 12.249769295452003 1.5515108639013926 -1 0 0
1711 5 67.18787220228 14.291397511360767 0.046469708004941886 -1 0 0
1710 1 65.41977030222 15.312211619315 1.5515108639013928 -1 0 0
1716 1 68.95597410234 15.312211619315 1.5515108639013921 -1 0 0
1721 1 70.72407600240001 12.249769295452003 1.5515108639013926 -1 0 0
1727 1 74.26027980252 12.249769295452003 1.5515108639013926 -1 0 0
1717 5 70.7240760024 14.291397511360767 0.046469708004942094 -1 0 0
1723 5 74.26027980252 14.291397511360767 0.0464697080049419 -1 0 0
1722 1 72.49217790246 15.312211619315 1.5515108639013926 -1 0 0
1733 1 77.79648360264001 12.249769295452003 1.5515108639013926 -1 0 0
1739 1 81.33268740276 12.249769295452003 1.5515108639013926 -1 0 0
1729 5 77.79648360264 14.291397511360767 0.0464697080049421 -1 0 0
1735 5 81.33268740276 14.291397511360767 0.04646970800494321 -1 0 0
1728 1 76.02838170257999 15.312211619315 1.5515108639013924 -1 0 0
1734 1 79.5645855027 15.312211619315 1.5515108639013926 -1 0 0
1745 1 84.86889120288001 12.249769295452003 1.5515108639013926 -1 0 0
1741 5 84.86889120288001 14.291397511360767 0.04646970800494187 -1 0 0
1740 1 83.10078930282 15.312211619315 1.5515108639013926 -1 0 0
1746 1 86.63699310294 15.312211619315 1.5515108639013924 -1 0 0
1751 1 88.405095003 12.249769295452003 1.5515108639013924 -1 0 0
1757 1 91.94129880312 12.249769295452003 1.5515108639013924 -1 0 0
1747 5 88.405095003 14.291397511360767 0.04646970800494225 -1 0 0
1753 5 91.94129880311999 14.291397511360765 0.046469708004940484 -1 0 0
1752 1 90.17319690306 15.312211619315 1.5515108639013928 -1 0 0
1763 1 95.47750260324 12.249769295452003 1.5515108639013926 -1 0 0
1759 5 95.47750260324 14.291397511360767 0.04646970800494322 -1 0 0
1758 1 93.70940070318 15.312211619315 1.5515108639013926 -1 0 0
1764 1 97.2456045033 15.312211619315 1.551510863901393 -1 0 0
1766 5 1.7681019000599973 17.353839835223763 0.0464697080049439 0 0 0
1937 1 0 18.374653943178 1.5515108639013935 0 0 0
1943 1 3.536203800119997 18.374653943178 1.551510863901393 0 0 0
1772 5 5.304305700179997 17.353839835223763 0.046469708004944286 0 0 0
1933 5 0 20.416282159086762 0.04646970800494441 0 0 0
1938 1 1.7681019000599982 21.437096267041003 1.5515108639013921 0 0 0
1939 5 3.536203800119998 20.416282159086762 0.04646970800494411 0 0 0
1944 1 5.304305700179998 21.437096267041003 1.5515108639013921 0 0 0
1949 1 7.072407600239998 18.374653943178 1.5515108639013935 0 0 0
1778 5 8.8405095003 17.353839835223763 0.04646970800494428 0 0 0
1955 1 10.60861140036 18.374653943178 1.551510863901393 0 0 0
1945 5 7.072407600239998 20.416282159086762 0.046469708004944835 0 0 0
1950 1 8.8405095003 21.437096267041003 1.5515108639013921 0 0 0
1951 5 10.60861140036 20.416282159086762 0.04646970800494413 0 0 0
1784 5 12.376713300419999 17.353839835223763 0.04646970800494382 0 0 0
1961 1 14.144815200479998 18.374653943178 1.551510863901393 0 0 0
1790 5 15.91291710054 17.353839835223763 0.046469708004944314 0 0 0
1956 1 12.376713300419999 21.437096267041003 1.5515108639013924 0 0 0
1957 5 14.144815200479998 20.416282159086762 0.046469708004944474 0 0 0
1962 1 15.91291710054 21.437096267041003 1.5515108639013924 0 0 0
1967 1 17.6810190006 18.374653943178 1.5515108639013933 0 0 0
1796 5 19.449120900659995 17.353839835223763 0.04646970800494316 0 0 0
1973 1 21.217222800719995 18.374653943178 1.5515108639013937 0 0 0
1802 5 22.985324700779998 17.353839835223763 0.046469708004945036 0 0 0
1963 5 17.6810190006 20.416282159086762 0.04646970800494349 0 0 0
1968 1 19.449120900659995 21.437096267041003 1.5515108639013917 0 0 0
1969 5 21.217222800719995 20.416282159086762 0.04646970800494474 0 0 0
1974 1 22.985324700779998 21.437096267041003 1.5515108639013921 0 0 0
1979 1 24.75342660084 18.374653943178 1.5515108639013937 0 0 0
1808 5 26.5215285009 17.353839835223763 0.04646970800494316 0 0 0
1985 1 28.289630400959997 18.374653943178 1.5515108639013933 0 0 0
1975 5 24.75342660084 20.416282159086762 0.04646970800494474 0 0 0
1980 1 26.5215285009 21.437096267041003 1.5515108639013917 0 0 0
1981 5 28.289630400959997 20.416282159086762 0.04646970800494346 0 0 0
1814 5 30.057732301019996 17.353839835223763 0.04646970800494456 0 0 0
1820 5 33.593936101139995 17.353839835223763 0.04646970800494322 0 0 0
1991 1 31.82583420108 18.374653943178 1.5515108639013937 0 0 0
1986 1 30.057732301019996 21.437096267041003 1.5515108639013921 0 0 0
1987 5 31.82583420108 20.416282159086762 0.04646970800494478 0 0 0
1992 1 33.593936101139995 21.437096267041003 1.551510863901392 0 0 0
1997 1 35.3620380012 18.374653943178 1.5515108639013933 0 0 0
1826 5 37.130139901259994 17.353839835223763 0.04646970800494449 0 0 0
2003 1 38.89824180132 18.374653943178 1.5515108639013935 0 0 0
1832 5 40.66634370138 17.353839835223763 0.04646970800494449 0 0 0
1993 5 35.3620380012 20.416282159086762 0.046469708004943364 0 0 0
1998 1 37.130139901259994 21.437096267041003 1.5515108639013921 0 0 0
1999 5 38.89824180132 20.416282159086762 0.04646970800494547 0 0 0
2004 1 40.66634370138 21.437096267041003 1.5515108639013921 0 0 0
2009 1 42.43444560144 18.374653943178 1.5515108639013933 0 0 0
1838 5 44.2025475015 17.353839835223763 0.04646970800494322 0 0 0
2015 1 45.970649401559996 18.374653943178 1.5515108639013937 0 0 0
2005 5 42.43444560144 20.416282159086762 0.046469708004943364 0 0 0
2010 1 44.2025475015 21.437096267041003 1.5515108639013917 0 0 0
2011 5 45.970649401559996 20.416282159086762 0.04646970800494474 0 0 0
1844 5 47.73875130162 17.353839835223763 0.04646970800494503 0 0 0
1853 1 49.50685320168 18.374653943178 1.5515108639013935 -1 0 0
1682 5 51.274955101740005 17.353839835223763 0.04646970800494377 -1 0 0
2016 1 47.73875130162 21.437096267041003 1.551510863901392 0 0 0
1849 5 49.50685320168 20.416282159086762 0.04646970800494473 -1 0 0
1854 1 51.27495510174 21.437096267041003 1.5515108639013921 -1 0 0
1859 1 53.0430570018 18.374653943178 1.551510863901393 -1 0 0
1688 5 54.811158901860004 17.353839835223763 0.046469708004943835 -1 0 0
1865 1 56.57926080192 18.374653943178 1.551510863901393 -1 0 0
1855 5 53.0430570018 20.416282159086762 0.046469708004944835 -1 0 0
1860 1 54.811158901860004 21.437096267041003 1.5515108639013924 -1 0 0
1861 5 56.57926080192 20.416282159086762 0.04646970800494405 -1 0 0
1694 5 58.34736270198 17.353839835223763 0.046469708004943835 -1 0 0
1871 1 60.11546460204 18.374653943178 1.551510863901393 -1 0 0
1700 5 61.8835665021 17.353839835223763 0.046469708004944606 -1 0 0
1877 1 63.651668402160006 18.374653943178 1.5515108639013933 -1 0 0
1866 1 58.34736270198 21.437096267041003 1.5515108639013924 -1 0 0
1867 5 60.11546460204 20.416282159086762 0.04646970800494406 -1 0 0
1872 1 61.8835665021 21.437096267041003 1.5515108639013924 -1 0 0
1873 5 63.65166840216 20.416282159086762 0.04646970800494408 -1 0 0
1706 5 65.41977030222 17.353839835223763 0.04646970800494437 -1 0 0
1883 1 67.18787220228 18.374653943178 1.5515108639013937 -1 0 0
1712 5 68.95597410234001 17.353839835223763 0.04646970800494405 -1 0 0
1879 5 67.18787220228 20.416282159086762 0.04646970800494396 -1 0 0
1878 1 65.41977030222 21.437096267041003 1.5515108639013921 -1 0 0
1884 1 68.95597410234 21.437096267041003 1.551510863901392 -1 0 0
1889 1 70.72407600240001 18.374653943178 1.5515108639013933 -1 0 0
1718 5 72.49217790246 17.353839835223763 0.04646970800494373 -1 0 0
1895 1 74.26027980252 18.374653943178 1.5515108639013937 -1 0 0
1885 5 70.7240760024 20.416282159086762 0.046469708004944196 -1 0 0
1890 1 72.49217790246 21.437096267041003 1.5515108639013921 -1 0 0
1891 5 74.26027980252 20.416282159086762 0.04646970800494397 -1 0 0
1724 5 76.02838170258 17.353839835223763 0.04646970800494405 -1 0 0
1901 1 77.79648360264001 18.374653943178 1.5515108639013933 -1 0 0
1730 5 79.5645855027 17.353839835223763 0.04646970800494372 -1 0 0
1907 1 81.33268740276 18.374653943178 1.5515108639013937 -1 0 0
1896 1 76.02838170257999 21.437096267041003 1.5515108639013917 -1 0 0
1897 5 77.79648360264 20.416282159086762 0.046469708004944196 -1 0 0
1902 1 79.5645855027 21.437096267041003 1.5515108639013921 -1 0 0
1903 5 81.33268740276 20.416282159086762 0.04646970800494535 -1 0 0
1736 5 83.10078930282 17.353839835223763 0.046469708004944967 -1 0 0
1913 1 84.86889120288001 18.374653943178 1.551510863901394 -1 0 0
1742 5 86.63699310294001 17.353839835223763 0.0464697080049425 -1 0 0
1908 1 83.10078930282 21.437096267041003 1.551510863901392 -1 0 0
1909 5 84.86889120288001 20.416282159086762 0.046469708004943946 -1 0 0
1914 1 86.63699310294 21.437096267041003 1.5515108639013917 -1 0 0
1919 1 88.405095003 18.374653943178 1.5515108639013935 -1 0 0
1748 5 90.17319690306 17.353839835223763 0.04646970800494426 -1 0 0
1925 1 91.94129880312 18.374653943178 1.5515108639013933 -1 0 0
1915 5 88.405095003 20.416282159086762 0.046469708004944536 -1 0 0
1920 1 90.17319690306 21.437096267041007 1.551510863901392 -1 0 0
1921 5 91.94129880311999 20.416282159086762 0.04646970800494258 -1 0 0
1754 5 93.70940070318 17.353839835223763 0.04646970800494372 -1 0 0
1931 1 95.47750260324 18.374653943178 1.5515108639013937 -1 0 0
1760 5 97.2456045033 17.353839835223763 0.04646970800494468 -1 0 0
1926 1 93.70940070318 21.437096267041003 1.5515108639013921 -1 0 0
1927 5 95.47750260324 20.416282159086762 0.04646970800494536 -1 0 0
1932 1 97.2456045033 21.437096267041003 1.5515108639013924 -1 0 0
1934 5 1.7681019000599973 23.47872448294977 0.046469708004941664 0 0 0
1940 5 5.304305700179997 23.47872448294977 0.04646970800494202 0 0 0
2105 1 0 24.499538590904002 1.551510863901393 0 0 0
2111 1 3.536203800119997 24.499538590904002 1.5515108639013928 0 0 0
2101 5 0 26.541166806812765 0.04646970800494425 0 0 0
2106 1 1.7681019000599985 27.561980914767002 1.551510863901393 0 0 0
2107 5 3.536203800119998 26.541166806812765 0.04646970800494382 0 0 0
2112 1 5.304305700179998 27.561980914767002 1.551510863901393 0 0 0
1946 5 8.8405095003 23.47872448294977 0.04646970800494202 0 0 0
2117 1 7.072407600239998 24.499538590904002 1.5515108639013933 0 0 0
2123 1 10.60861140036 24.499538590904002 1.5515108639013928 0 0 0
2113 5 7.072407600239998 26.541166806812765 0.046469708004944585 0 0 0
2118 1 8.8405095003 27.561980914767002 1.551510863901393 0 0 0
2119 5 10.60861140036 26.541166806812765 0.046469708004943835 0 0 0
1952 5 12.376713300419999 23.47872448294977 0.046469708004941664 0 0 0
1958 5 15.91291710054 23.47872448294977 0.046469708004942115 0 0 0
2129 1 14.144815200479998 24.499538590904002 1.5515108639013924 0 0 0
2124 1 12.376713300419999 27.561980914767002 1.551510863901393 0 0 0
2125 5 14.144815200479998 26.541166806812765 0.046469708004944314 0 0 0
2130 1 15.91291710054 27.561980914767002 1.5515108639013937 0 0 0
1964 5 19.449120900659995 23.47872448294977 0.04646970800494092 0 0 0