LAMMPS data file via write_data, version 29 Aug 2024, timestep = 2, units = metal

5376 atoms
6 atom types

0 99.01370640336 xlo xhi
0 97.998154363616 ylo yhi
-50 50 zlo zhi

Masses

1 47.867
2 47.867
3 78.971
4 78.971
5 78.971
6 78.971

Atoms # atomic

1433 1 0 2.008205622162835e-15 1.5516324305200826 0 0 0
1439 1 3.5362038001199965 1.857762044688532e-15 1.5516324305200824 0 0 0
1429 4 0 2.041628215908768 0.046440431083857474 0 0 0
1434 1 1.7681019000599985 3.062442323863003 1.551632430520083 0 0 0
1435 4 3.536203800119998 2.041628215908768 0.046440431083857245 0 0 0
1440 1 5.304305700179998 3.062442323863003 1.551632430520083 0 0 0
1430 4 1.7681019000599973 5.104070539771769 0.046440431083856024 0 0 0
1436 4 5.304305700179997 5.10407053977177 0.04644043108385622 0 0 0
1445 1 7.072407600239998 1.965218853844972e-15 1.5516324305200824 0 0 0
1451 1 10.60861140036 1.8556166174552134e-15 1.5516324305200824 0 0 0
1441 4 7.072407600239998 2.041628215908769 0.046440431083858015 0 0 0
1446 1 8.840509500299998 3.062442323863003 1.551632430520083 0 0 0
1447 4 10.60861140036 2.041628215908768 0.046440431083857245 0 0 0
1442 4 8.8405095003 5.10407053977177 0.046440431083856225 0 0 0
1457 1 14.144815200479998 1.7755151026374726e-15 1.5516324305200824 0 0 0
1452 1 12.376713300419999 3.062442323863003 1.551632430520083 0 0 0
1453 4 14.144815200479998 2.041628215908768 0.046440431083857536 0 0 0
1458 1 15.91291710054 3.062442323863003 1.551632430520083 0 0 0
1448 4 12.376713300419999 5.104070539771769 0.04644043108385595 0 0 0
1454 4 15.91291710054 5.10407053977177 0.04644043108385647 0 0 0
1463 1 17.6810190006 1.6803472559612632e-15 1.5516324305200824 0 0 0
1469 1 21.217222800719995 1.9289030381815365e-15 1.5516324305200822 0 0 0
1459 4 17.6810190006 2.0416282159087675 0.046440431083856495 0 0 0
1464 1 19.44912090066 3.062442323863003 1.551632430520083 0 0 0
1465 4 21.217222800719995 2.0416282159087684 0.04644043108385796 0 0 0
1470 1 22.985324700779998 3.062442323863003 1.5516324305200833 0 0 0
1460 4 19.449120900659995 5.104070539771769 0.046440431083855226 0 0 0
1466 4 22.985324700779998 5.1040705397717705 0.04644043108385735 0 0 0
1475 1 24.75342660084 1.9278694363906226e-15 1.5516324305200822 0 0 0
1481 1 28.28963040096 1.641477318246795e-15 1.5516324305200824 0 0 0
1471 4 24.75342660084 2.0416282159087684 0.04644043108385795 0 0 0
1476 1 26.521528500899997 3.062442323863003 1.551632430520083 0 0 0
1477 4 28.289630400959997 2.0416282159087675 0.04644043108385646 0 0 0
1472 4 26.5215285009 5.104070539771769 0.04644043108385523 0 0 0
1487 1 31.82583420108 1.893254317783544e-15 1.5516324305200822 0 0 0
1482 1 30.057732301019996 3.062442323863003 1.551632430520083 0 0 0
1483 4 31.82583420108 2.0416282159087684 0.046440431083858 0 0 0
1488 1 33.593936101139995 3.062442323863003 1.551632430520083 0 0 0
1478 4 30.057732301019996 5.10407053977177 0.04644043108385686 0 0 0
1484 4 33.593936101139995 5.104070539771769 0.04644043108385512 0 0 0
1493 1 35.3620380012 1.6486888012899365e-15 1.5516324305200824 0 0 0
1499 1 38.89824180132 1.8384470466556694e-15 1.551632430520082 0 0 0
1489 4 35.3620380012 2.0416282159087675 0.046440431083856364 0 0 0
1494 1 37.130139901259994 3.062442323863003 1.551632430520083 0 0 0
1495 4 38.89824180132 2.041628215908769 0.04644043108385868 0 0 0
1500 1 40.66634370138 3.062442323863003 1.551632430520083 0 0 0
1490 4 37.130139901259994 5.10407053977177 0.046440431083856884 0 0 0
1496 4 40.66634370138 5.10407053977177 0.04644043108385688 0 0 0
1505 1 42.43444560144 1.6471744339628127e-15 1.5516324305200824 0 0 0
1511 1 45.970649401559996 1.9337106935436305e-15 1.5516324305200822 0 0 0
1501 4 42.43444560144 2.0416282159087675 0.04644043108385637 0 0 0
1506 1 44.2025475015 3.062442323863003 1.551632430520083 0 0 0
1507 4 45.970649401559996 2.0416282159087684 0.04644043108385796 0 0 0
1502 4 44.2025475015 5.104070539771769 0.04644043108385512 0 0 0
1349 1 49.50685320168 1.8567820548171272e-15 1.5516324305200822 -1 0 0
1512 1 47.73875130162 3.062442323863003 1.5516324305200833 0 0 0
1345 4 49.50685320168 2.041628215908769 0.04644043108385778 -1 0 0
1350 1 51.27495510174 3.062442323863003 1.551632430520083 -1 0 0
1508 4 47.73875130162 5.1040705397717705 0.04644043108385735 0 0 0
1346 4 51.274955101740005 5.104070539771769 0.04644043108385587 -1 0 0
1355 1 53.0430570018 1.7032139424768252e-15 1.5516324305200824 -1 0 0
1361 1 56.57926080192 1.7580212136046998e-15 1.5516324305200822 -1 0 0
1351 4 53.0430570018 2.041628215908768 0.046440431083857314 -1 0 0
1356 1 54.81115890186 3.062442323863003 1.551632430520083 -1 0 0
1357 4 56.57926080192 2.041628215908768 0.04644043108385733 -1 0 0
1352 4 54.811158901860004 5.104070539771769 0.04644043108385603 -1 0 0
1367 1 60.11546460204 1.7585019791409093e-15 1.5516324305200822 -1 0 0
1373 1 63.651668402160006 1.7553229501166768e-15 1.5516324305200822 -1 0 0
1362 1 58.347362701979996 3.062442323863003 1.551632430520083 -1 0 0
1363 4 60.11546460204 2.041628215908768 0.04644043108385733 -1 0 0
1368 1 61.883566502099995 3.062442323863003 1.551632430520083 -1 0 0
1369 4 63.65166840216 2.0416282159087684 0.04644043108385787 -1 0 0
1358 4 58.34736270198 5.104070539771769 0.04644043108385603 -1 0 0
1364 4 61.8835665021 5.10407053977177 0.04644043108385672 -1 0 0
1379 1 67.18787220228 1.891331255638706e-15 1.5516324305200822 -1 0 0
1375 4 67.18787220228 2.0416282159087684 0.04644043108385725 -1 0 0
1374 1 65.41977030222 3.062442323863003 1.551632430520083 -1 0 0
1380 1 68.95597410234 3.062442323863003 1.551632430520083 -1 0 0
1370 4 65.41977030222 5.10407053977177 0.046440431083856565 -1 0 0
1376 4 68.95597410234001 5.104070539771769 0.04644043108385588 -1 0 0
1385 1 70.72407600240001 1.6395542561019574e-15 1.5516324305200824 -1 0 0
1391 1 74.26027980252 1.8927735522473345e-15 1.5516324305200822 -1 0 0
1381 4 70.7240760024 2.0416282159087675 0.04644043108385712 -1 0 0
1386 1 72.49217790246 3.062442323863003 1.551632430520083 -1 0 0
1387 4 74.26027980252 2.0416282159087684 0.046440431083857266 -1 0 0
1382 4 72.49217790246 5.10407053977177 0.04644043108385603 -1 0 0
1397 1 77.79648360264001 1.6395542561019574e-15 1.5516324305200824 -1 0 0
1403 1 81.33268740276 1.8802736483058895e-15 1.551632430520082 -1 0 0
1392 1 76.02838170257999 3.062442323863003 1.551632430520083 -1 0 0
1393 4 77.79648360264 2.0416282159087675 0.04644043108385712 -1 0 0
1398 1 79.5645855027 3.062442323863003 1.551632430520083 -1 0 0
1399 4 81.33268740276 2.041628215908769 0.046440431083858556 -1 0 0
1388 4 76.02838170258 5.104070539771769 0.04644043108385588 -1 0 0
1394 4 79.5645855027 5.10407053977177 0.0464404310838561 -1 0 0
1409 1 84.86889120288001 1.931715560680298e-15 1.5516324305200822 -1 0 0
1404 1 83.10078930282 3.062442323863003 1.551632430520083 -1 0 0
1405 4 84.86889120288001 2.0416282159087684 0.046440431083857245 -1 0 0
1410 1 86.63699310294 3.062442323863003 1.551632430520083 -1 0 0
1400 4 83.10078930282 5.1040705397717705 0.04644043108385729 -1 0 0
1406 4 86.63699310294001 5.104070539771768 0.04644043108385449 -1 0 0
1415 1 88.405095003 1.7717647785595496e-15 1.5516324305200824 -1 0 0
1421 1 91.94129880312 1.6301973458254972e-15 1.5516324305200824 -1 0 0
1411 4 88.405095003 2.0416282159087675 0.046440431083857446 -1 0 0
1416 1 90.17319690306 3.0624423238630025 1.551632430520083 -1 0 0
1417 4 91.94129880311999 2.041628215908767 0.04644043108385573 -1 0 0
1412 4 90.17319690306 5.104070539771769 0.0464404310838562 -1 0 0
1427 1 95.47750260324 1.8384470466556694e-15 1.551632430520082 -1 0 0
1422 1 93.70940070318 3.062442323863003 1.551632430520083 -1 0 0
1423 4 95.47750260324 2.041628215908769 0.04644043108385857 -1 0 0
1428 1 97.2456045033 3.062442323863003 1.5516324305200833 -1 0 0
1418 4 93.70940070318 5.10407053977177 0.04644043108385609 -1 0 0
1424 4 97.2456045033 5.10407053977177 0.04644043108385686 -1 0 0
1601 1 0 6.124884647726002 1.551632430520083 0 0 0
1607 1 3.5362038001199965 6.1248846477260015 1.5516324305200828 0 0 0
1597 4 0 8.166512863634768 0.04644043108385701 0 0 0
1602 1 1.7681019000599985 9.187326971589002 1.551632430520083 0 0 0
1603 4 3.536203800119998 8.166512863634766 0.04644043108385677 0 0 0
1608 1 5.304305700179998 9.187326971589002 1.551632430520083 0 0 0
1598 4 1.7681019000599973 11.22895518749777 0.04644043108385634 0 0 0
1604 4 5.304305700179997 11.22895518749777 0.046440431083856565 0 0 0
1613 1 7.072407600239998 6.124884647726002 1.5516324305200826 0 0 0
1619 1 10.60861140036 6.1248846477260015 1.5516324305200828 0 0 0
1609 4 7.072407600239998 8.166512863634768 0.046440431083857564 0 0 0
1614 1 8.8405095003 9.187326971589002 1.551632430520083 0 0 0
1615 4 10.60861140036 8.166512863634766 0.04644043108385677 0 0 0
1610 4 8.8405095003 11.22895518749777 0.046440431083856565 0 0 0
1625 1 14.144815200479998 6.1248846477260015 1.5516324305200828 0 0 0
1620 1 12.376713300419999 9.187326971589002 1.551632430520083 0 0 0
1621 4 14.144815200479998 8.166512863634768 0.046440431083857064 0 0 0
1626 1 15.91291710054 9.187326971589002 1.5516324305200828 0 0 0
1616 4 12.376713300419999 11.22895518749777 0.04644043108385634 0 0 0
1622 4 15.91291710054 11.22895518749777 0.046440431083856974 0 0 0
1631 1 17.6810190006 6.1248846477260015 1.5516324305200826 0 0 0
1637 1 21.217222800719995 6.1248846477260015 1.5516324305200826 0 0 0
1627 4 17.6810190006 8.166512863634766 0.04644043108385613 0 0 0
1632 1 19.449120900659995 9.187326971589002 1.5516324305200828 0 0 0
1633 4 21.217222800719995 8.166512863634768 0.046440431083857495 0 0 0
1638 1 22.985324700779998 9.187326971589002 1.5516324305200828 0 0 0
1628 4 19.449120900659995 11.22895518749777 0.04644043108385559 0 0 0
1634 4 22.985324700779998 11.228955187497771 0.04644043108385771 0 0 0
1643 1 24.75342660084 6.1248846477260015 1.5516324305200826 0 0 0
1649 1 28.289630400959997 6.1248846477260015 1.5516324305200826 0 0 0
1639 4 24.75342660084 8.166512863634768 0.04644043108385749 0 0 0
1644 1 26.5215285009 9.187326971589002 1.5516324305200828 0 0 0
1645 4 28.289630400959997 8.166512863634766 0.046440431083856086 0 0 0
1640 4 26.5215285009 11.22895518749777 0.04644043108385559 0 0 0
1655 1 31.82583420108 6.124884647726002 1.5516324305200826 0 0 0
1650 1 30.057732301019996 9.187326971589002 1.5516324305200828 0 0 0
1651 4 31.82583420108 8.166512863634768 0.046440431083857536 0 0 0
1656 1 33.593936101139995 9.187326971589002 1.5516324305200828 0 0 0
1646 4 30.057732301019996 11.228955187497771 0.046440431083857286 0 0 0
1652 4 33.593936101139995 11.22895518749777 0.04644043108385563 0 0 0
1661 1 35.3620380012 6.1248846477260015 1.5516324305200826 0 0 0
1667 1 38.89824180132 6.124884647726002 1.5516324305200824 0 0 0
1657 4 35.3620380012 8.166512863634766 0.04644043108385599 0 0 0
1662 1 37.130139901259994 9.187326971589002 1.5516324305200828 0 0 0
1663 4 38.89824180132 8.166512863634768 0.04644043108385824 0 0 0
1668 1 40.66634370138 9.187326971589002 1.5516324305200828 0 0 0
1658 4 37.130139901259994 11.22895518749777 0.04644043108385722 0 0 0
1664 4 40.66634370138 11.22895518749777 0.04644043108385721 0 0 0
1673 1 42.43444560144 6.1248846477260015 1.5516324305200826 0 0 0
1679 1 45.970649401559996 6.1248846477260015 1.5516324305200826 0 0 0
1669 4 42.43444560144 8.166512863634766 0.046440431083855996 0 0 0
1674 1 44.2025475015 9.187326971589002 1.5516324305200828 0 0 0
1675 4 45.970649401559996 8.166512863634768 0.046440431083857495 0 0 0
1670 4 44.2025475015 11.22895518749777 0.04644043108385563 0 0 0
1517 1 49.50685320168 6.124884647726002 1.5516324305200826 -1 0 0
1680 1 47.73875130162 9.187326971589002 1.5516324305200828 0 0 0
1513 4 49.50685320168 8.166512863634768 0.04644043108385735 -1 0 0
1518 1 51.27495510174 9.187326971589002 1.551632430520083 -1 0 0
1676 4 47.73875130162 11.228955187497771 0.046440431083857696 0 0 0
1514 4 51.274955101740005 11.22895518749777 0.046440431083856225 -1 0 0
1523 1 53.0430570018 6.1248846477260015 1.5516324305200826 -1 0 0
1529 1 56.57926080192 6.1248846477260015 1.5516324305200826 -1 0 0
1519 4 53.0430570018 8.166512863634766 0.046440431083856884 -1 0 0
1524 1 54.81115890186 9.187326971589002 1.551632430520083 -1 0 0
1525 4 56.57926080192 8.166512863634766 0.0464404310838569 -1 0 0
1520 4 54.811158901860004 11.22895518749777 0.04644043108385639 -1 0 0
1535 1 60.11546460204 6.1248846477260015 1.5516324305200826 -1 0 0
1541 1 63.651668402160006 6.1248846477260015 1.5516324305200826 -1 0 0
1530 1 58.347362701979996 9.187326971589002 1.551632430520083 -1 0 0
1531 4 60.11546460204 8.166512863634766 0.0464404310838569 -1 0 0
1536 1 61.883566502099995 9.187326971589002 1.551632430520083 -1 0 0
1537 4 63.65166840216 8.166512863634768 0.04644043108385744 -1 0 0
1526 4 58.34736270198 11.22895518749777 0.04644043108385639 -1 0 0
1532 4 61.8835665021 11.22895518749777 0.04644043108385708 -1 0 0
1547 1 67.18787220228 6.124884647726002 1.5516324305200826 -1 0 0
1543 4 67.18787220228 8.166512863634768 0.046440431083856794 -1 0 0
1542 1 65.41977030222 9.187326971589002 1.5516324305200828 -1 0 0
1548 1 68.95597410234 9.187326971589002 1.5516324305200828 -1 0 0
1538 4 65.41977030222 11.228955187497771 0.04644043108385707 -1 0 0
1544 4 68.95597410234001 11.22895518749777 0.04644043108385639 -1 0 0
1553 1 70.72407600240001 6.1248846477260015 1.5516324305200826 -1 0 0
1559 1 74.26027980252 6.124884647726002 1.5516324305200826 -1 0 0
1549 4 70.7240760024 8.166512863634768 0.046440431083856745 -1 0 0
1554 1 72.49217790246 9.187326971589002 1.5516324305200828 -1 0 0
1555 4 74.26027980252 8.166512863634768 0.04644043108385681 -1 0 0
1550 4 72.49217790246 11.22895518749777 0.04644043108385647 -1 0 0
1565 1 77.79648360264001 6.1248846477260015 1.5516324305200826 -1 0 0
1571 1 81.33268740276 6.124884647726002 1.5516324305200824 -1 0 0
1560 1 76.02838170257999 9.187326971589002 1.5516324305200828 -1 0 0
1561 4 77.79648360264 8.166512863634768 0.046440431083856745 -1 0 0
1566 1 79.5645855027 9.187326971589002 1.5516324305200828 -1 0 0
1567 4 81.33268740276 8.166512863634768 0.04644043108385812 -1 0 0
1556 4 76.02838170258 11.22895518749777 0.04644043108385639 -1 0 0
1562 4 79.5645855027 11.22895518749777 0.04644043108385645 -1 0 0
1577 1 84.86889120288001 6.1248846477260015 1.5516324305200826 -1 0 0
1572 1 83.10078930282 9.187326971589002 1.5516324305200826 -1 0 0
1573 4 84.86889120288001 8.166512863634768 0.04644043108385678 -1 0 0
1578 1 86.63699310294 9.187326971589002 1.5516324305200828 -1 0 0
1568 4 83.10078930282 11.228955187497771 0.04644043108385763 -1 0 0
1574 4 86.63699310294001 11.22895518749777 0.04644043108385493 -1 0 0
1583 1 88.405095003 6.1248846477260015 1.5516324305200826 -1 0 0
1589 1 91.94129880312 6.1248846477260015 1.5516324305200826 -1 0 0
1579 4 88.405095003 8.166512863634768 0.04644043108385706 -1 0 0
1584 1 90.17319690306 9.187326971589002 1.5516324305200828 -1 0 0
1585 4 91.94129880311999 8.166512863634766 0.04644043108385536 -1 0 0
1580 4 90.17319690306 11.22895518749777 0.046440431083856516 -1 0 0
1595 1 95.47750260324 6.124884647726002 1.5516324305200824 -1 0 0
1590 1 93.70940070318 9.187326971589002 1.5516324305200828 -1 0 0
1591 4 95.47750260324 8.166512863634768 0.04644043108385814 -1 0 0
1596 1 97.2456045033 9.187326971589002 1.551632430520083 -1 0 0
1586 4 93.70940070318 11.22895518749777 0.04644043108385644 -1 0 0
1592 4 97.2456045033 11.228955187497771 0.04644043108385729 -1 0 0
1769 1 0 12.249769295452005 1.5516324305200828 0 0 0
1775 1 3.5362038001199965 12.249769295452003 1.5516324305200824 0 0 0
1765 4 0 14.29139751136077 0.04644043108385555 0 0 0
1771 4 3.536203800119998 14.29139751136077 0.04644043108385531 0 0 0
1770 1 1.7681019000599985 15.312211619315 1.5516324305200826 0 0 0
1776 1 5.304305700179998 15.312211619315 1.5516324305200826 0 0 0
1781 1 7.072407600239998 12.249769295452003 1.5516324305200826 0 0 0
1787 1 10.60861140036 12.249769295452003 1.5516324305200824 0 0 0
1777 4 7.072407600239998 14.29139751136077 0.04644043108385601 0 0 0
1783 4 10.60861140036 14.29139751136077 0.04644043108385531 0 0 0
1782 1 8.8405095003 15.312211619315 1.5516324305200828 0 0 0
1793 1 14.144815200479998 12.249769295452003 1.5516324305200822 0 0 0
1789 4 14.144815200479998 14.29139751136077 0.0464404310838556 0 0 0
1788 1 12.376713300419999 15.312211619315 1.5516324305200828 0 0 0
1794 1 15.91291710054 15.312211619315 1.5516324305200828 0 0 0
1799 1 17.6810190006 12.249769295452003 1.5516324305200824 0 0 0
1805 1 21.217222800719995 12.249769295452003 1.5516324305200826 0 0 0
1795 4 17.6810190006 14.29139751136077 0.046440431083854636 0 0 0
1801 4 21.217222800719995 14.29139751136077 0.046440431083856114 0 0 0
1800 1 19.44912090066 15.312211619315 1.551632430520083 0 0 0
1806 1 22.985324700779998 15.312211619315 1.5516324305200828 0 0 0
1811 1 24.75342660084 12.249769295452003 1.5516324305200826 0 0 0
1817 1 28.289630400959997 12.249769295452003 1.5516324305200824 0 0 0
1807 4 24.75342660084 14.29139751136077 0.04644043108385611 0 0 0
1813 4 28.289630400959997 14.29139751136077 0.046440431083854615 0 0 0
1812 1 26.521528500899997 15.312211619315 1.551632430520083 0 0 0
1823 1 31.82583420108 12.249769295452003 1.5516324305200826 0 0 0
1819 4 31.82583420108 14.29139751136077 0.046440431083856155 0 0 0
1818 1 30.057732301019996 15.312211619315 1.5516324305200828 0 0 0
1824 1 33.593936101139995 15.312211619315 1.551632430520083 0 0 0
1829 1 35.3620380012 12.249769295452003 1.5516324305200824 0 0 0
1835 1 38.89824180132 12.249769295452003 1.5516324305200824 0 0 0
1825 4 35.3620380012 14.29139751136077 0.04644043108385453 0 0 0
1831 4 38.89824180132 14.29139751136077 0.04644043108385672 0 0 0
1830 1 37.130139901259994 15.312211619315 1.551632430520083 0 0 0
1836 1 40.66634370138 15.312211619315 1.551632430520083 0 0 0
1841 1 42.43444560144 12.249769295452003 1.5516324305200822 0 0 0
1847 1 45.970649401559996 12.249769295452003 1.5516324305200826 0 0 0
1837 4 42.43444560144 14.29139751136077 0.04644043108385454 0 0 0
1843 4 45.970649401559996 14.29139751136077 0.046440431083856114 0 0 0
1842 1 44.2025475015 15.312211619315 1.551632430520083 0 0 0
1685 1 49.50685320168 12.249769295452003 1.5516324305200826 -1 0 0
1681 4 49.50685320168 14.29139751136077 0.04644043108385593 -1 0 0
1848 1 47.73875130162 15.312211619315 1.5516324305200828 0 0 0
1686 1 51.27495510174 15.312211619315 1.5516324305200826 -1 0 0
1691 1 53.0430570018 12.249769295452003 1.5516324305200824 -1 0 0
1697 1 56.57926080192 12.249769295452003 1.5516324305200824 -1 0 0
1687 4 53.0430570018 14.29139751136077 0.04644043108385594 -1 0 0
1693 4 56.57926080192 14.29139751136077 0.04644043108385525 -1 0 0
1692 1 54.811158901860004 15.312211619315 1.5516324305200828 -1 0 0
1703 1 60.11546460204 12.249769295452003 1.5516324305200824 -1 0 0
1709 1 63.651668402160006 12.249769295452003 1.5516324305200824 -1 0 0
1699 4 60.11546460204 14.29139751136077 0.04644043108385525 -1 0 0
1705 4 63.65166840216 14.29139751136077 0.046440431083855094 -1 0 0
1698 1 58.34736270198 15.312211619315 1.5516324305200826 -1 0 0
1704 1 61.8835665021 15.312211619315 1.5516324305200828 -1 0 0
1715 1 67.18787220228 12.249769295452003 1.5516324305200826 -1 0 0
1711 4 67.18787220228 14.29139751136077 0.04644043108385534 -1 0 0
1710 1 65.41977030222 15.312211619315 1.551632430520083 -1 0 0
1716 1 68.95597410234 15.312211619315 1.551632430520083 -1 0 0
1721 1 70.72407600240001 12.249769295452003 1.5516324305200824 -1 0 0
1727 1 74.26027980252 12.249769295452003 1.5516324305200826 -1 0 0
1717 4 70.7240760024 14.29139751136077 0.046440431083855295 -1 0 0
1723 4 74.26027980252 14.29139751136077 0.046440431083855344 -1 0 0
1722 1 72.49217790246 15.312211619315 1.551632430520083 -1 0 0
1733 1 77.79648360264001 12.249769295452003 1.5516324305200824 -1 0 0
1739 1 81.33268740276 12.249769295452003 1.5516324305200824 -1 0 0
1729 4 77.79648360264 14.29139751136077 0.046440431083855295 -1 0 0
1735 4 81.33268740276 14.29139751136077 0.0464404310838566 -1 0 0
1728 1 76.02838170257999 15.312211619315 1.551632430520083 -1 0 0
1734 1 79.5645855027 15.312211619315 1.551632430520083 -1 0 0
1745 1 84.86889120288001 12.249769295452003 1.5516324305200826 -1 0 0
1741 4 84.86889120288001 14.29139751136077 0.04644043108385533 -1 0 0
1740 1 83.10078930282 15.312211619315 1.5516324305200828 -1 0 0
1746 1 86.63699310294 15.312211619315 1.551632430520083 -1 0 0
1751 1 88.405095003 12.249769295452003 1.5516324305200822 -1 0 0
1757 1 91.94129880312 12.249769295452003 1.5516324305200824 -1 0 0
1747 4 88.405095003 14.29139751136077 0.04644043108385561 -1 0 0
1753 4 91.94129880311999 14.29139751136077 0.046440431083853886 -1 0 0
1752 1 90.17319690306 15.312211619315 1.5516324305200833 -1 0 0
1763 1 95.47750260324 12.249769295452003 1.5516324305200824 -1 0 0
1759 4 95.47750260324 14.29139751136077 0.046440431083856606 -1 0 0
1758 1 93.70940070318 15.312211619315 1.551632430520083 -1 0 0
1764 1 97.2456045033 15.312211619315 1.551632430520083 -1 0 0
1766 4 1.7681019000599973 17.35383983522377 0.046440431083857016 0 0 0
1937 1 0 18.374653943178 1.5516324305200841 0 0 0
1943 1 3.536203800119997 18.374653943178 1.551632430520084 0 0 0
1772 4 5.304305700179997 17.35383983522377 0.04644043108385729 0 0 0
1933 4 0 20.416282159086766 0.04644043108385777 0 0 0
1938 1 1.7681019000599985 21.437096267041003 1.5516324305200822 0 0 0
1939 4 3.536203800119998 20.416282159086766 0.04644043108385762 0 0 0
1944 1 5.304305700179998 21.437096267041003 1.5516324305200822 0 0 0
1949 1 7.072407600239998 18.374653943178 1.5516324305200841 0 0 0
1778 4 8.8405095003 17.35383983522377 0.04644043108385728 0 0 0
1955 1 10.60861140036 18.374653943178 1.551632430520084 0 0 0
1945 4 7.072407600239998 20.416282159086766 0.04644043108385829 0 0 0
1950 1 8.8405095003 21.437096267041003 1.5516324305200822 0 0 0
1951 4 10.60861140036 20.416282159086766 0.04644043108385762 0 0 0
1784 4 12.376713300419999 17.35383983522377 0.04644043108385701 0 0 0
1961 1 14.144815200479998 18.374653943178 1.5516324305200837 0 0 0
1790 4 15.91291710054 17.35383983522377 0.04644043108385756 0 0 0
1956 1 12.376713300419999 21.437096267041003 1.5516324305200822 0 0 0
1957 4 14.144815200479998 20.416282159086766 0.04644043108385785 0 0 0
1962 1 15.91291710054 21.437096267041003 1.5516324305200822 0 0 0
1967 1 17.6810190006 18.374653943178 1.551632430520084 0 0 0
1796 4 19.449120900659995 17.353839835223766 0.046440431083856246 0 0 0
1973 1 21.217222800719995 18.374653943178 1.551632430520084 0 0 0
1802 4 22.985324700779998 17.35383983522377 0.04644043108385836 0 0 0
1963 4 17.6810190006 20.416282159086766 0.04644043108385676 0 0 0
1968 1 19.449120900659995 21.437096267041003 1.551632430520082 0 0 0
1969 4 21.217222800719995 20.416282159086766 0.04644043108385832 0 0 0
1974 1 22.985324700779998 21.437096267041007 1.5516324305200817 0 0 0
1979 1 24.75342660084 18.374653943178 1.5516324305200837 0 0 0
1808 4 26.5215285009 17.353839835223766 0.046440431083856246 0 0 0
1985 1 28.289630400959997 18.374653943178 1.551632430520084 0 0 0
1975 4 24.75342660084 20.416282159086766 0.04644043108385832 0 0 0
1980 1 26.5215285009 21.437096267041003 1.551632430520082 0 0 0
1981 4 28.289630400959997 20.416282159086766 0.04644043108385674 0 0 0
1814 4 30.057732301019996 17.35383983522377 0.04644043108385788 0 0 0
1820 4 33.593936101139995 17.353839835223766 0.046440431083856294 0 0 0
1991 1 31.82583420108 18.374653943178 1.5516324305200835 0 0 0
1986 1 30.057732301019996 21.437096267041003 1.5516324305200822 0 0 0
1987 4 31.82583420108 20.416282159086766 0.046440431083858376 0 0 0
1992 1 33.593936101139995 21.437096267041003 1.551632430520082 0 0 0
1997 1 35.3620380012 18.374653943178 1.551632430520084 0 0 0
1826 4 37.130139901259994 17.35383983522377 0.04644043108385779 0 0 0
2003 1 38.89824180132 18.374653943178 1.5516324305200835 0 0 0
1832 4 40.66634370138 17.35383983522377 0.04644043108385779 0 0 0
1993 4 35.3620380012 20.416282159086766 0.04644043108385677 0 0 0
1998 1 37.130139901259994 21.437096267041003 1.551632430520082 0 0 0
1999 4 38.89824180132 20.416282159086766 0.046440431083858855 0 0 0
2004 1 40.66634370138 21.437096267041003 1.551632430520082 0 0 0
2009 1 42.43444560144 18.374653943178 1.551632430520084 0 0 0
1838 4 44.2025475015 17.353839835223766 0.046440431083856294 0 0 0
2015 1 45.970649401559996 18.374653943178 1.5516324305200837 0 0 0
2005 4 42.43444560144 20.416282159086766 0.04644043108385677 0 0 0
2010 1 44.2025475015 21.437096267041003 1.551632430520082 0 0 0
2011 4 45.970649401559996 20.416282159086766 0.04644043108385832 0 0 0
1844 4 47.73875130162 17.35383983522377 0.046440431083858334 0 0 0
1853 1 49.50685320168 18.374653943178 1.5516324305200841 -1 0 0
1682 4 51.274955101740005 17.35383983522377 0.046440431083856946 -1 0 0
2016 1 47.73875130162 21.437096267041007 1.5516324305200817 0 0 0
1849 4 49.50685320168 20.416282159086766 0.04644043108385816 -1 0 0
1854 1 51.27495510174 21.437096267041003 1.5516324305200822 -1 0 0
1859 1 53.0430570018 18.374653943178 1.551632430520084 -1 0 0
1688 4 54.811158901860004 17.35383983522377 0.046440431083857106 -1 0 0
1865 1 56.57926080192 18.374653943178 1.5516324305200837 -1 0 0
1855 4 53.0430570018 20.416282159086766 0.04644043108385835 -1 0 0
1860 1 54.811158901860004 21.437096267041003 1.5516324305200822 -1 0 0
1861 4 56.57926080192 20.416282159086766 0.04644043108385763 -1 0 0
1694 4 58.34736270198 17.35383983522377 0.046440431083857106 -1 0 0
1871 1 60.11546460204 18.374653943178 1.551632430520084 -1 0 0
1700 4 61.8835665021 17.35383983522377 0.0464404310838578 -1 0 0
1877 1 63.651668402160006 18.374653943178 1.5516324305200837 -1 0 0
1866 1 58.34736270198 21.437096267041003 1.5516324305200822 -1 0 0
1867 4 60.11546460204 20.416282159086766 0.046440431083857654 -1 0 0
1872 1 61.8835665021 21.437096267041003 1.5516324305200822 -1 0 0
1873 4 63.65166840216 20.416282159086766 0.04644043108385747 -1 0 0
1706 4 65.41977030222 17.35383983522377 0.04644043108385762 -1 0 0
1883 1 67.18787220228 18.374653943178 1.5516324305200835 -1 0 0
1712 4 68.95597410234001 17.353839835223766 0.046440431083857044 -1 0 0
1879 4 67.18787220228 20.416282159086766 0.04644043108385762 -1 0 0
1878 1 65.41977030222 21.437096267041003 1.5516324305200824 -1 0 0
1884 1 68.95597410234 21.437096267041003 1.551632430520082 -1 0 0
1889 1 70.72407600240001 18.374653943178 1.551632430520084 -1 0 0
1718 4 72.49217790246 17.353839835223766 0.04644043108385712 -1 0 0
1895 1 74.26027980252 18.374653943178 1.5516324305200835 -1 0 0
1885 4 70.7240760024 20.416282159086766 0.04644043108385754 -1 0 0
1890 1 72.49217790246 21.437096267041003 1.551632430520082 -1 0 0
1891 4 74.26027980252 20.416282159086766 0.04644043108385765 -1 0 0
1724 4 76.02838170258 17.353839835223766 0.046440431083857044 -1 0 0
1901 1 77.79648360264001 18.374653943178 1.551632430520084 -1 0 0
1730 4 79.5645855027 17.353839835223766 0.046440431083857085 -1 0 0
1907 1 81.33268740276 18.374653943178 1.5516324305200837 -1 0 0
1896 1 76.02838170257999 21.437096267041003 1.551632430520082 -1 0 0
1897 4 77.79648360264 20.416282159086766 0.04644043108385754 -1 0 0
1902 1 79.5645855027 21.437096267041003 1.551632430520082 -1 0 0
1903 4 81.33268740276 20.416282159086766 0.04644043108385872 -1 0 0
1736 4 83.10078930282 17.35383983522377 0.04644043108385828 -1 0 0
1913 1 84.86889120288001 18.374653943178 1.5516324305200837 -1 0 0
1742 4 86.63699310294001 17.353839835223766 0.046440431083857085 -1 0 0
1908 1 83.10078930282 21.437096267041007 1.5516324305200817 -1 0 0
1909 4 84.86889120288001 20.416282159086766 0.04644043108385761 -1 0 0
1914 1 86.63699310294 21.437096267041003 1.551632430520082 -1 0 0
1919 1 88.40509500300001 18.374653943178 1.5516324305200841 -1 0 0
1748 4 90.17319690306 17.353839835223766 0.04644043108385582 -1 0 0
1925 1 91.94129880312 18.374653943178 1.551632430520084 -1 0 0
1915 4 88.405095003 20.416282159086762 0.04644043108385646 -1 0 0
1920 1 90.17319690305999 21.437096267041003 1.5516324305200815 -1 0 0
1921 4 91.94129880311999 20.416282159086766 0.04644043108385757 -1 0 0
1754 4 93.70940070318 17.353839835223766 0.046440431083857085 -1 0 0
1931 1 95.47750260324 18.374653943178 1.5516324305200835 -1 0 0
1760 4 97.2456045033 17.35383983522377 0.04644043108385783 -1 0 0
1926 1 93.70940070318 21.437096267041003 1.551632430520082 -1 0 0
1927 4 95.47750260324 20.416282159086766 0.04644043108385874 -1 0 0
1932 1 97.2456045033 21.437096267041003 1.5516324305200824 -1 0 0
1934 4 1.7681019000599973 23.478724482949772 0.04644043108385504 0 0 0
1940 4 5.304305700179997 23.478724482949772 0.046440431083855316 0 0 0
2105 1 0 24.499538590904002 1.551632430520083 0 0 0
2111 1 3.536203800119997 24.499538590904002 1.5516324305200824 0 0 0
2101 4 0 26.54116680681277 0.046440431083857266 0 0 0
2106 1 1.7681019000599985 27.561980914767002 1.551632430520084 0 0 0
2107 4 3.536203800119998 26.54116680681277 0.04644043108385707 0 0 0
2112 1 5.304305700179998 27.561980914767002 1.5516324305200837 0 0 0
1946 4 8.8405095003 23.478724482949772 0.046440431083855316 0 0 0
2117 1 7.072407600239998 24.499538590904002 1.5516324305200826 0 0 0
2123 1 10.60861140036 24.499538590904002 1.5516324305200824 0 0 0
2113 4 7.072407600239998 26.54116680681277 0.0464404310838578 0 0 0
2118 1 8.8405095003 27.561980914767002 1.5516324305200837 0 0 0
2119 4 10.60861140036 26.54116680681277 0.04644043108385709 0 0 0
1952 4 12.376713300419999 23.478724482949772 0.04644043108385503 0 0 0
1958 4 15.91291710054 23.478724482949772 0.04644043108385551 0 0 0
2129 1 14.144815200479998 24.499538590904002 1.5516324305200826 0 0 0
2124 1 12.376713300419999 27.561980914767002 1.551632430520084 0 0 0
2125 4 14.144815200479998 26.54116680681277 0.04644043108385734 0 0 0
2130 1 15.91291710054 27.561980914767002 1.551632430520084 0 0 0
1964 4 19.449120900659995 23.47872448294977 0.04644043108385431 0 0 0
1970 4 22.985324700779998 23.478724482949772 0.046440431083856384 0 0 0
2135 1 17.6810190006 24.499538590904002 1.551632430520083 0 0 0