LAMMPS data file via write_data, version 29 Aug 2024, timestep = 2, units = metal

5184 atoms
6 atom types

0 99.790813098819 xlo xhi
0 102.425338320448 ylo yhi
-50 50 zlo zhi

Masses

1 118.71
2 118.71
3 32.06
4 32.06
5 32.06
6 32.06

Atoms # atomic

1385 4 1.8479603588636133 2.133864322931517 0.012081141982886434 0 0 0
1382 1 3.695365936185088 3.200254547305163 1.4779846723469063 0 0 0
1391 4 5.543916399560612 2.1338643229315166 0.012081141982886047 0 0 0
1386 4 3.6959383792120453 5.334656145445517 0.012081141982886338 0 0 0
1383 3 3.693186993330651 1.0641114082014116 2.938206603501049 0 0 0
1384 3 1.8452089729818308 4.2649032307154116 2.938206603501049 0 0 0
1390 3 5.541165013678831 4.264903230715412 2.9382066035010492 0 0 0
1388 1 7.391321976882087 3.200254547305163 1.4779846723469063 0 0 0
1397 4 9.239872440257612 2.133864322931517 0.01208114198288622 0 0 0
1394 1 11.087278017579088 3.200254547305163 1.4779846723469063 0 0 0
1392 4 7.391894419909044 5.334656145445517 0.012081141982886082 0 0 0
1398 4 11.087850460606044 5.334656145445517 0.012081141982887195 0 0 0
1389 3 7.38914303402765 1.0641114082014116 2.9382066035010483 0 0 0
1395 3 11.08509907472465 1.0641114082014111 2.9382066035010483 0 0 0
1396 3 9.23712105437583 4.264903230715412 2.938206603501049 0 0 0
1403 4 12.935828480954614 2.133864322931517 0.012081141982886184 0 0 0
1400 1 14.78323405827609 3.200254547305163 1.4779846723469063 0 0 0
1409 4 16.631784521651614 2.1338643229315166 0.012081141982885945 0 0 0
1404 4 14.783806501303044 5.334656145445517 0.01208114198288634 0 0 0
1401 3 14.781055115421653 1.0641114082014114 2.938206603501049 0 0 0
1402 3 12.933077095072832 4.264903230715412 2.938206603501049 0 0 0
1408 3 16.62903313576983 4.264903230715412 2.9382066035010492 0 0 0
1406 1 18.47919009897309 3.2002545473051627 1.4779846723469063 0 0 0
1415 4 20.327740562348612 2.1338643229315166 0.01208114198288604 0 0 0
1412 1 22.175146139670087 3.2002545473051627 1.4779846723469063 0 0 0
1410 4 18.479762542000042 5.334656145445517 0.012081141982886207 0 0 0
1416 4 22.175718582697044 5.334656145445517 0.012081141982885915 0 0 0
1407 3 18.47701115611865 1.0641114082014114 2.938206603501049 0 0 0
1413 3 22.17296719681565 1.0641114082014111 2.938206603501048 0 0 0
1414 3 20.32498917646683 4.264903230715412 2.938206603501049 0 0 0
1421 4 24.023696603045614 2.133864322931518 0.012081141982887258 0 0 0
1418 1 25.87110218036709 3.200254547305163 1.4779846723469066 0 0 0
1427 4 27.719652643742613 2.1338643229315166 0.012081141982886063 0 0 0
1422 4 25.871674623394046 5.334656145445517 0.012081141982885981 0 0 0
1419 3 25.86892323751265 1.0641114082014111 2.938206603501048 0 0 0
1420 3 24.02094521716383 4.2649032307154116 2.9382066035010475 0 0 0
1426 3 27.716901257860833 4.264903230715412 2.938206603501049 0 0 0
1424 1 29.567058221064087 3.2002545473051627 1.4779846723469061 0 0 0
1433 4 31.41560868443961 2.1338643229315166 0.01208114198288602 0 0 0
1430 1 33.263014261761086 3.2002545473051627 1.4779846723469057 0 0 0
1439 4 35.11156472513661 2.133864322931517 0.012081141982886304 0 0 0
1428 4 29.567630664091045 5.334656145445517 0.01208114198288618 0 0 0
1434 4 33.26358670478805 5.334656145445516 0.012081141982885853 0 0 0
1425 3 29.56487927820965 1.0641114082014114 2.9382066035010483 0 0 0
1431 3 33.26083531890664 1.0641114082014116 2.938206603501049 0 0 0
1432 3 31.41285729855783 4.264903230715412 2.938206603501049 0 0 0
1438 3 35.10881333925483 4.264903230715412 2.938206603501049 0 0 0
1436 1 36.95897030245809 3.200254547305163 1.477984672346907 0 0 0
1445 4 38.807520765833615 2.1338643229315166 0.012081141982885835 0 0 0
1442 1 40.65492634315509 3.2002545473051627 1.4779846723469063 0 0 0
1440 4 36.959542745485045 5.334656145445518 0.012081141982887851 0 0 0
1446 4 40.655498786182044 5.334656145445517 0.012081141982886207 0 0 0
1437 3 36.95679135960365 1.0641114082014103 2.938206603501047 0 0 0
1443 3 40.65274740030065 1.0641114082014114 2.938206603501049 0 0 0
1444 3 38.804769379951836 4.264903230715412 2.9382066035010492 0 0 0
1451 4 42.503476806530614 2.1338643229315166 0.012081141982886078 0 0 0
1448 1 44.35088238385209 3.200254547305163 1.4779846723469063 0 0 0
1457 4 46.19943284722761 2.133864322931517 0.012081141982886755 0 0 0
1452 4 44.35145482687904 5.334656145445517 0.012081141982886477 0 0 0
1449 3 44.348703440997646 1.0641114082014116 2.9382066035010492 0 0 0
1450 3 42.500725420648834 4.264903230715412 2.938206603501049 0 0 0
1456 3 46.19668146134583 4.2649032307154116 2.938206603501049 0 0 0
1301 4 49.89538888792461 2.1338643229315175 0.012081141982886472 -1 0 0
1454 1 48.046838424549094 3.2002545473051627 1.4779846723469063 0 0 0
1298 1 51.74279446524609 3.200254547305163 1.4779846723469063 -1 0 0
1458 4 48.04741086757604 5.334656145445517 0.012081141982886498 0 0 0
1302 4 51.743366908273046 5.334656145445517 0.012081141982885775 -1 0 0
1455 3 48.04465948169465 1.0641114082014111 2.9382066035010483 0 0 0
1299 3 51.74061552239165 1.0641114082014114 2.9382066035010483 -1 0 0
1300 3 49.89263750204283 4.264903230715412 2.938206603501048 -1 0 0
1307 4 53.59134492862161 2.1338643229315166 0.012081141982886153 -1 0 0
1304 1 55.43875050594309 3.200254547305163 1.4779846723469063 -1 0 0
1313 4 57.28730096931861 2.1338643229315166 0.012081141982885941 -1 0 0
1308 4 55.439322948970045 5.334656145445517 0.012081141982886243 -1 0 0
1305 3 55.43657156308865 1.0641114082014116 2.938206603501049 -1 0 0
1306 3 53.58859354273983 4.264903230715412 2.9382066035010492 -1 0 0
1312 3 57.28454958343683 4.264903230715412 2.9382066035010492 -1 0 0
1310 1 59.13470654664009 3.200254547305163 1.4779846723469063 -1 0 0
1319 4 60.98325701001561 2.133864322931517 0.012081141982886477 -1 0 0
1316 1 62.83066258733709 3.2002545473051627 1.477984672346906 -1 0 0
1314 4 59.13527898966704 5.334656145445517 0.01208114198288643 -1 0 0
1320 4 62.83123503036405 5.334656145445516 0.01208114198288526 -1 0 0
1311 3 59.13252760378565 1.0641114082014107 2.938206603501048 -1 0 0
1317 3 62.828483644482645 1.0641114082014118 2.9382066035010492 -1 0 0
1318 3 60.98050562413383 4.2649032307154116 2.9382066035010483 -1 0 0
1325 4 64.67921305071262 2.1338643229315166 0.01208114198288602 -1 0 0
1322 1 66.52661862803409 3.200254547305163 1.4779846723469074 -1 0 0
1331 4 68.37516909140962 2.1338643229315175 0.012081141982886809 -1 0 0
1328 1 70.2225746687311 3.200254547305163 1.4779846723469063 -1 0 0
1326 4 66.52719107106104 5.334656145445517 0.012081141982887374 -1 0 0
1332 4 70.22314711175805 5.334656145445517 0.012081141982887381 -1 0 0
1323 3 66.52443968517964 1.0641114082014103 2.9382066035010475 -1 0 0
1329 3 70.22039572587664 1.0641114082014114 2.9382066035010483 -1 0 0
1324 3 64.67646166483082 4.264903230715412 2.9382066035010492 -1 0 0
1330 3 68.37241770552784 4.2649032307154116 2.938206603501048 -1 0 0
1337 4 72.07112513210662 2.1338643229315166 0.012081141982886267 -1 0 0
1334 1 73.9185307094281 3.2002545473051627 1.4779846723469063 -1 0 0
1343 4 75.76708117280361 2.133864322931517 0.012081141982885924 -1 0 0
1338 4 73.91910315245505 5.334656145445517 0.01208114198288619 -1 0 0
1335 3 73.91635176657365 1.0641114082014114 2.9382066035010483 -1 0 0
1336 3 72.06837374622484 4.264903230715412 2.9382066035010492 -1 0 0
1342 3 75.76432978692183 4.264903230715412 2.9382066035010483 -1 0 0
1340 1 77.6144867501251 3.2002545473051627 1.4779846723469063 -1 0 0
1349 4 79.46303721350061 2.1338643229315166 0.01208114198288627 -1 0 0
1346 1 81.3104427908221 3.2002545473051627 1.4779846723469063 -1 0 0
1344 4 77.61505919315205 5.334656145445517 0.012081141982886208 -1 0 0
1350 4 81.31101523384905 5.334656145445517 0.012081141982886193 -1 0 0
1341 3 77.61230780727064 1.0641114082014116 2.938206603501049 -1 0 0
1347 3 81.30826384796765 1.0641114082014114 2.9382066035010483 -1 0 0
1348 3 79.46028582761883 4.264903230715412 2.9382066035010492 -1 0 0
1355 4 83.15899325419761 2.1338643229315166 0.012081141982885788 -1 0 0
1352 1 85.00639883151909 3.2002545473051622 1.4779846723469054 -1 0 0
1361 4 86.85494929489462 2.133864322931518 0.012081141982887147 -1 0 0
1356 4 85.00697127454605 5.334656145445517 0.012081141982885605 -1 0 0
1353 3 85.00421988866464 1.0641114082014114 2.938206603501049 -1 0 0
1354 3 83.15624186831583 4.264903230715412 2.9382066035010483 -1 0 0
1360 3 86.85219790901283 4.2649032307154116 2.938206603501048 -1 0 0
1358 1 88.70235487221609 3.200254547305163 1.4779846723469063 -1 0 0
1367 4 90.55090533559162 2.1338643229315157 0.012081141982884682 -1 0 0
1364 1 92.39831091291309 3.200254547305163 1.4779846723469074 -1 0 0
1362 4 88.70292731524304 5.334656145445517 0.012081141982886437 -1 0 0
1368 4 92.39888335594004 5.334656145445517 0.012081141982887275 -1 0 0
1359 3 88.70017592936165 1.0641114082014118 2.9382066035010492 -1 0 0
1365 3 92.39613197005865 1.0641114082014103 2.938206603501048 -1 0 0
1366 3 90.54815394970983 4.264903230715413 2.938206603501051 -1 0 0
1373 4 94.24686137628862 2.133864322931518 0.012081141982887083 -1 0 0
1370 1 96.09426695361009 3.2002545473051622 1.4779846723469054 -1 0 0
1379 4 97.94281741698562 2.133864322931517 0.012081141982886205 -1 0 0
1376 1 99.79022299430709 3.200254547305163 1.4779846723469066 -1 0 0
1374 4 96.09483939663704 5.334656145445515 0.012081141982884389 -1 0 0
1380 4 99.79079543733404 5.334656145445517 0.012081141982887289 -1 0 0
1377 3 99.78804405145264 1.064111408201411 2.9382066035010483 -1 0 0
1371 3 96.09208801075565 1.0641114082014125 2.9382066035010497 -1 0 0
1372 3 94.24410999040684 4.2649032307154116 2.9382066035010475 -1 0 0
1378 3 97.94006603110383 4.264903230715412 2.9382066035010492 -1 0 0
1543 1 1.8473879158366293 6.401046369819162 1.477984672346907 0 0 0
1549 1 5.54334395653363 6.401046369819162 1.4779846723469068 0 0 0
1547 4 1.8479603588636133 8.535447967959515 0.012081141982886557 0 0 0
1544 1 3.695365936185088 9.601838192333162 1.4779846723469063 0 0 0
1553 4 5.543916399560612 8.535447967959515 0.012081141982886137 0 0 0
1545 3 3.693186993330651 7.4656950532294095 2.9382066035010492 0 0 0
1546 3 1.8452089729818308 10.666486875743411 2.938206603501048 0 0 0
1552 3 5.541165013678831 10.666486875743411 2.9382066035010483 0 0 0
1555 1 9.23929999723063 6.401046369819162 1.4779846723469068 0 0 0
1550 1 7.391321976882087 9.601838192333162 1.4779846723469063 0 0 0
1559 4 9.239872440257612 8.535447967959515 0.012081141982886219 0 0 0
1556 1 11.087278017579088 9.601838192333162 1.4779846723469061 0 0 0
1551 3 7.38914303402765 7.4656950532294095 2.938206603501049 0 0 0
1557 3 11.08509907472465 7.4656950532294095 2.9382066035010483 0 0 0
1558 3 9.23712105437583 10.666486875743411 2.938206603501048 0 0 0
1561 1 12.93525603792763 6.401046369819163 1.4779846723469072 0 0 0
1567 1 16.63121207862463 6.401046369819162 1.4779846723469066 0 0 0
1565 4 12.935828480954614 8.535447967959515 0.012081141982886302 0 0 0
1562 1 14.78323405827609 9.60183819233316 1.4779846723469063 0 0 0
1571 4 16.631784521651614 8.535447967959515 0.012081141982886106 0 0 0
1563 3 14.781055115421653 7.46569505322941 2.938206603501049 0 0 0
1564 3 12.933077095072832 10.666486875743411 2.9382066035010483 0 0 0
1570 3 16.62903313576983 10.666486875743411 2.9382066035010483 0 0 0
1573 1 20.327168119321627 6.401046369819162 1.4779846723469066 0 0 0
1568 1 18.47919009897309 9.60183819233316 1.4779846723469063 0 0 0
1577 4 20.327740562348612 8.535447967959515 0.01208114198288615 0 0 0
1574 1 22.175146139670087 9.601838192333162 1.4779846723469063 0 0 0
1569 3 18.47701115611865 7.4656950532294095 2.938206603501049 0 0 0
1575 3 22.17296719681565 7.4656950532294095 2.9382066035010483 0 0 0
1576 3 20.32498917646683 10.666486875743411 2.9382066035010483 0 0 0
1579 1 24.02312416001863 6.401046369819161 1.4779846723469052 0 0 0
1585 1 27.71908020071563 6.401046369819162 1.4779846723469066 0 0 0
1583 4 24.023696603045614 8.535447967959517 0.012081141982887428 0 0 0
1580 1 25.87110218036709 9.601838192333162 1.4779846723469066 0 0 0
1589 4 27.719652643742613 8.535447967959515 0.012081141982886179 0 0 0
1581 3 25.86892323751265 7.4656950532294095 2.9382066035010483 0 0 0
1582 3 24.02094521716383 10.666486875743411 2.9382066035010466 0 0 0
1588 3 27.716901257860833 10.666486875743411 2.9382066035010483 0 0 0
1591 1 31.41503624141263 6.401046369819162 1.4779846723469063 0 0 0
1597 1 35.11099228210963 6.401046369819162 1.4779846723469068 0 0 0
1586 1 29.567058221064087 9.60183819233316 1.4779846723469063 0 0 0
1595 4 31.41560868443961 8.535447967959515 0.012081141982886142 0 0 0
1592 1 33.263014261761086 9.60183819233316 1.477984672346906 0 0 0
1601 4 35.11156472513661 8.535447967959515 0.012081141982886415 0 0 0
1587 3 29.56487927820965 7.4656950532294095 2.938206603501049 0 0 0
1593 3 33.26083531890664 7.46569505322941 2.9382066035010492 0 0 0
1594 3 31.41285729855783 10.666486875743411 2.938206603501048 0 0 0
1600 3 35.10881333925483 10.666486875743413 2.938206603501048 0 0 0
1603 1 38.80694832280663 6.401046369819162 1.477984672346907 0 0 0
1598 1 36.95897030245809 9.601838192333162 1.477984672346907 0 0 0
1607 4 38.807520765833615 8.535447967959515 0.012081141982885896 0 0 0
1604 1 40.65492634315509 9.60183819233316 1.4779846723469063 0 0 0
1599 3 36.95679135960365 7.465695053229409 2.938206603501047 0 0 0
1605 3 40.65274740030065 7.4656950532294095 2.938206603501049 0 0 0
1606 3 38.804769379951836 10.666486875743411 2.9382066035010483 0 0 0
1609 1 42.50290436350363 6.401046369819162 1.4779846723469066 0 0 0
1615 1 46.19886040420063 6.401046369819163 1.477984672346908 0 0 0
1613 4 42.503476806530614 8.535447967959515 0.012081141982886207 0 0 0
1610 1 44.35088238385209 9.601838192333162 1.4779846723469063 0 0 0
1619 4 46.19943284722761 8.535447967959515 0.012081141982886913 0 0 0
1611 3 44.348703440997646 7.46569505322941 2.9382066035010492 0 0 0
1612 3 42.500725420648834 10.666486875743411 2.938206603501048 0 0 0
1618 3 46.19668146134583 10.666486875743411 2.938206603501048 0 0 0
1459 1 49.89481644489763 6.401046369819162 1.4779846723469052 -1 0 0
1463 4 49.89538888792461 8.535447967959517 0.012081141982886585 -1 0 0
1616 1 48.046838424549094 9.601838192333162 1.4779846723469063 0 0 0
1460 1 51.74279446524609 9.601838192333162 1.4779846723469063 -1 0 0
1617 3 48.04465948169465 7.4656950532294095 2.9382066035010483 0 0 0
1461 3 51.74061552239165 7.4656950532294095 2.938206603501049 -1 0 0
1462 3 49.89263750204283 10.666486875743411 2.9382066035010475 -1 0 0
1465 1 53.590772485594634 6.401046369819163 1.4779846723469072 -1 0 0
1471 1 57.28672852629163 6.401046369819162 1.4779846723469066 -1 0 0
1469 4 53.59134492862161 8.535447967959515 0.012081141982886191 -1 0 0
1466 1 55.43875050594309 9.601838192333162 1.4779846723469063 -1 0 0
1475 4 57.28730096931861 8.535447967959515 0.012081141982885981 -1 0 0
1467 3 55.43657156308865 7.4656950532294095 2.9382066035010492 -1 0 0
1468 3 53.58859354273983 10.666486875743411 2.9382066035010483 -1 0 0
1474 3 57.28454958343683 10.666486875743411 2.9382066035010483 -1 0 0
1477 1 60.98268456698863 6.401046369819162 1.4779846723469057 -1 0 0
1472 1 59.13470654664009 9.601838192333162 1.4779846723469063 -1 0 0
1481 4 60.98325701001561 8.535447967959517 0.01208114198288657 -1 0 0
1478 1 62.83066258733709 9.601838192333162 1.477984672346906 -1 0 0
1473 3 59.13252760378565 7.465695053229409 2.938206603501048 -1 0 0
1479 3 62.828483644482645 7.46569505322941 2.9382066035010492 -1 0 0
1480 3 60.98050562413383 10.666486875743411 2.9382066035010475 -1 0 0
1483 1 64.67864060768562 6.401046369819162 1.4779846723469072 -1 0 0
1489 1 68.37459664838262 6.401046369819162 1.4779846723469054 -1 0 0
1487 4 64.67921305071262 8.535447967959515 0.0120811419828861 -1 0 0
1484 1 66.52661862803409 9.601838192333162 1.4779846723469074 -1 0 0
1493 4 68.37516909140962 8.535447967959515 0.01208114198288687 -1 0 0
1490 1 70.2225746687311 9.601838192333162 1.4779846723469063 -1 0 0
1485 3 66.52443968517964 7.465695053229409 2.9382066035010475 -1 0 0
1491 3 70.22039572587664 7.4656950532294095 2.9382066035010483 -1 0 0
1486 3 64.67646166483082 10.666486875743413 2.9382066035010483 -1 0 0
1492 3 68.37241770552784 10.666486875743411 2.938206603501047 -1 0 0
1495 1 72.07055268907963 6.401046369819163 1.4779846723469086 -1 0 0
1501 1 75.76650872977663 6.401046369819161 1.4779846723469046 -1 0 0
1499 4 72.07112513210662 8.535447967959515 0.012081141982886371 -1 0 0
1496 1 73.9185307094281 9.601838192333162 1.4779846723469063 -1 0 0
1505 4 75.76708117280361 8.535447967959515 0.012081141982886009 -1 0 0
1497 3 73.91635176657365 7.4656950532294095 2.938206603501049 -1 0 0
1498 3 72.06837374622484 10.666486875743411 2.9382066035010483 -1 0 0
1504 3 75.76432978692183 10.666486875743413 2.938206603501048 -1 0 0
1507 1 79.46246477047363 6.401046369819163 1.4779846723469086 -1 0 0
1502 1 77.6144867501251 9.601838192333162 1.4779846723469063 -1 0 0
1511 4 79.46303721350061 8.535447967959515 0.012081141982886375 -1 0 0
1508 1 81.3104427908221 9.601838192333162 1.4779846723469063 -1 0 0
1503 3 77.61230780727064 7.4656950532294095 2.938206603501049 -1 0 0
1509 3 81.30826384796765 7.4656950532294095 2.938206603501049 -1 0 0
1510 3 79.46028582761883 10.666486875743411 2.9382066035010483 -1 0 0
1513 1 83.15842081117063 6.401046369819161 1.4779846723469046 -1 0 0
1519 1 86.85437685186763 6.401046369819163 1.4779846723469077 -1 0 0
1517 4 83.15899325419761 8.535447967959515 0.01208114198288587 -1 0 0
1514 1 85.00639883151909 9.60183819233316 1.4779846723469054 -1 0 0
1523 4 86.85494929489462 8.535447967959517 0.01208114198288731 -1 0 0
1515 3 85.00421988866464 7.4656950532294095 2.9382066035010483 -1 0 0
1516 3 83.15624186831583 10.666486875743413 2.938206603501048 -1 0 0
1522 3 86.85219790901283 10.666486875743411 2.938206603501047 -1 0 0
1525 1 90.55033289256463 6.401046369819163 1.4779846723469074 -1 0 0
1520 1 88.70235487221609 9.601838192333162 1.4779846723469066 -1 0 0
1529 4 90.55090533559162 8.535447967959515 0.012081141982884782 -1 0 0
1526 1 92.39831091291309 9.601838192333162 1.4779846723469074 -1 0 0
1521 3 88.70017592936165 7.46569505322941 2.9382066035010492 -1 0 0
1527 3 92.39613197005865 7.465695053229409 2.938206603501048 -1 0 0
1528 3 90.54815394970983 10.666486875743413 2.93820660350105 -1 0 0
1531 1 94.24628893326162 6.401046369819162 1.4779846723469057 -1 0 0
1537 1 97.94224497395862 6.401046369819162 1.4779846723469066 -1 0 0
1535 4 94.24686137628862 8.535447967959517 0.012081141982887135 -1 0 0
1532 1 96.09426695361009 9.60183819233316 1.4779846723469052 -1 0 0
1541 4 97.94281741698562 8.535447967959515 0.01208114198288638 -1 0 0
1538 1 99.79022299430709 9.601838192333162 1.4779846723469063 -1 0 0
1539 3 99.78804405145264 7.4656950532294095 2.9382066035010483 -1 0 0
1533 3 96.09208801075565 7.46569505322941 2.9382066035010497 -1 0 0
1534 3 94.24410999040684 10.666486875743411 2.9382066035010466 -1 0 0
1540 3 97.94006603110383 10.666486875743411 2.9382066035010483 -1 0 0
1705 1 1.8473879158366293 12.802630014847164 1.477984672346907 0 0 0
1548 4 3.6959383792120453 11.736239790473515 0.012081141982887312 0 0 0
1711 1 5.54334395653363 12.802630014847162 1.4779846723469068 0 0 0
1709 4 1.8479603588636133 14.937031612987518 0.01208114198288569 0 0 0
1715 4 5.543916399560612 14.937031612987518 0.012081141982885192 0 0 0
1706 1 3.695365936185088 16.003421837361163 1.4779846723469061 0 0 0
1707 3 3.693186993330651 13.867278698257412 2.9382066035010497 0 0 0
1708 3 1.8452089729818308 17.06807052077141 2.9382066035010483 0 0 0
1714 3 5.541165013678831 17.06807052077141 2.938206603501049 0 0 0
1554 4 7.391894419909044 11.736239790473515 0.012081141982887098 0 0 0
1717 1 9.23929999723063 12.802630014847162 1.4779846723469068 0 0 0
1560 4 11.087850460606044 11.736239790473517 0.012081141982888058 0 0 0
1721 4 9.239872440257612 14.937031612987518 0.012081141982885301 0 0 0
1712 1 7.391321976882087 16.003421837361163 1.4779846723469061 0 0 0
1718 1 11.087278017579088 16.003421837361163 1.4779846723469061 0 0 0
1713 3 7.38914303402765 13.867278698257412 2.9382066035010492 0 0 0
1719 3 11.08509907472465 13.867278698257412 2.938206603501049 0 0 0
1720 3 9.23712105437583 17.06807052077141 2.9382066035010483 0 0 0
1723 1 12.93525603792763 12.802630014847164 1.4779846723469074 0 0 0
1566 4 14.783806501303044 11.736239790473515 0.01208114198288714 0 0 0
1729 1 16.63121207862463 12.802630014847162 1.4779846723469066 0 0 0
1727 4 12.935828480954614 14.937031612987518 0.012081141982885539 0 0 0
1733 4 16.631784521651614 14.937031612987518 0.012081141982885147 0 0 0
1724 1 14.78323405827609 16.003421837361163 1.477984672346906 0 0 0
1725 3 14.781055115421653 13.867278698257412 2.9382066035010492 0 0 0
1726 3 12.933077095072832 17.06807052077141 2.9382066035010483 0 0 0
1732 3 16.62903313576983 17.06807052077141 2.938206603501049 0 0 0
1572 4 18.479762542000042 11.736239790473515 0.012081141982887109 0 0 0
1735 1 20.327168119321627 12.802630014847162 1.4779846723469068 0 0 0
1578 4 22.17571858269704 11.736239790473515 0.012081141982886814 0 0 0
1739 4 20.327740562348612 14.937031612987518 0.012081141982885244 0 0 0
1730 1 18.47919009897309 16.003421837361163 1.477984672346906 0 0 0
1736 1 22.175146139670087 16.003421837361163 1.477984672346906 0 0 0
1731 3 18.47701115611865 13.867278698257412 2.9382066035010492 0 0 0
1737 3 22.17296719681565 13.867278698257412 2.938206603501049 0 0 0
1738 3 20.32498917646683 17.06807052077141 2.938206603501049 0 0 0
1741 1 24.02312416001863 12.802630014847162 1.4779846723469052 0 0 0
1584 4 25.871674623394046 11.736239790473515 0.012081141982886819 0 0 0
1747 1 27.71908020071563 12.802630014847162 1.4779846723469066 0 0 0
1745 4 24.023696603045614 14.93703161298752 0.012081141982886508 0 0 0
1751 4 27.719652643742613 14.937031612987518 0.012081141982885263 0 0 0
1742 1 25.87110218036709 16.003421837361163 1.4779846723469063 0 0 0
1743 3 25.86892323751265 13.867278698257412 2.938206603501049 0 0 0
1744 3 24.02094521716383 17.06807052077141 2.938206603501047 0 0 0
1750 3 27.716901257860833 17.06807052077141 2.938206603501049 0 0 0
1590 4 29.567630664091045 11.736239790473515 0.01208114198288707 0 0 0
1753 1 31.41503624141263 12.802630014847162 1.4779846723469063 0 0 0
1596 4 33.26358670478805 11.736239790473515 0.012081141982886692 0 0 0
1759 1 35.11099228210963 12.802630014847164 1.4779846723469066 0 0 0
1757 4 31.41560868443961 14.937031612987518 0.01208114198288523 0 0 0
1763 4 35.11156472513661 14.937031612987518 0.012081141982885584 0 0 0
1748 1 29.567058221064087 16.003421837361163 1.477984672346906 0 0 0
1754 1 33.263014261761086 16.003421837361163 1.4779846723469054 0 0 0
1749 3 29.56487927820965 13.867278698257412 2.9382066035010492 0 0 0
1755 3 33.26083531890664 13.867278698257412 2.9382066035010492 0 0 0
1756 3 31.41285729855783 17.06807052077141 2.938206603501049 0 0 0
1762 3 35.10881333925483 17.06807052077141 2.9382066035010483 0 0 0
1602 4 36.959542745485045 11.736239790473517 0.012081141982888694 0 0 0
1765 1 38.80694832280663 12.802630014847164 1.4779846723469072 0 0 0
1608 4 40.655498786182044 11.736239790473515 0.012081141982887105 0 0 0
1769 4 38.807520765833615 14.937031612987518 0.012081141982885082 0 0 0
1760 1 36.95897030245809 16.003421837361163 1.4779846723469066 0 0 0
1766 1 40.65492634315509 16.003421837361163 1.477984672346906 0 0 0
1761 3 36.95679135960365 13.86727869825741 2.938206603501048 0 0 0
1767 3 40.65274740030065 13.867278698257412 2.9382066035010497 0 0 0
1768 3 38.804769379951836 17.06807052077141 2.938206603501049 0 0 0
1771 1 42.50290436350363 12.802630014847162 1.4779846723469068 0 0 0
1614 4 44.35145482687904 11.736239790473515 0.012081141982887343 0 0 0
1777 1 46.19886040420063 12.802630014847164 1.4779846723469081 0 0 0
1775 4 42.503476806530614 14.937031612987518 0.012081141982885303 0 0 0
1781 4 46.19943284722761 14.937031612987518 0.012081141982886038 0 0 0
1772 1 44.35088238385209 16.003421837361163 1.477984672346906 0 0 0
1773 3 44.348703440997646 13.867278698257412 2.9382066035010497 0 0 0
1774 3 42.500725420648834 17.06807052077141 2.9382066035010483 0 0 0
1780 3 46.19668146134583 17.06807052077141 2.9382066035010483 0 0 0
1620 4 48.04741086757604 11.736239790473515 0.012081141982887317 0 0 0
1621 1 49.89481644489763 12.802630014847162 1.4779846723469052 -1 0 0
1464 4 51.743366908273046 11.736239790473515 0.012081141982886779 -1 0 0
1625 4 49.89538888792461 14.937031612987518 0.012081141982885714 -1 0 0
1778 1 48.046838424549094 16.003421837361163 1.477984672346906 0 0 0
1622 1 51.74279446524609 16.003421837361163 1.4779846723469061 -1 0 0
1779 3 48.04465948169465 13.867278698257412 2.938206603501049 0 0 0
1623 3 51.74061552239165 13.867278698257412 2.938206603501049 -1 0 0
1624 3 49.89263750204283 17.06807052077141 2.9382066035010475 -1 0 0
1627 1 53.590772485594634 12.802630014847164 1.477984672346907 -1 0 0
1470 4 55.439322948970045 11.736239790473515 0.012081141982887173 -1 0 0
1633 1 57.28672852629163 12.802630014847162 1.4779846723469068 -1 0 0
1631 4 53.59134492862161 14.937031612987518 0.012081141982885416 -1 0 0
1637 4 57.28730096931861 14.937031612987518 0.012081141982885082 -1 0 0
1628 1 55.43875050594309 16.003421837361163 1.4779846723469061 -1 0 0
1629 3 55.43657156308865 13.867278698257412 2.9382066035010492 -1 0 0
1630 3 53.58859354273983 17.06807052077141 2.938206603501049 -1 0 0
1636 3 57.28454958343683 17.06807052077141 2.938206603501049 -1 0 0
1476 4 59.13527898966704 11.736239790473517 0.012081141982887417 -1 0 0
1639 1 60.98268456698863 12.802630014847162 1.477984672346906 -1 0 0
1482 4 62.83123503036405 11.736239790473515 0.012081141982886148 -1 0 0
1643 4 60.98325701001561 14.937031612987518 0.012081141982885764 -1 0 0
1634 1 59.13470654664009 16.003421837361163 1.477984672346906 -1 0 0
1640 1 62.83066258733709 16.003421837361163 1.4779846723469054 -1 0 0
1635 3 59.13252760378565 13.867278698257412 2.9382066035010483 -1 0 0
1641 3 62.828483644482645 13.867278698257412 2.9382066035010497 -1 0 0
1642 3 60.98050562413383 17.06807052077141 2.938206603501048 -1 0 0
1645 1 64.67864060768562 12.802630014847164 1.4779846723469072 -1 0 0
1488 4 66.52719107106104 11.736239790473517 0.012081141982888167 -1 0 0
1651 1 68.37459664838262 12.802630014847162 1.4779846723469057 -1 0 0
1494 4 70.22314711175805 11.736239790473515 0.012081141982888165 -1 0 0
1649 4 64.67921305071262 14.937031612987518 0.012081141982885232 -1 0 0
1655 4 68.37516909140962 14.937031612987518 0.012081141982886052 -1 0 0
1646 1 66.52661862803409 16.003421837361163 1.4779846723469072 -1 0 0
1652 1 70.2225746687311 16.003421837361163 1.477984672346906 -1 0 0
1647 3 66.52443968517964 13.867278698257412 2.9382066035010483 -1 0 0
1653 3 70.22039572587664 13.867278698257412 2.938206603501049 -1 0 0
1648 3 64.67646166483082 17.06807052077141 2.938206603501049 -1 0 0
1654 3 68.37241770552784 17.06807052077141 2.938206603501048 -1 0 0
1657 1 72.07055268907963 12.802630014847164 1.4779846723469086 -1 0 0
1500 4 73.91910315245505 11.736239790473515 0.012081141982886958 -1 0 0
1663 1 75.76650872977663 12.802630014847162 1.4779846723469046 -1 0 0
1661 4 72.07112513210662 14.937031612987518 0.012081141982885547 -1 0 0
1667 4 75.76708117280361 14.937031612987518 0.012081141982885258 -1 0 0
1658 1 73.9185307094281 16.003421837361163 1.477984672346906 -1 0 0
1659 3 73.91635176657365 13.867278698257412 2.9382066035010492 -1 0 0
1660 3 72.06837374622484 17.06807052077141 2.938206603501049 -1 0 0
1666 3 75.76432978692183 17.06807052077141 2.938206603501048 -1 0 0
1506 4 77.61505919315205 11.736239790473515 0.012081141982886977 -1 0 0
1669 1 79.46246477047363 12.802630014847164 1.4779846723469088 -1 0 0
1512 4 81.31101523384905 11.736239790473515 0.012081141982886961 -1 0 0
1673 4 79.46303721350061 14.937031612987518 0.012081141982885546 -1 0 0
1664 1 77.6144867501251 16.003421837361163 1.477984672346906 -1 0 0
1670 1 81.3104427908221 16.003421837361163 1.477984672346906 -1 0 0
1665 3 77.61230780727064 13.867278698257412 2.9382066035010492 -1 0 0
1671 3 81.30826384796765 13.867278698257412 2.9382066035010492 -1 0 0
1672 3 79.46028582761883 17.06807052077141 2.938206603501049 -1 0 0
1675 1 83.15842081117063 12.802630014847162 1.4779846723469046 -1 0 0
1518 4 85.00697127454605 11.736239790473515 0.012081141982886404 -1 0 0
1681 1 86.85437685186763 12.802630014847164 1.4779846723469077 -1 0 0
1679 4 83.15899325419761 14.937031612987518 0.012081141982885122 -1 0 0
1685 4 86.85494929489462 14.937031612987518 0.01208114198288649 -1 0 0
1676 1 85.00639883151909 16.003421837361163 1.477984672346905 -1 0 0
1677 3 85.00421988866464 13.867278698257412 2.9382066035010492 -1 0 0
1678 3 83.15624186831583 17.06807052077141 2.938206603501048 -1 0 0
1684 3 86.85219790901283 17.06807052077141 2.9382066035010475 -1 0 0
1524 4 88.70292731524304 11.736239790473515 0.012081141982887305 -1 0 0
1687 1 90.55033289256463 12.802630014847164 1.4779846723469077 -1 0 0
1530 4 92.39888335594004 11.736239790473517 0.012081141982888182 -1 0 0
1691 4 90.55090533559162 14.937031612987516 0.012081141982884054 -1 0 0
1682 1 88.70235487221609 16.003421837361163 1.4779846723469061 -1 0 0
1688 1 92.39831091291309 16.003421837361163 1.4779846723469074 -1 0 0
1683 3 88.70017592936165 13.867278698257412 2.9382066035010497 -1 0 0
1689 3 92.39613197005865 13.86727869825741 2.9382066035010483 -1 0 0
1690 3 90.54815394970983 17.068070520771414 2.9382066035010506 -1 0 0
1693 1 94.24628893326162 12.802630014847162 1.477984672346906 -1 0 0
1536 4 96.09483939663704 11.736239790473515 0.012081141982885114 -1 0 0
1542 4 99.79079543733404 11.736239790473517 0.012081141982888 -1 0 0
1699 1 97.94224497395862 12.802630014847164 1.477984672346907 -1 0 0
1697 4 94.24686137628862 14.93703161298752 0.012081141982886482 -1 0 0
1703 4 97.94281741698562 14.937031612987518 0.012081141982885495 -1 0 0
1694 1 96.09426695361009 16.003421837361163 1.4779846723469052 -1 0 0