LAMMPS data file via write_data, version 29 Aug 2024, timestep = 2, units = metal

7776 atoms
9 atom types

0 99.790813098819 xlo xhi
0 102.425338320448 ylo yhi
-50 50 zlo zhi

Masses

1 118.71
2 118.71
3 118.71
4 32.06
5 32.06
6 32.06
7 32.06
8 32.06
9 32.06

Atoms # atomic

1385 5 1.8479598601698841 2.133864491623074 0.012236408737106293 0 0 0
1382 1 3.6953424795597924 3.2002313262121698 1.47786193624818 0 0 0
1391 5 5.5439159008668835 2.1338644916230742 0.012236408737106083 0 0 0
1386 5 3.6959378805183194 5.3346563141370735 0.01223640873710647 0 0 0
1383 4 3.6931604685908956 1.0640861031982791 2.9381677395190184 0 0 0
1384 4 1.84518244824208 4.2648779257122795 2.938167739519018 0 0 0
1390 4 5.5411384889390805 4.26487792571228 2.9381677395190184 0 0 0
1388 1 7.391298520256791 3.2002313262121698 1.47786193624818 0 0 0
1397 5 9.239871941563882 2.133864491623074 0.01223640873710619 0 0 0
1394 1 11.087254560953792 3.20023132621217 1.47786193624818 0 0 0
1392 5 7.391893921215318 5.3346563141370735 0.012236408737106132 0 0 0
1398 5 11.087849961912319 5.334656314137074 0.01223640873710713 0 0 0
1389 4 7.389116509287895 1.064086103198279 2.938167739519018 0 0 0
1395 4 11.085072549984893 1.0640861031982785 2.9381677395190176 0 0 0
1396 4 9.23709452963608 4.26487792571228 2.9381677395190184 0 0 0
1403 5 12.935827982260884 2.133864491623074 0.012236408737106401 0 0 0
1400 1 14.783210601650794 3.20023132621217 1.47786193624818 0 0 0
1409 5 16.631784022957884 2.1338644916230742 0.012236408737105969 0 0 0
1404 5 14.78380600260932 5.334656314137074 0.012236408737106592 0 0 0
1401 4 14.781028590681897 1.064086103198279 2.938167739519018 0 0 0
1402 4 12.933050570333082 4.2648779257122795 2.938167739519019 0 0 0
1408 4 16.62900661103008 4.26487792571228 2.9381677395190184 0 0 0
1406 1 18.479166642347792 3.20023132621217 1.47786193624818 0 0 0
1415 5 20.327740063654883 2.1338644916230742 0.012236408737106318 0 0 0
1412 1 22.17512268304479 3.2002313262121698 1.47786193624818 0 0 0
1410 5 18.479762043306316 5.3346563141370735 0.01223640873710623 0 0 0
1416 5 22.175718084003318 5.3346563141370735 0.012236408737105903 0 0 0
1407 4 18.476984631378897 1.064086103198279 2.938167739519018 0 0 0
1413 4 22.172940672075896 1.0640861031982787 2.9381677395190176 0 0 0
1414 4 20.324962651727077 4.26487792571228 2.9381677395190184 0 0 0
1421 5 24.023696104351885 2.133864491623075 0.012236408737107126 0 0 0
1418 1 25.871078723741793 3.2002313262121698 1.47786193624818 0 0 0
1427 5 27.719652145048883 2.1338644916230742 0.012236408737106064 0 0 0
1422 5 25.87167412470032 5.334656314137073 0.012236408737105695 0 0 0
1419 4 25.868896712772894 1.0640861031982787 2.938167739519018 0 0 0
1420 4 24.02091869242408 4.2648779257122795 2.9381677395190167 0 0 0
1426 4 27.71687473312108 4.26487792571228 2.9381677395190184 0 0 0
1424 1 29.56703476443879 3.2002313262121698 1.47786193624818 0 0 0
1433 5 31.41560818574588 2.1338644916230742 0.012236408737105879 0 0 0
1430 1 33.262990805135786 3.2002313262121698 1.47786193624818 0 0 0
1439 5 35.11156422644288 2.1338644916230742 0.01223640873710636 0 0 0
1428 5 29.56763016539732 5.3346563141370735 0.012236408737106186 0 0 0
1434 5 33.26358620609432 5.3346563141370735 0.01223640873710619 0 0 0
1425 4 29.564852753469893 1.064086103198279 2.938167739519018 0 0 0
1431 4 33.26080879416689 1.064086103198279 2.9381677395190184 0 0 0
1432 4 31.41283077381808 4.26487792571228 2.938167739519019 0 0 0
1438 4 35.10878681451508 4.2648779257122795 2.9381677395190184 0 0 0
1436 1 36.95894684583279 3.2002313262121698 1.47786193624818 0 0 0
1445 5 38.807520267139886 2.1338644916230742 0.012236408737106264 0 0 0
1442 1 40.6549028865298 3.20023132621217 1.4778619362481797 0 0 0
1440 5 36.959542246791315 5.334656314137074 0.012236408737107306 0 0 0
1446 5 40.65549828748832 5.334656314137074 0.012236408737106583 0 0 0
1437 4 36.9567648348639 1.064086103198278 2.938167739519017 0 0 0
1443 4 40.652720875560895 1.0640861031982787 2.9381677395190176 0 0 0
1444 4 38.80474285521208 4.26487792571228 2.938167739519018 0 0 0
1451 5 42.50347630783689 2.1338644916230742 0.01223640873710609 0 0 0
1448 1 44.350858927226795 3.20023132621217 1.4778619362481797 0 0 0
1457 5 46.19943234853389 2.1338644916230742 0.01223640873710632 0 0 0
1452 5 44.35145432818532 5.334656314137074 0.01223640873710645 0 0 0
1449 4 44.348676916257894 1.0640861031982793 2.938167739519019 0 0 0
1450 4 42.50069889590909 4.26487792571228 2.9381677395190184 0 0 0
1456 4 46.19665493660609 4.2648779257122795 2.938167739519019 0 0 0
1301 5 49.89538838923089 2.1338644916230747 0.012236408737106578 -1 0 0
1454 1 48.046814967923794 3.2002313262121698 1.4778619362481797 0 0 0
1298 1 51.74277100862079 3.2002313262121698 1.47786193624818 -1 0 0
1458 5 48.04741036888232 5.3346563141370735 0.012236408737106099 0 0 0
1302 5 51.743366409579316 5.3346563141370735 0.012236408737106425 -1 0 0
1455 4 48.0446329569549 1.064086103198279 2.938167739519018 0 0 0
1299 4 51.7405889976519 1.0640861031982787 2.9381677395190176 -1 0 0
1300 4 49.892610977303086 4.2648779257122795 2.9381677395190176 -1 0 0
1307 5 53.59134442992789 2.1338644916230742 0.012236408737106191 -1 0 0
1304 1 55.43872704931779 3.2002313262121698 1.47786193624818 -1 0 0
1313 5 57.287300470624885 2.1338644916230742 0.012236408737106377 -1 0 0
1308 5 55.439322450276315 5.3346563141370735 0.012236408737106259 -1 0 0
1305 4 55.436545038348896 1.0640861031982791 2.9381677395190184 -1 0 0
1306 4 53.588567018000084 4.26487792571228 2.938167739519019 -1 0 0
1312 4 57.28452305869708 4.26487792571228 2.938167739519018 -1 0 0
1310 1 59.134683090014796 3.2002313262121698 1.4778619362481797 -1 0 0
1319 5 60.98325651132189 2.1338644916230747 0.012236408737106708 -1 0 0
1316 1 62.830639130711795 3.2002313262121698 1.4778619362481802 -1 0 0
1314 5 59.13527849097332 5.3346563141370735 0.012236408737106514 -1 0 0
1320 5 62.83123453167032 5.3346563141370735 0.012236408737105697 -1 0 0
1311 4 59.132501079045895 1.0640861031982782 2.938167739519017 -1 0 0
1317 4 62.82845711974289 1.0640861031982791 2.938167739519018 -1 0 0
1318 4 60.98047909939409 4.2648779257122795 2.9381677395190176 -1 0 0
1325 5 64.67921255201888 2.133864491623074 0.012236408737105941 -1 0 0
1322 1 66.5265951714088 3.2002313262121693 1.4778619362481789 -1 0 0
1331 5 68.3751685927159 2.1338644916230742 0.012236408737106843 -1 0 0
1328 1 70.2225512121058 3.2002313262121698 1.4778619362481797 -1 0 0
1326 5 66.52719057236733 5.334656314137074 0.012236408737107317 -1 0 0
1332 5 70.22314661306433 5.334656314137074 0.012236408737106425 -1 0 0
1323 4 66.52441316043989 1.0640861031982782 2.938167739519017 -1 0 0
1329 4 70.2203692011369 1.0640861031982793 2.938167739519019 -1 0 0
1324 4 64.67643514009109 4.26487792571228 2.9381677395190184 -1 0 0
1330 4 68.37239118078809 4.2648779257122795 2.9381677395190176 -1 0 0
1337 5 72.0711246334129 2.1338644916230742 0.012236408737106328 -1 0 0
1334 1 73.9185072528028 3.2002313262121698 1.4778619362481797 -1 0 0
1343 5 75.76708067410989 2.1338644916230742 0.012236408737105959 -1 0 0
1338 5 73.91910265376133 5.3346563141370735 0.012236408737106168 -1 0 0
1335 4 73.9163252418339 1.064086103198279 2.938167739519018 -1 0 0
1336 4 72.06834722148508 4.2648779257122795 2.9381677395190184 -1 0 0
1342 4 75.76430326218208 4.26487792571228 2.938167739519018 -1 0 0
1340 1 77.6144632934998 3.20023132621217 1.4778619362481797 -1 0 0
1349 5 79.46303671480689 2.1338644916230742 0.012236408737106326 -1 0 0
1346 1 81.3104193341968 3.2002313262121698 1.4778619362481797 -1 0 0
1344 5 77.61505869445833 5.3346563141370735 0.012236408737106168 -1 0 0
1350 5 81.31101473515533 5.3346563141370735 0.012236408737106175 -1 0 0
1341 4 77.6122812825309 1.064086103198279 2.938167739519018 -1 0 0
1347 4 81.3082373232279 1.064086103198279 2.938167739519018 -1 0 0
1348 4 79.46025930287908 4.2648779257122795 2.9381677395190184 -1 0 0
1355 5 83.15899275550389 2.1338644916230742 0.012236408737105945 -1 0 0
1352 1 85.00637537489379 3.2002313262121698 1.4778619362481797 -1 0 0
1361 5 86.85494879620089 2.133864491623075 0.01223640873710733 -1 0 0
1356 5 85.00697077585232 5.334656314137073 0.012236408737105594 -1 0 0
1353 4 85.0041933639249 1.064086103198279 2.938167739519018 -1 0 0
1354 4 83.15621534357608 4.26487792571228 2.938167739519018 -1 0 0
1360 4 86.85217138427308 4.264877925712279 2.938167739519017 -1 0 0
1358 1 88.70233141559079 3.2002313262121698 1.4778619362481797 -1 0 0
1367 5 90.55090483689789 2.1338644916230725 0.012236408737104725 -1 0 0
1364 1 92.39828745628779 3.20023132621217 1.4778619362481797 -1 0 0
1362 5 88.70292681654932 5.334656314137074 0.01223640873710652 -1 0 0
1368 5 92.39888285724632 5.334656314137075 0.012236408737108326 -1 0 0
1359 4 88.7001494046219 1.0640861031982791 2.9381677395190184 -1 0 0
1365 4 92.3961054453189 1.0640861031982778 2.938167739519017 -1 0 0
1366 4 90.54812742497008 4.26487792571228 2.93816773951902 -1 0 0
1373 5 94.2468608775949 2.133864491623075 0.012236408737107018 -1 0 0
1370 1 96.0942434969848 3.20023132621217 1.477861936248181 -1 0 0
1379 5 97.94281691829188 2.1338644916230742 0.012236408737106396 -1 0 0
1376 1 99.79019953768179 3.2002313262121698 1.4778619362481797 -1 0 0
1374 5 96.09483889794333 5.334656314137072 0.012236408737104397 -1 0 0
1380 5 99.79079493864033 5.334656314137074 0.01223640873710671 -1 0 0
1377 4 99.78801752671289 1.064086103198279 2.9381677395190184 -1 0 0
1371 4 96.0920614860159 1.0640861031982793 2.938167739519018 -1 0 0
1372 4 94.24408346566709 4.2648779257122795 2.9381677395190167 -1 0 0
1378 4 97.94003950636409 4.26487792571228 2.938167739519019 -1 0 0
1543 1 1.8473644592113334 6.40102314872617 1.4778619362481813 0 0 0
1549 1 5.543320499908333 6.4010231487261695 1.4778619362481802 0 0 0
1547 5 1.8479598601698841 8.535448136651073 0.012236408737106403 0 0 0
1544 1 3.6953424795597924 9.601814971240168 1.47786193624818 0 0 0
1553 5 5.5439159008668835 8.535448136651073 0.01223640873710613 0 0 0
1545 4 3.6931604685908956 7.4656697482262775 2.9381677395190184 0 0 0
1546 4 1.84518244824208 10.666461570740278 2.938167739519017 0 0 0
1552 4 5.5411384889390805 10.66646157074028 2.9381677395190176 0 0 0
1555 1 9.239276540605331 6.4010231487261695 1.47786193624818 0 0 0
1550 1 7.391298520256791 9.601814971240168 1.47786193624818 0 0 0
1559 5 9.239871941563882 8.535448136651073 0.012236408737106314 0 0 0
1556 1 11.087254560953792 9.601814971240168 1.4778619362481802 0 0 0
1551 4 7.389116509287895 7.4656697482262775 2.938167739519018 0 0 0
1557 4 11.085072549984893 7.465669748226277 2.9381677395190176 0 0 0
1558 4 9.23709452963608 10.66646157074028 2.9381677395190176 0 0 0
1561 1 12.935232581302332 6.4010231487261695 1.4778619362481809 0 0 0
1567 1 16.631188621999332 6.4010231487261695 1.4778619362481802 0 0 0
1565 5 12.935827982260884 8.535448136651073 0.012236408737106437 0 0 0
1562 1 14.783210601650794 9.601814971240168 1.47786193624818 0 0 0
1571 5 16.631784022957884 8.535448136651073 0.012236408737106096 0 0 0
1563 4 14.781028590681897 7.4656697482262775 2.938167739519018 0 0 0
1564 4 12.933050570333082 10.66646157074028 2.938167739519018 0 0 0
1570 4 16.62900661103008 10.66646157074028 2.938167739519018 0 0 0
1573 1 20.32714466269633 6.4010231487261695 1.4778619362481802 0 0 0
1568 1 18.479166642347792 9.601814971240168 1.47786193624818 0 0 0
1577 5 20.327740063654883 8.535448136651073 0.012236408737106392 0 0 0
1574 1 22.17512268304479 9.601814971240168 1.47786193624818 0 0 0
1569 4 18.476984631378897 7.4656697482262775 2.9381677395190184 0 0 0
1575 4 22.172940672075896 7.4656697482262775 2.9381677395190176 0 0 0
1576 4 20.324962651727077 10.66646157074028 2.9381677395190176 0 0 0
1579 1 24.023100703393332 6.401023148726169 1.4778619362481789 0 0 0
1585 1 27.719056744090334 6.4010231487261695 1.4778619362481802 0 0 0
1583 5 24.023696104351885 8.535448136651073 0.01223640873710727 0 0 0
1580 1 25.871078723741793 9.601814971240168 1.4778619362481797 0 0 0
1589 5 27.719652145048883 8.535448136651073 0.012236408737106186 0 0 0
1581 4 25.868896712772894 7.4656697482262775 2.938167739519018 0 0 0
1582 4 24.02091869242408 10.666461570740278 2.938167739519016 0 0 0
1588 4 27.71687473312108 10.66646157074028 2.9381677395190176 0 0 0
1591 1 31.415012784787333 6.4010231487261695 1.4778619362481802 0 0 0
1597 1 35.11096882548433 6.4010231487261695 1.4778619362481806 0 0 0
1586 1 29.56703476443879 9.601814971240168 1.47786193624818 0 0 0
1595 5 31.41560818574588 8.535448136651073 0.012236408737106002 0 0 0
1592 1 33.262990805135786 9.601814971240168 1.47786193624818 0 0 0
1601 5 35.11156422644288 8.535448136651073 0.012236408737106418 0 0 0
1587 4 29.564852753469893 7.4656697482262775 2.938167739519018 0 0 0
1593 4 33.26080879416689 7.4656697482262775 2.9381677395190184 0 0 0
1594 4 31.41283077381808 10.66646157074028 2.938167739519018 0 0 0
1600 4 35.10878681451508 10.66646157074028 2.9381677395190176 0 0 0
1603 1 38.80692486618133 6.4010231487261695 1.4778619362481797 0 0 0
1598 1 36.95894684583279 9.601814971240168 1.47786193624818 0 0 0
1607 5 38.807520267139886 8.535448136651073 0.01223640873710633 0 0 0
1604 1 40.6549028865298 9.601814971240168 1.47786193624818 0 0 0
1599 4 36.9567648348639 7.465669748226276 2.938167739519017 0 0 0
1605 4 40.652720875560895 7.4656697482262775 2.938167739519018 0 0 0
1606 4 38.80474285521208 10.66646157074028 2.938167739519017 0 0 0
1609 1 42.50288090687833 6.4010231487261695 1.4778619362481802 0 0 0
1615 1 46.19883694757533 6.40102314872617 1.4778619362481815 0 0 0
1613 5 42.50347630783689 8.535448136651073 0.01223640873710622 0 0 0
1610 1 44.350858927226795 9.601814971240168 1.47786193624818 0 0 0
1619 5 46.19943234853389 8.535448136651073 0.012236408737106371 0 0 0
1611 4 44.348676916257894 7.4656697482262775 2.938167739519019 0 0 0
1612 4 42.50069889590909 10.66646157074028 2.9381677395190176 0 0 0
1618 4 46.19665493660609 10.66646157074028 2.938167739519018 0 0 0
1459 1 49.894792988272336 6.401023148726169 1.4778619362481793 -1 0 0
1463 5 49.89538838923089 8.535448136651073 0.012236408737106685 -1 0 0
1616 1 48.046814967923794 9.601814971240168 1.4778619362481797 0 0 0
1460 1 51.74277100862079 9.601814971240168 1.47786193624818 -1 0 0
1617 4 48.0446329569549 7.4656697482262775 2.9381677395190184 0 0 0
1461 4 51.7405889976519 7.4656697482262775 2.9381677395190176 -1 0 0
1462 4 49.892610977303086 10.66646157074028 2.9381677395190167 -1 0 0
1465 1 53.590749028969334 6.4010231487261695 1.4778619362481804 -1 0 0
1471 1 57.28670506966633 6.4010231487261695 1.4778619362481795 -1 0 0
1469 5 53.59134442992789 8.535448136651073 0.012236408737106295 -1 0 0
1466 1 55.43872704931779 9.601814971240168 1.47786193624818 -1 0 0
1475 5 57.287300470624885 8.535448136651073 0.012236408737106496 -1 0 0
1467 4 55.436545038348896 7.4656697482262775 2.9381677395190184 -1 0 0
1468 4 53.588567018000084 10.66646157074028 2.938167739519018 -1 0 0
1474 4 57.28452305869708 10.66646157074028 2.9381677395190176 -1 0 0
1477 1 60.98266111036333 6.401023148726169 1.4778619362481797 -1 0 0
1472 1 59.134683090014796 9.601814971240168 1.47786193624818 -1 0 0
1481 5 60.98325651132189 8.535448136651073 0.01223640873710687 -1 0 0
1478 1 62.830639130711795 9.601814971240168 1.4778619362481806 -1 0 0
1473 4 59.132501079045895 7.465669748226277 2.9381677395190176 -1 0 0
1479 4 62.82845711974289 7.465669748226278 2.9381677395190184 -1 0 0
1480 4 60.98047909939409 10.66646157074028 2.938167739519017 -1 0 0
1483 1 64.67861715106034 6.4010231487261695 1.4778619362481797 -1 0 0
1489 1 68.37457319175734 6.4010231487261695 1.477861936248181 -1 0 0
1487 5 64.67921255201888 8.535448136651073 0.012236408737105917 -1 0 0
1484 1 66.5265951714088 9.601814971240168 1.477861936248179 -1 0 0
1493 5 68.3751685927159 8.535448136651073 0.012236408737106855 -1 0 0
1490 1 70.2225512121058 9.601814971240168 1.47786193624818 -1 0 0
1485 4 66.52441316043989 7.465669748226277 2.938167739519017 -1 0 0
1491 4 70.2203692011369 7.4656697482262775 2.938167739519019 -1 0 0
1486 4 64.67643514009109 10.66646157074028 2.9381677395190176 -1 0 0
1492 4 68.37239118078809 10.66646157074028 2.9381677395190167 -1 0 0
1495 1 72.07052923245433 6.4010231487261695 1.477861936248181 -1 0 0
1501 1 75.76648527315133 6.401023148726169 1.4778619362481793 -1 0 0
1499 5 72.0711246334129 8.535448136651073 0.012236408737106344 -1 0 0
1496 1 73.9185072528028 9.601814971240168 1.47786193624818 -1 0 0
1505 5 75.76708067410989 8.535448136651073 0.012236408737105978 -1 0 0
1497 4 73.9163252418339 7.4656697482262775 2.938167739519018 -1 0 0
1498 4 72.06834722148508 10.66646157074028 2.938167739519018 -1 0 0
1504 4 75.76430326218208 10.66646157074028 2.938167739519017 -1 0 0
1507 1 79.46244131384833 6.4010231487261695 1.477861936248181 -1 0 0
1502 1 77.6144632934998 9.601814971240168 1.47786193624818 -1 0 0
1511 5 79.46303671480689 8.535448136651073 0.012236408737106345 -1 0 0
1508 1 81.3104193341968 9.601814971240168 1.47786193624818 -1 0 0
1503 4 77.6122812825309 7.4656697482262775 2.9381677395190184 -1 0 0
1509 4 81.3082373232279 7.4656697482262775 2.938167739519018 -1 0 0
1510 4 79.46025930287908 10.66646157074028 2.938167739519018 -1 0 0
1513 1 83.15839735454533 6.401023148726169 1.4778619362481793 -1 0 0
1519 1 86.85435339524233 6.401023148726169 1.4778619362481793 -1 0 0
1517 5 83.15899275550389 8.535448136651073 0.01223640873710596 -1 0 0
1514 1 85.00637537489379 9.601814971240168 1.47786193624818 -1 0 0
1523 5 86.85494879620089 8.535448136651073 0.012236408737107442 -1 0 0
1515 4 85.0041933639249 7.4656697482262775 2.938167739519018 -1 0 0
1516 4 83.15621534357608 10.66646157074028 2.938167739519017 -1 0 0
1522 4 86.85217138427308 10.666461570740278 2.938167739519016 -1 0 0
1525 1 90.55030943593933 6.40102314872617 1.4778619362481822 -1 0 0
1520 1 88.70233141559079 9.601814971240168 1.47786193624818 -1 0 0
1529 5 90.55090483689789 8.535448136651071 0.012236408737104871 -1 0 0
1526 1 92.39828745628779 9.601814971240168 1.4778619362481802 -1 0 0
1521 4 88.7001494046219 7.4656697482262775 2.938167739519019 -1 0 0
1527 4 92.3961054453189 7.465669748226276 2.938167739519016 -1 0 0
1528 4 90.54812742497008 10.666461570740282 2.93816773951902 -1 0 0
1531 1 94.24626547663634 6.401023148726169 1.4778619362481784 -1 0 0
1537 1 97.94222151733334 6.4010231487261695 1.4778619362481802 -1 0 0
1535 5 94.2468608775949 8.535448136651073 0.012236408737107192 -1 0 0
1532 1 96.0942434969848 9.601814971240168 1.4778619362481806 -1 0 0
1541 5 97.94281691829188 8.535448136651073 0.012236408737106507 -1 0 0
1538 1 99.79019953768179 9.601814971240168 1.4778619362481797 -1 0 0
1539 4 99.78801752671289 7.4656697482262775 2.9381677395190184 -1 0 0
1533 4 96.0920614860159 7.465669748226278 2.9381677395190193 -1 0 0
1534 4 94.24408346566709 10.666461570740278 2.938167739519016 -1 0 0
1540 4 97.94003950636409 10.66646157074028 2.938167739519018 -1 0 0
1705 1 1.8473644592113334 12.80260679375417 1.4778619362481813 0 0 0
1548 5 3.6959378805183194 11.736239959165074 0.0122364087371075 0 0 0
1711 1 5.543320499908333 12.80260679375417 1.4778619362481804 0 0 0
1709 5 1.8479598601698841 14.937031781679075 0.01223640873710555 0 0 0
1715 5 5.5439159008668835 14.937031781679075 0.012236408737105353 0 0 0
1706 1 3.6953424795597924 16.003398616268168 1.4778619362481797 0 0 0
1707 4 3.6931604685908956 13.867253393254279 2.938167739519019 0 0 0
1708 4 1.84518244824208 17.068045215768276 2.938167739519018 0 0 0
1714 4 5.5411384889390805 17.06804521576828 2.938167739519018 0 0 0
1554 5 7.391893921215318 11.736239959165074 0.01223640873710721 0 0 0
1717 1 9.239276540605331 12.80260679375417 1.4778619362481802 0 0 0
1560 5 11.087849961912319 11.736239959165074 0.012236408737107997 0 0 0
1721 5 9.239871941563882 14.937031781679075 0.01223640873710543 0 0 0
1712 1 7.391298520256791 16.003398616268168 1.4778619362481802 0 0 0
1718 1 11.087254560953792 16.00339861626817 1.4778619362481797 0 0 0
1713 4 7.389116509287895 13.867253393254279 2.938167739519019 0 0 0
1719 4 11.085072549984893 13.867253393254279 2.9381677395190184 0 0 0
1720 4 9.23709452963608 17.06804521576828 2.938167739519018 0 0 0
1723 1 12.935232581302332 12.80260679375417 1.477861936248181 0 0 0
1566 5 14.78380600260932 11.736239959165074 0.012236408737107443 0 0 0
1729 1 16.631188621999332 12.80260679375417 1.4778619362481804 0 0 0
1727 5 12.935827982260884 14.937031781679075 0.012236408737105645 0 0 0
1733 5 16.631784022957884 14.937031781679075 0.012236408737105239 0 0 0
1724 1 14.783210601650794 16.003398616268168 1.4778619362481797 0 0 0
1725 4 14.781028590681897 13.867253393254279 2.938167739519019 0 0 0
1726 4 12.933050570333082 17.068045215768276 2.9381677395190184 0 0 0
1732 4 16.62900661103008 17.06804521576828 2.938167739519018 0 0 0
1572 5 18.479762043306316 11.736239959165074 0.012236408737107081 0 0 0
1735 1 20.32714466269633 12.80260679375417 1.4778619362481804 0 0 0
1578 5 22.175718084003318 11.736239959165074 0.012236408737106706 0 0 0
1739 5 20.327740063654883 14.937031781679075 0.01223640873710553 0 0 0
1730 1 18.479166642347792 16.003398616268168 1.47786193624818 0 0 0
1736 1 22.17512268304479 16.003398616268168 1.47786193624818 0 0 0
1731 4 18.476984631378897 13.867253393254279 2.938167739519019 0 0 0
1737 4 22.172940672075896 13.867253393254279 2.938167739519018 0 0 0
1738 4 20.324962651727077 17.06804521576828 2.938167739519018 0 0 0
1741 1 24.023100703393332 12.802606793754169 1.477861936248179 0 0 0
1584 5 25.87167412470032 11.736239959165074 0.012236408737106495 0 0 0
1747 1 27.719056744090334 12.80260679375417 1.4778619362481804 0 0 0
1745 5 24.023696104351885 14.937031781679076 0.012236408737106486 0 0 0
1751 5 27.719652145048883 14.937031781679075 0.01223640873710532 0 0 0
1742 1 25.871078723741793 16.003398616268168 1.47786193624818 0 0 0
1743 4 25.868896712772894 13.867253393254279 2.9381677395190184 0 0 0
1744 4 24.02091869242408 17.068045215768276 2.9381677395190167 0 0 0
1750 4 27.71687473312108 17.06804521576828 2.9381677395190184 0 0 0
1590 5 29.56763016539732 11.736239959165074 0.012236408737107064 0 0 0
1753 1 31.415012784787333 12.80260679375417 1.4778619362481804 0 0 0
1596 5 33.26358620609432 11.736239959165074 0.012236408737107069 0 0 0
1759 1 35.11096882548433 12.80260679375417 1.477861936248181 0 0 0
1757 5 31.41560818574588 14.937031781679075 0.012236408737105142 0 0 0
1763 5 35.11156422644288 14.937031781679075 0.012236408737105551 0 0 0
1748 1 29.56703476443879 16.003398616268168 1.47786193624818 0 0 0
1754 1 33.262990805135786 16.003398616268168 1.47786193624818 0 0 0
1749 4 29.564852753469893 13.867253393254279 2.938167739519019 0 0 0
1755 4 33.26080879416689 13.867253393254279 2.938167739519019 0 0 0
1756 4 31.41283077381808 17.06804521576828 2.9381677395190184 0 0 0
1762 4 35.10878681451508 17.06804521576828 2.938167739519018 0 0 0
1602 5 36.959542246791315 11.736239959165076 0.012236408737108195 0 0 0
1765 1 38.80692486618133 12.80260679375417 1.47786193624818 0 0 0
1608 5 40.65549828748832 11.736239959165074 0.012236408737107407 0 0 0
1769 5 38.807520267139886 14.937031781679075 0.012236408737105414 0 0 0
1760 1 36.95894684583279 16.00339861626817 1.4778619362481797 0 0 0
1766 1 40.6549028865298 16.003398616268168 1.47786193624818 0 0 0
1761 4 36.9567648348639 13.867253393254279 2.9381677395190176 0 0 0
1767 4 40.652720875560895 13.867253393254279 2.9381677395190184 0 0 0
1768 4 38.80474285521208 17.06804521576828 2.938167739519018 0 0 0
1771 1 42.50288090687833 12.80260679375417 1.4778619362481804 0 0 0
1614 5 44.35145432818532 11.736239959165074 0.01223640873710733 0 0 0
1777 1 46.19883694757533 12.80260679375417 1.4778619362481817 0 0 0
1775 5 42.50347630783689 14.937031781679075 0.01223640873710536 0 0 0
1781 5 46.19943234853389 14.937031781679075 0.012236408737105612 0 0 0
1772 1 44.350858927226795 16.003398616268168 1.47786193624818 0 0 0
1773 4 44.348676916257894 13.867253393254279 2.9381677395190193 0 0 0
1774 4 42.50069889590909 17.06804521576828 2.938167739519018 0 0 0
1780 4 46.19665493660609 17.068045215768276 2.9381677395190184 0 0 0
1620 5 48.04741036888232 11.736239959165074 0.012236408737106963 0 0 0
1621 1 49.894792988272336 12.80260679375417 1.4778619362481793 -1 0 0
1464 5 51.743366409579316 11.736239959165074 0.012236408737107435 -1 0 0
1625 5 49.89538838923089 14.937031781679076 0.01223640873710587 -1 0 0
1778 1 48.046814967923794 16.003398616268168 1.4778619362481797 0 0 0
1622 1 51.74277100862079 16.003398616268168 1.47786193624818 -1 0 0
1779 4 48.0446329569549 13.867253393254279 2.938167739519019 0 0 0
1623 4 51.7405889976519 13.867253393254279 2.938167739519018 -1 0 0
1624 4 49.892610977303086 17.068045215768276 2.938167739519017 -1 0 0
1627 1 53.590749028969334 12.80260679375417 1.4778619362481809 -1 0 0
1470 5 55.439322450276315 11.736239959165074 0.01223640873710723 -1 0 0
1633 1 57.28670506966633 12.80260679375417 1.4778619362481797 -1 0 0
1631 5 53.59134442992789 14.937031781679075 0.012236408737105445 -1 0 0
1637 5 57.287300470624885 14.937031781679075 0.012236408737105613 -1 0 0
1628 1 55.43872704931779 16.003398616268168 1.47786193624818 -1 0 0
1629 4 55.436545038348896 13.867253393254279 2.938167739519019 -1 0 0
1630 4 53.588567018000084 17.068045215768276 2.9381677395190184 -1 0 0
1636 4 57.28452305869708 17.06804521576828 2.938167739519018 -1 0 0
1476 5 59.13527849097332 11.736239959165074 0.012236408737107464 -1 0 0
1639 1 60.98266111036333 12.80260679375417 1.4778619362481795 -1 0 0
1482 5 62.83123453167032 11.736239959165072 0.012236408737106566 -1 0 0
1643 5 60.98325651132189 14.937031781679076 0.012236408737106012 -1 0 0
1634 1 59.134683090014796 16.00339861626817 1.4778619362481795 -1 0 0
1640 1 62.830639130711795 16.00339861626817 1.4778619362481802 -1 0 0
1635 4 59.132501079045895 13.867253393254279 2.938167739519018 -1 0 0
1641 4 62.82845711974289 13.86725339325428 2.938167739519019 -1 0 0
1642 4 60.98047909939409 17.068045215768276 2.9381677395190176 -1 0 0
1645 1 64.67861715106034 12.80260679375417 1.47786193624818 -1 0 0
1488 5 66.52719057236733 11.736239959165076 0.012236408737108212 -1 0 0
1651 1 68.37457319175734 12.80260679375417 1.4778619362481815 -1 0 0
1494 5 70.22314661306433 11.736239959165074 0.012236408737107306 -1 0 0
1649 5 64.67921255201888 14.937031781679075 0.012236408737105103 -1 0 0
1655 5 68.3751685927159 14.937031781679075 0.012236408737105941 -1 0 0
1646 1 66.5265951714088 16.003398616268168 1.4778619362481789 -1 0 0
1652 1 70.2225512121058 16.003398616268168 1.47786193624818 -1 0 0
1647 4 66.52441316043989 13.867253393254279 2.9381677395190176 -1 0 0
1653 4 70.2203692011369 13.86725339325428 2.9381677395190193 -1 0 0
1648 4 64.67643514009109 17.06804521576828 2.9381677395190184 -1 0 0
1654 4 68.37239118078809 17.06804521576828 2.938167739519017 -1 0 0
1657 1 72.07052923245433 12.80260679375417 1.4778619362481813 -1 0 0
1500 5 73.91910265376133 11.736239959165074 0.012236408737106965 -1 0 0
1663 1 75.76648527315133 12.802606793754169 1.4778619362481795 -1 0 0
1661 5 72.0711246334129 14.937031781679075 0.012236408737105563 -1 0 0
1667 5 75.76708067410989 14.937031781679075 0.01223640873710521 -1 0 0
1658 1 73.9185072528028 16.003398616268168 1.47786193624818 -1 0 0
1659 4 73.9163252418339 13.867253393254279 2.938167739519019 -1 0 0
1660 4 72.06834722148508 17.068045215768276 2.9381677395190184 -1 0 0
1666 4 75.76430326218208 17.06804521576828 2.9381677395190176 -1 0 0
1506 5 77.61505869445833 11.736239959165074 0.012236408737107015 -1 0 0
1669 1 79.46244131384833 12.80260679375417 1.4778619362481813 -1 0 0
1512 5 81.31101473515533 11.736239959165074 0.012236408737106966 -1 0 0
1673 5 79.46303671480689 14.937031781679075 0.012236408737105563 -1 0 0
1664 1 77.6144632934998 16.003398616268168 1.47786193624818 -1 0 0
1670 1 81.3104193341968 16.003398616268168 1.47786193624818 -1 0 0
1665 4 77.6122812825309 13.867253393254279 2.9381677395190184 -1 0 0
1671 4 81.3082373232279 13.867253393254279 2.938167739519019 -1 0 0
1672 4 79.46025930287908 17.068045215768276 2.9381677395190184 -1 0 0
1675 1 83.15839735454533 12.802606793754169 1.4778619362481795 -1 0 0
1518 5 85.00697077585232 11.736239959165074 0.012236408737106444 -1 0 0
1681 1 86.85435339524233 12.80260679375417 1.4778619362481795 -1 0 0
1679 5 83.15899275550389 14.937031781679075 0.01223640873710519 -1 0 0
1685 5 86.85494879620089 14.937031781679076 0.012236408737106599 -1 0 0
1676 1 85.00637537489379 16.003398616268168 1.47786193624818 -1 0 0
1677 4 85.0041933639249 13.867253393254279 2.9381677395190184 -1 0 0
1678 4 83.15621534357608 17.06804521576828 2.9381677395190176 -1 0 0
1684 4 86.85217138427308 17.068045215768276 2.938167739519017 -1 0 0
1524 5 88.70292681654932 11.736239959165074 0.012236408737107301 -1 0 0
1687 1 90.55030943593933 12.80260679375417 1.4778619362481822 -1 0 0
1530 5 92.39888285724632 11.736239959165076 0.012236408737108097 -1 0 0
1691 5 90.55090483689789 14.937031781679075 0.01223640873710403 -1 0 0
1682 1 88.70233141559079 16.003398616268168 1.47786193624818 -1 0 0
1688 1 92.39828745628779 16.00339861626817 1.4778619362481797 -1 0 0
1683 4 88.7001494046219 13.867253393254279 2.938167739519019 -1 0 0
1689 4 92.3961054453189 13.867253393254279 2.9381677395190176 -1 0 0
1690 4 90.54812742497008 17.06804521576828 2.9381677395190198 -1 0 0
1693 1 94.24626547663632 12.802606793754169 1.4778619362481784 -1 0 0
1536 5 96.09483889794332 11.736239959165072 0.012236408737106193 -1 0 0
1542 5 99.79079493864033 11.736239959165074 0.012236408737107496 -1 0 0
1699 1 97.94222151733334 12.80260679375417 1.4778619362481804 -1 0 0
1697 5 94.2468608775949 14.937031781679076 0.012236408737106397 -1 0 0
1703 5 97.94281691829188 14.937031781679075 0.01223640873710562 -1 0 0
1694 1 96.0942434969848 16.00339861626817 1.4778619362481809 -1 0 0
1700 1 99.79019953768179 16.003398616268168 1.4778619362481793 -1 0 0
1701 4 99.78801752671289 13.86725339325428 2.938167739519019 -1 0 0