LAMMPS data file via write_data, version 29 Aug 2024, timestep = 3, units = metal

5916 atoms
6 atom types

0 101.308264283414 xlo xhi
0 102.86234608323 ylo yhi
-50 50 zlo zhi

Masses

1 95.95
2 95.95
3 127.6
4 127.6
5 127.6
6 127.6

Atoms # atomic

1478 4 3.781589413471631e-05 2.0168820327606958 0.024159327872229013 0 0 0
1659 1 1.7470670830244541 3.024988649683631 1.8584404904876517 0 0 0
1484 4 3.4934262394601348 2.0168820327606953 0.024159327872229193 0 0 0
1665 1 5.240455506590456 3.024988649683631 1.858440490487652 0 0 0
1657 4 1.746732027677133 5.0422451528556955 0.02415932787222859 0 0 0
1663 4 5.240120451243135 5.0422451528556955 0.024159327872228555 0 0 0
1490 4 6.986814663026136 2.0168820327606953 0.024159327872229262 0 0 0
1671 1 8.733843930156457 3.0249886496836313 1.8584404904876517 0 0 0
1496 4 10.480203086592134 2.0168820327606953 0.02415932787222986 0 0 0
1669 4 8.733508874809136 5.0422451528556955 0.024159327872229176 0 0 0
1677 1 12.227232353722455 3.024988649683631 1.8584404904876517 0 0 0
1502 4 13.973591510158132 2.0168820327606953 0.024159327872229307 0 0 0
1508 4 17.466979933724133 2.016882032760695 0.024159327872228867 0 0 0
1683 1 15.720620777288456 3.024988649683631 1.858440490487652 0 0 0
1675 4 12.226897298375134 5.0422451528556955 0.024159327872229287 0 0 0
1681 4 15.720285721941135 5.0422451528556955 0.02415932787222854 0 0 0
1689 1 19.214009200854456 3.024988649683631 1.8584404904876517 0 0 0
1514 4 20.960368357290136 2.016882032760695 0.024159327872229474 0 0 0
1695 1 22.707397624420455 3.024988649683631 1.858440490487652 0 0 0
1687 4 19.213674145507138 5.042245152855696 0.024159327872229193 0 0 0
1693 4 22.707062569073134 5.042245152855696 0.02415932787222932 0 0 0
1520 4 24.453756780856136 2.016882032760695 0.02415932787222904 0 0 0
1701 1 26.20078604798646 3.0249886496836313 1.8584404904876517 0 0 0
1526 4 27.94714520442214 2.0168820327606953 0.02415932787222959 0 0 0
1707 1 29.694174471552458 3.024988649683631 1.8584404904876517 0 0 0
1699 4 26.200450992639134 5.0422451528556955 0.024159327872228624 0 0 0
1705 4 29.693839416205137 5.0422451528556955 0.024159327872229238 0 0 0
1532 4 31.440533627988135 2.0168820327606953 0.024159327872229745 0 0 0
1538 4 34.933922051554134 2.016882032760695 0.024159327872228922 0 0 0
1713 1 33.18756289511846 3.024988649683631 1.8584404904876517 0 0 0
1711 4 33.18722783977114 5.042245152855695 0.024159327872228686 0 0 0
1719 1 36.68095131868446 3.024988649683631 1.858440490487652 0 0 0
1544 4 38.42731047512014 2.016882032760695 0.02415932787222916 0 0 0
1725 1 40.17433974225046 3.0249886496836313 1.858440490487652 0 0 0
1717 4 36.680616263337136 5.042245152855696 0.024159327872228898 0 0 0
1723 4 40.17400468690314 5.042245152855696 0.024159327872229342 0 0 0
1550 4 41.92069889868614 2.0168820327606944 0.024159327872229287 0 0 0
1731 1 43.667728165816456 3.024988649683631 1.8584404904876515 0 0 0
1556 4 45.414087322252136 2.0168820327606958 0.02415932787222934 0 0 0
1737 1 47.16111658938246 3.0249886496836313 1.8584404904876517 0 0 0
1729 4 43.667393110469135 5.0422451528556955 0.024159327872228926 0 0 0
1735 4 47.16078153403514 5.0422451528556955 0.02415932787222882 0 0 0
1562 4 48.90747574581814 2.0168820327606953 0.024159327872229287 0 0 0
1569 1 50.65450501294846 3.0249886496836305 1.8584404904876517 -1 0 0
1394 4 52.40086416938414 2.0168820327606953 0.024159327872229196 -1 0 0
1567 4 50.65416995760114 5.0422451528556955 0.024159327872228586 -1 0 0
1575 1 54.14789343651446 3.024988649683631 1.858440490487652 -1 0 0
1400 4 55.89425259295014 2.0168820327606953 0.024159327872229477 -1 0 0
1581 1 57.64128186008046 3.024988649683631 1.858440490487652 -1 0 0
1406 4 59.38764101651614 2.0168820327606953 0.024159327872229075 -1 0 0
1573 4 54.14755838116714 5.0422451528556955 0.02415932787222929 -1 0 0
1579 4 57.64094680473314 5.0422451528556955 0.024159327872228832 -1 0 0
1587 1 61.13467028364646 3.0249886496836313 1.8584404904876517 -1 0 0
1412 4 62.88102944008214 2.0168820327606953 0.024159327872229866 -1 0 0
1593 1 64.62805870721246 3.0249886496836313 1.8584404904876517 -1 0 0
1585 4 61.134335228299136 5.0422451528556955 0.024159327872229623 -1 0 0
1591 4 64.62772365186514 5.0422451528556955 0.02415932787222864 -1 0 0
1418 4 66.37441786364813 2.0168820327606953 0.024159327872228523 -1 0 0
1599 1 68.12144713077846 3.0249886496836313 1.8584404904876517 -1 0 0
1424 4 69.86780628721414 2.0168820327606953 0.024159327872230428 -1 0 0
1597 4 68.12111207543114 5.0422451528556955 0.024159327872228627 -1 0 0
1605 1 71.61483555434445 3.0249886496836313 1.8584404904876517 -1 0 0
1430 4 73.36119471078013 2.0168820327606958 0.024159327872229647 -1 0 0
1611 1 75.10822397791046 3.024988649683631 1.8584404904876517 -1 0 0
1436 4 76.85458313434613 2.016882032760695 0.024159327872228947 -1 0 0
1603 4 71.61450049899713 5.0422451528556955 0.024159327872229953 -1 0 0
1609 4 75.10788892256313 5.0422451528556955 0.024159327872228555 -1 0 0
1617 1 78.60161240147646 3.024988649683631 1.858440490487652 -1 0 0
1442 4 80.34797155791213 2.016882032760695 0.02415932787222959 -1 0 0
1623 1 82.09500082504246 3.024988649683631 1.8584404904876517 -1 0 0
1615 4 78.60127734612914 5.042245152855696 0.024159327872229387 -1 0 0
1621 4 82.09466576969514 5.0422451528556955 0.024159327872228575 -1 0 0
1448 4 83.84135998147813 2.0168820327606953 0.024159327872228548 -1 0 0
1629 1 85.58838924860846 3.0249886496836313 1.8584404904876517 -1 0 0
1454 4 87.33474840504414 2.0168820327606953 0.024159327872230452 -1 0 0
1635 1 89.08177767217445 3.0249886496836305 1.858440490487652 -1 0 0
1627 4 85.58805419326114 5.0422451528556955 0.024159327872228627 -1 0 0
1633 4 89.08144261682713 5.0422451528556955 0.02415932787223001 -1 0 0
1460 4 90.82813682861014 2.016882032760695 0.024159327872228974 -1 0 0
1641 1 92.57516609574046 3.0249886496836313 1.8584404904876517 -1 0 0
1466 4 94.32152525217614 2.016882032760695 0.024159327872228995 -1 0 0
1639 4 92.57483104039314 5.0422451528556955 0.024159327872228017 -1 0 0
1647 1 96.06855451930646 3.024988649683631 1.858440490487652 -1 0 0
1472 4 97.81491367574213 2.0168820327606953 0.024159327872230255 -1 0 0
1653 1 99.56194294287246 3.024988649683631 1.858440490487652 -1 0 0
1645 4 96.06821946395914 5.0422451528556955 0.02415932787222987 -1 0 0
1651 4 99.56160788752513 5.042245152855696 0.024159327872229103 -1 0 0
1654 1 0.0003728712414547426 6.050351769778631 1.8584404904876515 0 0 0
1660 1 3.4937612948074555 6.050351769778631 1.8584404904876517 0 0 0
1652 4 3.7815894134777655e-05 8.067608272950697 0.024159327872228832 0 0 0
1833 1 1.7470670830244541 9.07571488987363 1.8584404904876517 0 0 0
1658 4 3.4934262394601348 8.067608272950697 0.024159327872229016 0 0 0
1839 1 5.240455506590456 9.07571488987363 1.8584404904876517 0 0 0
1831 4 1.746732027677133 11.092971393045696 0.024159327872229113 0 0 0
1837 4 5.240120451243135 11.092971393045696 0.024159327872229127 0 0 0
1666 1 6.987149718373456 6.050351769778631 1.8584404904876517 0 0 0
1672 1 10.480538141939455 6.050351769778631 1.8584404904876517 0 0 0
1664 4 6.986814663026136 8.067608272950697 0.024159327872229117 0 0 0
1845 1 8.733843930156457 9.07571488987363 1.8584404904876517 0 0 0
1670 4 10.480203086592134 8.067608272950697 0.024159327872229675 0 0 0
1843 4 8.733508874809136 11.092971393045696 0.024159327872229627 0 0 0
1678 1 13.973926565505455 6.050351769778631 1.8584404904876517 0 0 0
1684 1 17.467314989071458 6.050351769778631 1.8584404904876517 0 0 0
1851 1 12.227232353722455 9.07571488987363 1.8584404904876517 0 0 0
1676 4 13.973591510158132 8.067608272950697 0.024159327872229124 0 0 0
1682 4 17.466979933724133 8.067608272950697 0.02415932787222875 0 0 0
1857 1 15.720620777288456 9.07571488987363 1.8584404904876517 0 0 0
1849 4 12.226897298375134 11.092971393045696 0.024159327872229724 0 0 0
1855 4 15.720285721941135 11.092971393045696 0.024159327872229054 0 0 0
1690 1 20.960703412637457 6.050351769778631 1.8584404904876517 0 0 0
1863 1 19.214009200854456 9.07571488987363 1.858440490487652 0 0 0
1688 4 20.960368357290136 8.067608272950697 0.024159327872229505 0 0 0
1869 1 22.707397624420455 9.07571488987363 1.858440490487652 0 0 0
1861 4 19.213674145507138 11.092971393045696 0.024159327872229623 0 0 0
1867 4 22.707062569073134 11.092971393045696 0.02415932787222972 0 0 0
1696 1 24.454091836203457 6.050351769778631 1.8584404904876515 0 0 0
1702 1 27.947480259769456 6.05035176977863 1.8584404904876515 0 0 0
1694 4 24.453756780856136 8.067608272950697 0.02415932787222896 0 0 0
1875 1 26.20078604798646 9.07571488987363 1.858440490487652 0 0 0
1700 4 27.94714520442214 8.067608272950697 0.024159327872229314 0 0 0
1881 1 29.694174471552458 9.07571488987363 1.858440490487652 0 0 0
1873 4 26.200450992639134 11.092971393045696 0.02415932787222912 0 0 0
1879 4 29.693839416205137 11.092971393045696 0.024159327872229595 0 0 0
1708 1 31.440868683335456 6.05035176977863 1.8584404904876517 0 0 0
1714 1 34.934257106901455 6.050351769778631 1.8584404904876515 0 0 0
1706 4 31.440533627988135 8.067608272950697 0.024159327872229568 0 0 0
1712 4 34.933922051554134 8.067608272950697 0.024159327872228912 0 0 0
1887 1 33.18756289511846 9.07571488987363 1.8584404904876517 0 0 0
1885 4 33.18722783977114 11.092971393045696 0.02415932787222948 0 0 0
1720 1 38.42764553046746 6.050351769778631 1.8584404904876515 0 0 0
1893 1 36.68095131868446 9.07571488987363 1.858440490487652 0 0 0
1718 4 38.42731047512014 8.067608272950697 0.024159327872229196 0 0 0
1899 1 40.17433974225046 9.07571488987363 1.858440490487652 0 0 0
1891 4 36.680616263337136 11.092971393045696 0.024159327872229443 0 0 0
1897 4 40.17400468690314 11.092971393045696 0.024159327872229817 0 0 0
1726 1 41.92103395403346 6.05035176977863 1.8584404904876517 0 0 0
1732 1 45.41442237759946 6.050351769778631 1.8584404904876517 0 0 0
1724 4 41.92069889868614 8.067608272950697 0.024159327872229065 0 0 0
1905 1 43.667728165816456 9.07571488987363 1.858440490487652 0 0 0
1730 4 45.414087322252136 8.067608272950697 0.0241593278722291 0 0 0
1911 1 47.16111658938246 9.07571488987363 1.8584404904876517 0 0 0
1903 4 43.667393110469135 11.092971393045696 0.024159327872229425 0 0 0
1909 4 47.16078153403514 11.092971393045696 0.024159327872229356 0 0 0
1738 1 48.90781080116546 6.050351769778631 1.8584404904876517 0 0 0
1570 1 52.401199224731464 6.050351769778631 1.8584404904876517 -1 0 0
1736 4 48.90747574581814 8.067608272950697 0.024159327872229158 0 0 0
1743 1 50.65450501294846 9.07571488987363 1.858440490487652 -1 0 0
1568 4 52.40086416938414 8.067608272950697 0.02415932787222902 -1 0 0
1741 4 50.65416995760114 11.092971393045696 0.024159327872229026 -1 0 0
1576 1 55.89458764829746 6.050351769778631 1.8584404904876517 -1 0 0
1582 1 59.38797607186346 6.05035176977863 1.8584404904876517 -1 0 0
1749 1 54.14789343651446 9.07571488987363 1.858440490487652 -1 0 0
1574 4 55.89425259295014 8.067608272950697 0.024159327872229457 -1 0 0
1755 1 57.64128186008046 9.07571488987363 1.858440490487652 -1 0 0
1580 4 59.38764101651614 8.067608272950697 0.024159327872229065 -1 0 0
1747 4 54.147558381167144 11.092971393045696 0.024159327872229797 -1 0 0
1753 4 57.64094680473314 11.092971393045696 0.0241593278722293 -1 0 0
1588 1 62.88136449542946 6.05035176977863 1.8584404904876517 -1 0 0
1761 1 61.13467028364646 9.07571488987363 1.858440490487652 -1 0 0
1586 4 62.88102944008214 8.067608272950697 0.024159327872229755 -1 0 0
1767 1 64.62805870721246 9.07571488987363 1.8584404904876517 -1 0 0
1759 4 61.134335228299136 11.092971393045696 0.024159327872230074 -1 0 0
1765 4 64.62772365186514 11.092971393045696 0.024159327872229 -1 0 0
1594 1 66.37475291899545 6.050351769778631 1.8584404904876515 -1 0 0
1600 1 69.86814134256146 6.050351769778631 1.8584404904876517 -1 0 0
1592 4 66.37441786364813 8.067608272950697 0.02415932787222808 -1 0 0
1773 1 68.12144713077846 9.07571488987363 1.858440490487652 -1 0 0
1598 4 69.86780628721414 8.067608272950697 0.024159327872230053 -1 0 0
1771 4 68.12111207543114 11.092971393045696 0.02415932787222897 -1 0 0
1606 1 73.36152976612746 6.050351769778631 1.8584404904876515 -1 0 0
1612 1 76.85491818969345 6.050351769778631 1.8584404904876517 -1 0 0
1779 1 71.61483555434445 9.07571488987363 1.858440490487652 -1 0 0
1604 4 73.36119471078013 8.067608272950698 0.02415932787222942 -1 0 0
1785 1 75.10822397791046 9.07571488987363 1.858440490487652 -1 0 0
1610 4 76.85458313434613 8.067608272950697 0.02415932787222873 -1 0 0
1777 4 71.61450049899713 11.092971393045696 0.02415932787223044 -1 0 0
1783 4 75.10788892256313 11.092971393045696 0.024159327872229196 -1 0 0
1618 1 80.34830661325945 6.05035176977863 1.8584404904876517 -1 0 0
1791 1 78.60161240147646 9.07571488987363 1.858440490487652 -1 0 0
1616 4 80.34797155791213 8.067608272950697 0.02415932787222947 -1 0 0
1797 1 82.09500082504246 9.07571488987363 1.858440490487652 -1 0 0
1789 4 78.60127734612914 11.092971393045696 0.024159327872229828 -1 0 0
1795 4 82.09466576969514 11.092971393045696 0.024159327872228954 -1 0 0
1624 1 83.84169503682546 6.050351769778631 1.8584404904876515 -1 0 0
1630 1 87.33508346039146 6.050351769778631 1.8584404904876517 -1 0 0
1622 4 83.84135998147813 8.067608272950697 0.02415932787222809 -1 0 0
1803 1 85.58838924860846 9.07571488987363 1.858440490487652 -1 0 0
1628 4 87.33474840504414 8.067608272950697 0.024159327872230105 -1 0 0
1809 1 89.08177767217445 9.07571488987363 1.858440490487652 -1 0 0
1801 4 85.58805419326114 11.092971393045696 0.02415932787222897 -1 0 0
1807 4 89.08144261682713 11.092971393045696 0.024159327872230466 -1 0 0
1636 1 90.82847188395746 6.050351769778631 1.8584404904876517 -1 0 0
1642 1 94.32186030752347 6.050351769778631 1.8584404904876515 -1 0 0
1634 4 90.82813682861014 8.067608272950697 0.024159327872228645 -1 0 0
1815 1 92.57516609574046 9.075714889873632 1.8584404904876517 -1 0 0
1640 4 94.32152525217614 8.067608272950697 0.02415932787222864 -1 0 0
1813 4 92.57483104039314 11.092971393045696 0.024159327872228433 -1 0 0
1648 1 97.81524873108945 6.05035176977863 1.8584404904876517 -1 0 0
1821 1 96.06855451930646 9.07571488987363 1.858440490487652 -1 0 0
1646 4 97.81491367574213 8.067608272950697 0.024159327872229984 -1 0 0
1827 1 99.56194294287246 9.07571488987363 1.858440490487652 -1 0 0
1819 4 96.06821946395914 11.092971393045696 0.02415932787223024 -1 0 0
1825 4 99.56160788752513 11.092971393045698 0.024159327872229568 -1 0 0
1828 1 0.00037287124145464484 12.101078009968631 1.8584404904876517 0 0 0
1834 1 3.4937612948074555 12.101078009968631 1.858440490487652 0 0 0
1826 4 3.7815894134883283e-05 14.118334513140693 0.024159327872229155 0 0 0
2007 1 1.7470670830244541 15.126441130063629 1.8584404904876517 0 0 0
1832 4 3.4934262394601348 14.118334513140693 0.024159327872229307 0 0 0
2013 1 5.240455506590456 15.126441130063629 1.8584404904876517 0 0 0
2005 4 1.746732027677133 17.143697633235696 0.024159327872228773 0 0 0
2011 4 5.240120451243135 17.143697633235696 0.024159327872228818 0 0 0
1840 1 6.987149718373456 12.101078009968631 1.858440490487652 0 0 0
1846 1 10.480538141939455 12.101078009968631 1.858440490487652 0 0 0
1838 4 6.986814663026136 14.118334513140693 0.024159327872229443 0 0 0
2019 1 8.733843930156457 15.126441130063629 1.858440490487652 0 0 0
1844 4 10.480203086592134 14.118334513140693 0.02415932787222993 0 0 0
2017 4 8.733508874809136 17.143697633235696 0.024159327872229273 0 0 0
1852 1 13.973926565505455 12.101078009968631 1.858440490487652 0 0 0
1858 1 17.467314989071458 12.101078009968631 1.858440490487652 0 0 0
2025 1 12.227232353722455 15.126441130063629 1.8584404904876517 0 0 0
1850 4 13.973591510158132 14.118334513140693 0.02415932787222942 0 0 0
1856 4 17.466979933724133 14.118334513140693 0.024159327872228846 0 0 0
2031 1 15.720620777288456 15.126441130063629 1.858440490487652 0 0 0
2023 4 12.226897298375134 17.143697633235696 0.02415932787222938 0 0 0
2029 4 15.720285721941135 17.143697633235696 0.02415932787222864 0 0 0
1864 1 20.960703412637457 12.101078009968631 1.858440490487652 0 0 0
2037 1 19.214009200854456 15.126441130063629 1.858440490487652 0 0 0
1862 4 20.960368357290136 14.118334513140693 0.024159327872229207 0 0 0
2043 1 22.707397624420455 15.126441130063629 1.858440490487652 0 0 0
2035 4 19.213674145507138 17.143697633235696 0.024159327872229096 0 0 0
2041 4 22.707062569073134 17.1436976332357 0.024159327872229245 0 0 0
1870 1 24.454091836203457 12.101078009968631 1.8584404904876517 0 0 0
1876 1 27.947480259769456 12.101078009968631 1.858440490487652 0 0 0
1868 4 24.453756780856136 14.118334513140693 0.024159327872228978 0 0 0
2049 1 26.20078604798646 15.126441130063629 1.858440490487652 0 0 0
1874 4 27.94714520442214 14.118334513140695 0.024159327872229627 0 0 0
2055 1 29.694174471552458 15.126441130063629 1.8584404904876517 0 0 0
2047 4 26.200450992639134 17.143697633235696 0.024159327872228607 0 0 0
2053 4 29.693839416205137 17.143697633235696 0.024159327872229453 0 0 0
1882 1 31.440868683335456 12.101078009968631 1.858440490487652 0 0 0
1888 1 34.934257106901455 12.101078009968631 1.858440490487652 0 0 0
1880 4 31.440533627988135 14.118334513140695 0.02415932787222987 0 0 0
1886 4 34.933922051554134 14.118334513140693 0.02415932787222904 0 0 0
2061 1 33.18756289511846 15.126441130063629 1.858440490487652 0 0 0
2059 4 33.18722783977114 17.143697633235696 0.024159327872229016 0 0 0
1894 1 38.42764553046746 12.101078009968631 1.8584404904876517 0 0 0
2067 1 36.68095131868446 15.126441130063629 1.8584404904876517 0 0 0
1892 4 38.42731047512014 14.118334513140693 0.024159327872229134 0 0 0
2073 1 40.17433974225046 15.126441130063629 1.8584404904876517 0 0 0
2065 4 36.680616263337136 17.1436976332357 0.024159327872228964 0 0 0
2071 4 40.17400468690314 17.1436976332357 0.024159327872229377 0 0 0
1900 1 41.92103395403346 12.10107800996863 1.858440490487652 0 0 0
1906 1 45.41442237759946 12.101078009968631 1.858440490487652 0 0 0
1898 4 41.92069889868614 14.118334513140693 0.024159327872229155 0 0 0
2079 1 43.667728165816456 15.126441130063629 1.8584404904876517 0 0 0
1904 4 45.414087322252136 14.118334513140695 0.024159327872229457 0 0 0
2085 1 47.16111658938246 15.126441130063629 1.8584404904876517 0 0 0
2077 4 43.667393110469135 17.143697633235696 0.024159327872228974 0 0 0
2083 4 47.16078153403514 17.143697633235696 0.024159327872229193 0 0 0
1912 1 48.90781080116546 12.101078009968631 1.8584404904876517 0 0 0
1744 1 52.401199224731464 12.101078009968631 1.858440490487652 -1 0 0
1910 4 48.90747574581814 14.118334513140693 0.024159327872229422 0 0 0
1917 1 50.65450501294846 15.126441130063629 1.858440490487652 -1 0 0
1742 4 52.40086416938414 14.118334513140693 0.024159327872229353 -1 0 0
1915 4 50.65416995760114 17.143697633235696 0.02415932787222878 -1 0 0
1750 1 55.89458764829746 12.101078009968631 1.858440490487652 -1 0 0
1756 1 59.38797607186346 12.101078009968631 1.858440490487652 -1 0 0
1923 1 54.14789343651446 15.126441130063629 1.8584404904876517 -1 0 0
1748 4 55.89425259295014 14.118334513140693 0.024159327872229706 -1 0 0
1929 1 57.64128186008046 15.126441130063629 1.8584404904876517 -1 0 0
1754 4 59.38764101651614 14.118334513140693 0.024159327872229203 -1 0 0
1921 4 54.14755838116714 17.143697633235696 0.024159327872229484 -1 0 0
1927 4 57.64094680473314 17.143697633235696 0.024159327872228985 -1 0 0
1762 1 62.88136449542946 12.10107800996863 1.858440490487652 -1 0 0
1935 1 61.13467028364646 15.126441130063629 1.858440490487652 -1 0 0
1760 4 62.88102944008214 14.118334513140693 0.024159327872229935 -1 0 0
1941 1 64.62805870721246 15.126441130063629 1.858440490487652 -1 0 0
1933 4 61.134335228299136 17.1436976332357 0.024159327872229675 -1 0 0
1939 4 64.62772365186514 17.143697633235696 0.024159327872228697 -1 0 0
1768 1 66.37475291899545 12.101078009968631 1.8584404904876517 -1 0 0
1774 1 69.86814134256146 12.101078009968631 1.858440490487652 -1 0 0
1766 4 66.37441786364813 14.118334513140693 0.024159327872228624 -1 0 0
1947 1 68.12144713077846 15.126441130063629 1.858440490487652 -1 0 0
1772 4 69.86780628721414 14.118334513140695 0.024159327872230154 -1 0 0
1945 4 68.12111207543114 17.143697633235696 0.02415932787222852 -1 0 0
1780 1 73.36152976612746 12.101078009968631 1.8584404904876517 -1 0 0
1786 1 76.85491818969345 12.101078009968631 1.8584404904876517 -1 0 0
1953 1 71.61483555434445 15.126441130063629 1.8584404904876517 -1 0 0
1778 4 73.36119471078013 14.118334513140695 0.024159327872229585 -1 0 0
1959 1 75.10822397791046 15.126441130063629 1.8584404904876517 -1 0 0
1784 4 76.85458313434613 14.118334513140693 0.024159327872228735 -1 0 0
1951 4 71.61450049899713 17.1436976332357 0.024159327872230043 -1 0 0
1957 4 75.10788892256313 17.143697633235696 0.024159327872228666 -1 0 0
1792 1 80.34830661325945 12.10107800996863 1.8584404904876521 -1 0 0
1965 1 78.60161240147646 15.126441130063629 1.858440490487652 -1 0 0
1790 4 80.34797155791213 14.118334513140693 0.02415932787222941 -1 0 0
1971 1 82.09500082504246 15.126441130063629 1.858440490487652 -1 0 0
1963 4 78.60127734612914 17.1436976332357 0.02415932787222928 -1 0 0
1969 4 82.09466576969514 17.143697633235696 0.02415932787222854 -1 0 0
1798 1 83.84169503682546 12.101078009968631 1.858440490487652 -1 0 0
1804 1 87.33508346039146 12.101078009968631 1.8584404904876517 -1 0 0
1796 4 83.84135998147813 14.118334513140693 0.024159327872228548 -1 0 0
1977 1 85.58838924860846 15.126441130063629 1.858440490487652 -1 0 0
1802 4 87.33474840504414 14.118334513140695 0.024159327872230213 -1 0 0
1983 1 89.08177767217445 15.126441130063629 1.858440490487652 -1 0 0
1975 4 85.58805419326114 17.143697633235696 0.02415932787222852 -1 0 0
1981 4 89.08144261682713 17.1436976332357 0.024159327872229908 -1 0 0
1810 1 90.82847188395746 12.101078009968631 1.858440490487652 -1 0 0
1816 1 94.32186030752347 12.101078009968631 1.858440490487652 -1 0 0
1808 4 90.82813682861014 14.118334513140693 0.024159327872228895 -1 0 0
1989 1 92.57516609574046 15.126441130063629 1.8584404904876515 -1 0 0
1814 4 94.32152525217614 14.118334513140693 0.024159327872228888 -1 0 0
1987 4 92.57483104039314 17.143697633235696 0.02415932787222797 -1 0 0
1822 1 97.81524873108945 12.10107800996863 1.858440490487652 -1 0 0
1995 1 96.06855451930646 15.126441130063629 1.8584404904876517 -1 0 0
1820 4 97.81491367574213 14.118334513140695 0.02415932787223021 -1 0 0
2001 1 99.56194294287246 15.126441130063629 1.858440490487652 -1 0 0
1993 4 96.06821946395914 17.143697633235696 0.02415932787222985 -1 0 0
1999 4 99.56160788752513 17.1436976332357 0.024159327872229085 -1 0 0
2002 1 0.0003728712414547057 18.15180425015863 1.8584404904876517 0 0 0
2008 1 3.4937612948074555 18.15180425015863 1.8584404904876517 0 0 0
2000 4 3.7815894134885086e-05 20.169060753330694 0.024159327872229904 0 0 0
2181 1 1.7470670830244541 21.177167370253628 1.8584404904876521 0 0 0
2006 4 3.4934262394601348 20.169060753330694 0.024159327872229824 0 0 0
2187 1 5.240455506590456 21.177167370253628 1.8584404904876521 0 0 0
2014 1 6.987149718373456 18.15180425015863 1.858440490487652 0 0 0
2020 1 10.480538141939455 18.15180425015863 1.8584404904876517 0 0 0
2012 4 6.986814663026136 20.169060753330694 0.02415932787222989 0 0 0
2193 1 8.733843930156457 21.177167370253628 1.8584404904876521 0 0 0
2018 4 10.480203086592134 20.169060753330694 0.024159327872230314 0 0 0
2026 1 13.973926565505455 18.15180425015863 1.858440490487652 0 0 0
2032 1 17.467314989071458 18.15180425015863 1.858440490487652 0 0 0
2199 1 12.227232353722455 21.177167370253628 1.8584404904876521 0 0 0
2024 4 13.973591510158132 20.169060753330694 0.024159327872229984 0 0 0
2030 4 17.466979933724133 20.169060753330694 0.024159327872229772 0 0 0
2205 1 15.720620777288456 21.177167370253628 1.858440490487652 0 0 0
2038 1 20.960703412637457 18.15180425015863 1.858440490487652 0 0 0
2211 1 19.214009200854456 21.177167370253628 1.8584404904876521 0 0 0
2036 4 20.960368357290136 20.169060753330694 0.02415932787223054 0 0 0
2217 1 22.707397624420455 21.177167370253628 1.8584404904876524 0 0 0
2044 1 24.454091836203457 18.15180425015863 1.858440490487652 0 0 0
2050 1 27.947480259769456 18.15180425015863 1.8584404904876517 0 0 0
2042 4 24.453756780856136 20.169060753330694 0.02415932787222978 0 0 0
2223 1 26.20078604798646 21.177167370253628 1.8584404904876521 0 0 0
2048 4 27.94714520442214 20.169060753330694 0.024159327872230112 0 0 0
2229 1 29.694174471552458 21.177167370253628 1.8584404904876521 0 0 0
2056 1 31.440868683335456 18.15180425015863 1.8584404904876517 0 0 0
2062 1 34.934257106901455 18.15180425015863 1.8584404904876517 0 0 0
2054 4 31.440533627988135 20.169060753330694 0.024159327872230452 0 0 0
2060 4 34.933922051554134 20.169060753330694 0.024159327872229876 0 0 0
2235 1 33.18756289511846 21.177167370253628 1.858440490487652 0 0 0
2068 1 38.42764553046746 18.15180425015863 1.8584404904876517 0 0 0
2241 1 36.68095131868446 21.177167370253628 1.8584404904876521 0 0 0
2066 4 38.42731047512014 20.169060753330694 0.024159327872230237 0 0 0
2247 1 40.17433974225046 21.177167370253628 1.8584404904876521 0 0 0
2074 1 41.921033954033454 18.15180425015863 1.858440490487652 0 0 0
2080 1 45.41442237759946 18.15180425015863 1.858440490487652 0 0 0
2072 4 41.92069889868614 20.169060753330694 0.024159327872230067 0 0 0
2253 1 43.667728165816456 21.177167370253628 1.8584404904876521 0 0 0
2078 4 45.414087322252136 20.169060753330694 0.024159327872229804 0 0 0
2259 1 47.16111658938246 21.17716737025363 1.8584404904876521 0 0 0
2086 1 48.90781080116546 18.15180425015863 1.8584404904876517 0 0 0
1918 1 52.401199224731464 18.15180425015863 1.8584404904876517 -1 0 0
2084 4 48.90747574581814 20.169060753330694 0.024159327872230078 0 0 0
2091 1 50.65450501294846 21.177167370253628 1.8584404904876521 -1 0 0
1916 4 52.40086416938414 20.169060753330694 0.02415932787223001 -1 0 0
1924 1 55.89458764829746 18.15180425015863 1.8584404904876517 -1 0 0
1930 1 59.38797607186346 18.15180425015863 1.858440490487652 -1 0 0
2097 1 54.14789343651446 21.177167370253628 1.8584404904876521 -1 0 0
1922 4 55.89425259295014 20.169060753330694 0.02415932787223023 -1 0 0
2103 1 57.64128186008046 21.177167370253628 1.8584404904876521 -1 0 0
1928 4 59.38764101651614 20.169060753330694 0.02415932787223001 -1 0 0
1936 1 62.88136449542946 18.15180425015863 1.858440490487652 -1 0 0
2109 1 61.13467028364646 21.177167370253628 1.8584404904876521 -1 0 0
1934 4 62.88102944008214 20.169060753330694 0.024159327872230713 -1 0 0
2115 1 64.62805870721246 21.17716737025363 1.8584404904876521 -1 0 0
1942 1 66.37475291899545 18.15180425015863 1.8584404904876517 -1 0 0
1948 1 69.86814134256146 18.15180425015863 1.858440490487652 -1 0 0
1940 4 66.37441786364813 20.169060753330694 0.024159327872228825 -1 0 0
2121 1 68.12144713077846 21.177167370253628 1.8584404904876521 -1 0 0
1946 4 69.86780628721414 20.169060753330694 0.02415932787223107 -1 0 0
1954 1 73.36152976612745 18.15180425015863 1.858440490487652 -1 0 0
1960 1 76.85491818969345 18.15180425015863 1.858440490487652 -1 0 0
2127 1 71.61483555434445 21.177167370253628 1.8584404904876521 -1 0 0
1952 4 73.36119471078013 20.169060753330694 0.024159327872230393 -1 0 0
2133 1 75.10822397791046 21.177167370253628 1.8584404904876521 -1 0 0
1958 4 76.85458313434613 20.169060753330694 0.024159327872229797 -1 0 0
1966 1 80.34830661325945 18.15180425015863 1.8584404904876521 -1 0 0
2139 1 78.60161240147646 21.177167370253628 1.8584404904876521 -1 0 0
1964 4 80.34797155791213 20.169060753330694 0.02415932787223036 -1 0 0
2145 1 82.09500082504246 21.177167370253628 1.8584404904876521 -1 0 0
1972 1 83.84169503682546 18.15180425015863 1.8584404904876517 -1 0 0
1978 1 87.33508346039146 18.15180425015863 1.858440490487652 -1 0 0
1970 4 83.84135998147813 20.169060753330694 0.02415932787222884 -1 0 0
2151 1 85.58838924860846 21.177167370253628 1.8584404904876521 -1 0 0
1976 4 87.33474840504414 20.169060753330694 0.024159327872231087 -1 0 0
2157 1 89.08177767217445 21.177167370253628 1.8584404904876524 -1 0 0
1984 1 90.82847188395746 18.15180425015863 1.8584404904876517 -1 0 0
1990 1 94.32186030752347 18.15180425015863 1.8584404904876517 -1 0 0
1982 4 90.82813682861014 20.169060753330694 0.02415932787222977 -1 0 0
2163 1 92.57516609574046 21.17716737025363 1.858440490487652 -1 0 0
1988 4 94.32152525217614 20.169060753330694 0.02415932787222978 -1 0 0
1996 1 97.81524873108945 18.15180425015863 1.8584404904876517 -1 0 0
2169 1 96.06855451930646 21.177167370253628 1.8584404904876521 -1 0 0
1994 4 97.81491367574213 20.169060753330694 0.02415932787223119 -1 0 0
2175 1 99.56194294287246 21.177167370253628 1.8584404904876521 -1 0 0
2179 4 1.746732027677133 23.19442387342569 0.024159327872229026 0 0 0
2185 4 5.240120451243135 23.19442387342569 0.024159327872229033 0 0 0
2176 1 0.0003728712414548048 24.202530490348632 1.8584404904876517 0 0 0
2182 1 3.4937612948074555 24.202530490348632 1.8584404904876517 0 0 0
2174 4 3.781589413476199e-05 26.219786993520696 0.024159327872228575 0 0 0
2355 1 1.7470670830244541 27.22789361044363 1.858440490487652 0 0 0
2180 4 3.4934262394601348 26.219786993520696 0.024159327872229037 0 0 0
2361 1 5.240455506590456 27.22789361044363 1.8584404904876515 0 0 0
2191 4 8.733508874809136 23.19442387342569 0.024159327872229422 0 0 0
2188 1 6.987149718373456 24.20253049034863 1.8584404904876517 0 0 0
2194 1 10.480538141939455 24.202530490348632 1.8584404904876517 0 0 0
2186 4 6.986814663026136 26.219786993520696 0.02415932787222905 0 0 0
2367 1 8.733843930156457 27.22789361044363 1.8584404904876517 0 0 0
2192 4 10.480203086592134 26.219786993520696 0.024159327872229505 0 0 0
2197 4 12.226897298375134 23.19442387342569 0.02415932787222954 0 0 0
2203 4 15.720285721941135 23.19442387342569 0.024159327872229228 0 0 0
2200 1 13.973926565505455 24.202530490348632 1.8584404904876515 0 0 0
2206 1 17.467314989071458 24.202530490348632 1.8584404904876517 0 0 0