LAMMPS data file via write_data, version 29 Aug 2024, timestep = 3, units = metal

8874 atoms
9 atom types

0 101.308264283414 xlo xhi
0 102.86234608323 ylo yhi
-50 50 zlo zhi

Masses

1 95.95
2 95.95
3 95.95
4 127.6
5 127.6
6 127.6
7 127.6
8 127.6
9 127.6

Atoms # atomic

1478 5 3.417435765324912e-05 2.016884956444449 0.02375675794056119 0 0 0
1659 1 1.7470230865015393 3.0250329627977934 1.858815939971012 0 0 0
1484 5 3.4934225979236513 2.016884956444449 0.023756757940560917 0 0 0
1665 1 5.240411510067541 3.0250329627977934 1.858815939971012 0 0 0
1657 5 1.7467283861406506 5.04224807653945 0.02375675794056149 0 0 0
1663 5 5.240116809706652 5.04224807653945 0.023756757940561035 0 0 0
1490 5 6.986811021489653 2.016884956444449 0.02375675794056078 0 0 0
1671 1 8.733799933633541 3.025032962797793 1.858815939971012 0 0 0
1496 5 10.48019944505565 2.016884956444449 0.023756757940561462 0 0 0
1669 5 8.733505233272655 5.04224807653945 0.023756757940561472 0 0 0
1677 1 12.22718835719954 3.0250329627977934 1.858815939971012 0 0 0
1502 5 13.97358786862165 2.0168849564444495 0.023756757940560858 0 0 0
1508 5 17.46697629218765 2.016884956444449 0.023756757940560647 0 0 0
1683 1 15.72057678076554 3.0250329627977934 1.858815939971012 0 0 0
1675 5 12.226893656838651 5.04224807653945 0.02375675794056162 0 0 0
1681 5 15.720282080404655 5.04224807653945 0.023756757940561108 0 0 0
1689 1 19.21396520433154 3.0250329627977934 1.8588159399710118 0 0 0
1514 5 20.960364715753652 2.016884956444449 0.023756757940560935 0 0 0
1695 1 22.70735362789754 3.025032962797794 1.858815939971012 0 0 0
1687 5 19.213670503970658 5.042248076539451 0.023756757940561497 0 0 0
1693 5 22.70705892753665 5.042248076539451 0.023756757940561563 0 0 0
1520 5 24.453753139319655 2.016884956444449 0.023756757940560758 0 0 0
1701 1 26.20074205146354 3.0250329627977934 1.8588159399710118 0 0 0
1526 5 27.94714156288566 2.0168849564444495 0.023756757940561063 0 0 0
1707 1 29.694130475029542 3.0250329627977934 1.858815939971012 0 0 0
1699 5 26.20044735110265 5.04224807653945 0.02375675794056112 0 0 0
1705 5 29.693835774668653 5.04224807653945 0.023756757940561417 0 0 0
1532 5 31.44052998645165 2.0168849564444495 0.02375675794056121 0 0 0
1538 5 34.933918410017654 2.016884956444449 0.023756757940560626 0 0 0
1713 1 33.18751889859554 3.025032962797793 1.858815939971012 0 0 0
1711 5 33.18722419823465 5.04224807653945 0.02375675794056116 0 0 0
1719 1 36.680907322161545 3.0250329627977934 1.858815939971012 0 0 0
1544 5 38.42730683358366 2.0168849564444487 0.023756757940561042 0 0 0
1725 1 40.17429574572754 3.025032962797794 1.8588159399710118 0 0 0
1717 5 36.680612621800655 5.042248076539451 0.02375675794056155 0 0 0
1723 5 40.17400104536665 5.042248076539451 0.02375675794056147 0 0 0
1550 5 41.92069525714965 2.016884956444449 0.023756757940560577 0 0 0
1731 1 43.667684169293544 3.0250329627977934 1.8588159399710118 0 0 0
1556 5 45.414083680715656 2.0168849564444495 0.023756757940561295 0 0 0
1737 1 47.16107259285955 3.025032962797793 1.858815939971012 0 0 0
1729 5 43.667389468932654 5.04224807653945 0.023756757940560955 0 0 0
1735 5 47.16077789249866 5.04224807653945 0.023756757940561625 0 0 0
1562 5 48.90747210428165 2.016884956444449 0.023756757940560848 0 0 0
1569 1 50.65446101642554 3.025032962797794 1.858815939971012 -1 0 0
1394 5 52.400860527847655 2.0168849564444495 0.023756757940560532 -1 0 0
1567 5 50.654166316064654 5.04224807653945 0.023756757940560654 -1 0 0
1575 1 54.147849439991546 3.0250329627977934 1.858815939971012 -1 0 0
1400 5 55.89424895141366 2.016884956444449 0.023756757940561205 -1 0 0
1581 1 57.64123786355755 3.0250329627977934 1.858815939971012 -1 0 0
1406 5 59.38763737497966 2.0168849564444495 0.023756757940560834 -1 0 0
1573 5 54.14755473963066 5.04224807653945 0.023756757940561556 -1 0 0
1579 5 57.64094316319666 5.04224807653945 0.023756757940561316 -1 0 0
1587 1 61.134626287123545 3.0250329627977934 1.858815939971012 -1 0 0
1412 5 62.88102579854566 2.0168849564444495 0.023756757940561576 -1 0 0
1593 1 64.62801471068954 3.025032962797794 1.8588159399710116 -1 0 0
1585 5 61.134331586762656 5.042248076539451 0.023756757940561726 -1 0 0
1591 5 64.62772001032866 5.04224807653945 0.02375675794056149 -1 0 0
1418 5 66.37441422211165 2.0168849564444487 0.023756757940560858 -1 0 0
1599 1 68.12140313425554 3.0250329627977934 1.8588159399710116 -1 0 0
1424 5 69.86780264567766 2.0168849564444495 0.023756757940560907 -1 0 0
1597 5 68.12110843389466 5.04224807653945 0.023756757940561004 -1 0 0
1605 1 71.61479155782155 3.0250329627977934 1.8588159399710118 -1 0 0
1430 5 73.36119106924366 2.0168849564444487 0.023756757940561275 -1 0 0
1611 1 75.10817998138755 3.025032962797794 1.8588159399710116 -1 0 0
1436 5 76.85457949280966 2.0168849564444495 0.023756757940561073 -1 0 0
1603 5 71.61449685746067 5.042248076539452 0.02375675794056169 -1 0 0
1609 5 75.10788528102665 5.04224807653945 0.023756757940561438 -1 0 0
1617 1 78.60156840495354 3.025032962797793 1.858815939971012 -1 0 0
1442 5 80.34796791637565 2.01688495644445 0.02375675794056102 -1 0 0
1623 1 82.09495682851954 3.0250329627977934 1.8588159399710118 -1 0 0
1615 5 78.60127370459266 5.04224807653945 0.0237567579405616 -1 0 0
1621 5 82.09466212815866 5.04224807653945 0.02375675794056104 -1 0 0
1448 5 83.84135633994165 2.0168849564444487 0.023756757940560633 -1 0 0
1629 1 85.58834525208555 3.0250329627977934 1.8588159399710116 -1 0 0
1454 5 87.33474476350766 2.0168849564444495 0.023756757940560924 -1 0 0
1635 1 89.08173367565155 3.0250329627977934 1.8588159399710118 -1 0 0
1627 5 85.58805055172466 5.04224807653945 0.023756757940561004 -1 0 0
1633 5 89.08143897529067 5.042248076539452 0.023756757940561746 -1 0 0
1460 5 90.82813318707366 2.0168849564444487 0.023756757940561094 -1 0 0
1641 1 92.57512209921755 3.0250329627977934 1.8588159399710118 -1 0 0
1466 5 94.32152161063966 2.016884956444449 0.023756757940560515 -1 0 0
1639 5 92.57482739885666 5.04224807653945 0.023756757940561347 -1 0 0
1647 1 96.06851052278354 3.025032962797794 1.8588159399710118 -1 0 0
1472 5 97.81491003420567 2.01688495644445 0.023756757940561264 -1 0 0
1653 1 99.56189894634954 3.0250329627977925 1.858815939971012 -1 0 0
1645 5 96.06821582242266 5.042248076539451 0.023756757940561153 -1 0 0
1651 5 99.56160424598866 5.04224807653945 0.023756757940561077 -1 0 0
1654 1 0.000328874718539889 6.050396082892793 1.858815939971012 0 0 0
1660 1 3.49371729828454 6.050396082892793 1.8588159399710118 0 0 0
1652 5 3.417435765327173e-05 8.06761119663445 0.023756757940561892 0 0 0
1833 1 1.7470230865015393 9.075759202987793 1.8588159399710122 0 0 0
1658 5 3.4934225979236513 8.06761119663445 0.023756757940561594 0 0 0
1839 1 5.240411510067541 9.075759202987793 1.8588159399710122 0 0 0
1831 5 1.7467283861406506 11.09297431672945 0.023756757940561764 0 0 0
1837 5 5.240116809706652 11.09297431672945 0.023756757940561417 0 0 0
1666 1 6.987105721850542 6.050396082892793 1.858815939971012 0 0 0
1672 1 10.48049414541654 6.050396082892793 1.858815939971012 0 0 0
1664 5 6.986811021489653 8.06761119663445 0.023756757940561427 0 0 0
1845 1 8.733799933633541 9.075759202987793 1.8588159399710122 0 0 0
1670 5 10.48019944505565 8.06761119663445 0.023756757940561903 0 0 0
1843 5 8.733505233272654 11.09297431672945 0.023756757940561868 0 0 0
1678 1 13.973882568982539 6.050396082892793 1.858815939971012 0 0 0
1684 1 17.46727099254854 6.050396082892793 1.858815939971012 0 0 0
1851 1 12.22718835719954 9.075759202987793 1.858815939971012 0 0 0
1676 5 13.97358786862165 8.06761119663445 0.023756757940561514 0 0 0
1682 5 17.46697629218765 8.06761119663445 0.02375675794056122 0 0 0
1857 1 15.72057678076554 9.075759202987793 1.8588159399710122 0 0 0
1849 5 12.226893656838651 11.09297431672945 0.023756757940561753 0 0 0
1855 5 15.720282080404655 11.09297431672945 0.023756757940561382 0 0 0
1690 1 20.96065941611454 6.050396082892793 1.8588159399710118 0 0 0
1863 1 19.21396520433154 9.075759202987793 1.858815939971012 0 0 0
1688 5 20.960364715753652 8.06761119663445 0.02375675794056156 0 0 0
1869 1 22.70735362789754 9.075759202987793 1.858815939971012 0 0 0
1861 5 19.213670503970658 11.092974316729451 0.02375675794056184 0 0 0
1867 5 22.70705892753665 11.092974316729451 0.023756757940562097 0 0 0
1696 1 24.45404783968054 6.050396082892793 1.8588159399710118 0 0 0
1702 1 27.94743626324654 6.050396082892793 1.858815939971012 0 0 0
1694 5 24.453753139319655 8.06761119663445 0.02375675794056135 0 0 0
1875 1 26.20074205146354 9.075759202987793 1.8588159399710122 0 0 0
1700 5 27.94714156288566 8.06761119663445 0.02375675794056161 0 0 0
1881 1 29.694130475029542 9.075759202987793 1.8588159399710122 0 0 0
1873 5 26.20044735110265 11.09297431672945 0.023756757940561354 0 0 0
1879 5 29.693835774668653 11.09297431672945 0.023756757940561684 0 0 0
1708 1 31.44082468681254 6.050396082892793 1.858815939971012 0 0 0
1714 1 34.93421311037854 6.050396082892793 1.858815939971012 0 0 0
1706 5 31.44052998645165 8.067611196634452 0.023756757940561733 0 0 0
1712 5 34.933918410017654 8.06761119663445 0.023756757940561334 0 0 0
1887 1 33.18751889859554 9.075759202987793 1.8588159399710122 0 0 0
1885 5 33.18722419823465 11.09297431672945 0.023756757940561382 0 0 0
1720 1 38.42760153394455 6.050396082892793 1.858815939971012 0 0 0
1893 1 36.680907322161545 9.075759202987793 1.858815939971012 0 0 0
1718 5 38.42730683358366 8.06761119663445 0.02375675794056173 0 0 0
1899 1 40.17429574572754 9.075759202987793 1.8588159399710122 0 0 0
1891 5 36.680612621800655 11.092974316729451 0.023756757940562076 0 0 0
1897 5 40.17400104536665 11.092974316729451 0.023756757940562 0 0 0
1726 1 41.92098995751054 6.050396082892793 1.858815939971012 0 0 0
1732 1 45.414378381076546 6.050396082892793 1.858815939971012 0 0 0
1724 5 41.92069525714965 8.06761119663445 0.023756757940561174 0 0 0
1905 1 43.667684169293544 9.075759202987793 1.8588159399710122 0 0 0
1730 5 45.414083680715656 8.06761119663445 0.023756757940561826 0 0 0
1911 1 47.16107259285955 9.075759202987793 1.8588159399710122 0 0 0
1903 5 43.667389468932654 11.09297431672945 0.023756757940561323 0 0 0
1909 5 47.16077789249866 11.09297431672945 0.023756757940561927 0 0 0
1738 1 48.90776680464254 6.050396082892793 1.8588159399710118 0 0 0
1570 1 52.401155228208545 6.050396082892793 1.8588159399710118 -1 0 0
1736 5 48.90747210428165 8.06761119663445 0.023756757940561597 0 0 0
1743 1 50.65446101642554 9.075759202987793 1.858815939971012 -1 0 0
1568 5 52.400860527847655 8.06761119663445 0.023756757940561153 -1 0 0
1741 5 50.654166316064654 11.09297431672945 0.023756757940561125 -1 0 0
1576 1 55.89454365177455 6.050396082892793 1.858815939971012 -1 0 0
1582 1 59.38793207534055 6.050396082892794 1.8588159399710118 -1 0 0
1749 1 54.147849439991546 9.075759202987793 1.8588159399710122 -1 0 0
1574 5 55.89424895141366 8.06761119663445 0.0237567579405617 -1 0 0
1755 1 57.64123786355755 9.075759202987793 1.8588159399710122 -1 0 0
1580 5 59.38763737497966 8.067611196634452 0.023756757940561327 -1 0 0
1747 5 54.14755473963066 11.09297431672945 0.023756757940562093 -1 0 0
1753 5 57.64094316319666 11.09297431672945 0.023756757940561608 -1 0 0
1588 1 62.88132049890655 6.050396082892793 1.8588159399710118 -1 0 0
1761 1 61.134626287123545 9.075759202987793 1.8588159399710122 -1 0 0
1586 5 62.88102579854566 8.06761119663445 0.023756757940562086 -1 0 0
1767 1 64.62801471068954 9.075759202987793 1.858815939971012 -1 0 0
1759 5 61.134331586762656 11.09297431672945 0.023756757940562086 -1 0 0
1765 5 64.62772001032866 11.09297431672945 0.023756757940561833 -1 0 0
1594 1 66.37470892247255 6.050396082892793 1.8588159399710116 -1 0 0
1600 1 69.86809734603854 6.050396082892794 1.8588159399710118 -1 0 0
1592 5 66.37441422211165 8.06761119663445 0.02375675794056134 -1 0 0
1773 1 68.12140313425554 9.075759202987793 1.858815939971012 -1 0 0
1598 5 69.86780264567766 8.067611196634452 0.023756757940561445 -1 0 0
1771 5 68.12110843389466 11.09297431672945 0.023756757940561365 -1 0 0
1606 1 73.36148576960454 6.050396082892793 1.858815939971012 -1 0 0
1612 1 76.85487419317055 6.050396082892793 1.8588159399710118 -1 0 0
1779 1 71.61479155782155 9.075759202987793 1.8588159399710122 -1 0 0
1604 5 73.36119106924366 8.06761119663445 0.02375675794056175 -1 0 0
1785 1 75.10817998138755 9.075759202987793 1.858815939971012 -1 0 0
1610 5 76.85457949280966 8.067611196634452 0.023756757940561576 -1 0 0
1777 5 71.61449685746067 11.092974316729451 0.023756757940562007 -1 0 0
1783 5 75.10788528102665 11.09297431672945 0.023756757940561802 -1 0 0
1618 1 80.34826261673655 6.050396082892793 1.858815939971012 -1 0 0
1791 1 78.60156840495354 9.075759202987793 1.8588159399710122 -1 0 0
1616 5 80.34796791637565 8.067611196634452 0.023756757940561705 -1 0 0
1797 1 82.09495682851954 9.075759202987793 1.858815939971012 -1 0 0
1789 5 78.60127370459266 11.092974316729451 0.023756757940562215 -1 0 0
1795 5 82.09466212815866 11.09297431672945 0.02375675794056127 -1 0 0
1624 1 83.84165104030255 6.050396082892793 1.8588159399710116 -1 0 0
1630 1 87.33503946386854 6.050396082892794 1.8588159399710118 -1 0 0
1622 5 83.84135633994165 8.06761119663445 0.02375675794056103 -1 0 0
1803 1 85.58834525208555 9.075759202987793 1.858815939971012 -1 0 0
1628 5 87.33474476350766 8.067611196634452 0.0237567579405614 -1 0 0
1809 1 89.08173367565155 9.075759202987793 1.8588159399710122 -1 0 0
1801 5 85.58805055172466 11.09297431672945 0.023756757940561313 -1 0 0
1807 5 89.08143897529067 11.092974316729451 0.02375675794056215 -1 0 0
1636 1 90.82842788743454 6.050396082892792 1.858815939971012 -1 0 0
1642 1 94.32181631100055 6.050396082892793 1.8588159399710118 -1 0 0
1634 5 90.82813318707366 8.06761119663445 0.023756757940561705 -1 0 0
1815 1 92.57512209921755 9.075759202987793 1.858815939971012 -1 0 0
1640 5 94.32152161063966 8.06761119663445 0.023756757940561167 -1 0 0
1813 5 92.57482739885666 11.09297431672945 0.023756757940561875 -1 0 0
1648 1 97.81520473456655 6.050396082892793 1.8588159399710122 -1 0 0
1821 1 96.06851052278354 9.075759202987793 1.858815939971012 -1 0 0
1646 5 97.81491003420567 8.067611196634452 0.023756757940561833 -1 0 0
1827 1 99.56189894634954 9.075759202987793 1.8588159399710122 -1 0 0
1819 5 96.06821582242266 11.092974316729451 0.023756757940561545 -1 0 0
1825 5 99.56160424598866 11.092974316729451 0.02375675794056144 -1 0 0
1828 1 0.0003288747185398734 12.101122323082793 1.8588159399710122 0 0 0
1834 1 3.49371729828454 12.101122323082793 1.858815939971012 0 0 0
1826 5 3.417435765331915e-05 14.118337436824449 0.023756757940561955 0 0 0
2007 1 1.7470230865015393 15.126485443177792 1.858815939971012 0 0 0
1832 5 3.4934225979236513 14.118337436824449 0.023756757940561573 0 0 0
2013 1 5.240411510067541 15.126485443177792 1.858815939971012 0 0 0
2005 5 1.7467283861406506 17.143700556919452 0.023756757940561316 0 0 0
2011 5 5.240116809706652 17.143700556919452 0.02375675794056092 0 0 0
1840 1 6.987105721850542 12.101122323082793 1.8588159399710122 0 0 0
1846 1 10.48049414541654 12.101122323082793 1.858815939971012 0 0 0
1838 5 6.986811021489653 14.118337436824449 0.023756757940561576 0 0 0
2019 1 8.733799933633541 15.126485443177792 1.858815939971012 0 0 0
1844 5 10.48019944505565 14.11833743682445 0.023756757940562027 0 0 0
2017 5 8.733505233272654 17.143700556919452 0.023756757940561566 0 0 0
1852 1 13.973882568982539 12.101122323082793 1.8588159399710122 0 0 0
1858 1 17.46727099254854 12.101122323082793 1.858815939971012 0 0 0
2025 1 12.22718835719954 15.126485443177792 1.858815939971012 0 0 0
1850 5 13.97358786862165 14.118337436824449 0.023756757940561486 0 0 0
1856 5 17.46697629218765 14.118337436824449 0.023756757940561344 0 0 0
2031 1 15.72057678076554 15.126485443177792 1.858815939971012 0 0 0
2023 5 12.226893656838651 17.143700556919452 0.023756757940561472 0 0 0
2029 5 15.720282080404655 17.143700556919452 0.023756757940560903 0 0 0
1864 1 20.96065941611454 12.101122323082793 1.858815939971012 0 0 0
2037 1 19.21396520433154 15.126485443177792 1.8588159399710122 0 0 0
1862 5 20.960364715753652 14.118337436824449 0.023756757940561774 0 0 0
2043 1 22.70735362789754 15.126485443177792 1.8588159399710122 0 0 0
2035 5 19.213670503970658 17.143700556919452 0.023756757940561472 0 0 0
2041 5 22.70705892753665 17.143700556919452 0.02375675794056155 0 0 0
1870 1 24.45404783968054 12.101122323082793 1.858815939971012 0 0 0
1876 1 27.94743626324654 12.101122323082793 1.858815939971012 0 0 0
1868 5 24.453753139319655 14.118337436824449 0.023756757940561417 0 0 0
2049 1 26.20074205146354 15.126485443177792 1.8588159399710122 0 0 0
1874 5 27.94714156288566 14.11833743682445 0.02375675794056174 0 0 0
2055 1 29.694130475029542 15.126485443177792 1.8588159399710125 0 0 0
2047 5 26.20044735110265 17.143700556919452 0.023756757940561188 0 0 0
2053 5 29.693835774668653 17.143700556919452 0.023756757940561472 0 0 0
1882 1 31.44082468681254 12.101122323082793 1.858815939971012 0 0 0
1888 1 34.93421311037854 12.101122323082793 1.858815939971012 0 0 0
1880 5 31.44052998645165 14.11833743682445 0.02375675794056175 0 0 0
1886 5 34.933918410017654 14.118337436824449 0.023756757940561417 0 0 0
2061 1 33.18751889859554 15.126485443177792 1.8588159399710125 0 0 0
2059 5 33.18722419823465 17.143700556919452 0.023756757940561146 0 0 0
1894 1 38.42760153394455 12.101122323082793 1.8588159399710122 0 0 0
2067 1 36.680907322161545 15.126485443177792 1.8588159399710122 0 0 0
1892 5 38.42730683358366 14.118337436824449 0.023756757940561972 0 0 0
2073 1 40.17429574572754 15.126485443177792 1.8588159399710122 0 0 0
2065 5 36.680612621800655 17.143700556919452 0.023756757940561594 0 0 0
2071 5 40.17400104536665 17.143700556919452 0.023756757940561486 0 0 0
1900 1 41.92098995751054 12.101122323082793 1.8588159399710122 0 0 0
1906 1 45.414378381076546 12.101122323082793 1.858815939971012 0 0 0
1898 5 41.92069525714965 14.118337436824449 0.02375675794056123 0 0 0
2079 1 43.667684169293544 15.126485443177792 1.8588159399710122 0 0 0
1904 5 45.414083680715656 14.11833743682445 0.023756757940561868 0 0 0
2085 1 47.16107259285955 15.126485443177792 1.8588159399710122 0 0 0
2077 5 43.667389468932654 17.143700556919452 0.02375675794056102 0 0 0
2083 5 47.16077789249866 17.143700556919452 0.023756757940561576 0 0 0
1912 1 48.90776680464254 12.101122323082793 1.8588159399710122 0 0 0
1744 1 52.401155228208545 12.101122323082793 1.858815939971012 -1 0 0
1910 5 48.90747210428165 14.118337436824449 0.02375675794056158 0 0 0
1917 1 50.65446101642554 15.126485443177792 1.8588159399710122 -1 0 0
1742 5 52.400860527847655 14.118337436824449 0.02375675794056112 -1 0 0
1915 5 50.654166316064654 17.143700556919452 0.02375675794056049 -1 0 0
1750 1 55.89454365177455 12.101122323082793 1.8588159399710122 -1 0 0
1756 1 59.38793207534055 12.101122323082793 1.8588159399710122 -1 0 0
1923 1 54.147849439991546 15.126485443177792 1.8588159399710125 -1 0 0
1748 5 55.89424895141366 14.118337436824449 0.023756757940561857 -1 0 0
1929 1 57.64123786355755 15.126485443177792 1.8588159399710122 -1 0 0
1754 5 59.38763737497966 14.118337436824449 0.02375675794056134 -1 0 0
1921 5 54.14755473963066 17.143700556919452 0.02375675794056159 -1 0 0
1927 5 57.64094316319666 17.143700556919452 0.023756757940561254 -1 0 0
1762 1 62.88132049890655 12.101122323082793 1.858815939971012 -1 0 0
1935 1 61.134626287123545 15.12648544317779 1.8588159399710122 -1 0 0
1760 5 62.88102579854566 14.118337436824449 0.023756757940562197 -1 0 0
1941 1 64.62801471068954 15.126485443177792 1.8588159399710118 -1 0 0
1933 5 61.134331586762656 17.143700556919452 0.02375675794056162 -1 0 0
1939 5 64.62772001032866 17.143700556919452 0.023756757940561365 -1 0 0
1768 1 66.37470892247255 12.101122323082793 1.8588159399710118 -1 0 0
1774 1 69.86809734603854 12.101122323082793 1.858815939971012 -1 0 0
1766 5 66.37441422211165 14.118337436824449 0.023756757940561375 -1 0 0
1947 1 68.12140313425554 15.126485443177792 1.858815939971012 -1 0 0
1772 5 69.86780264567766 14.11833743682445 0.023756757940561396 -1 0 0
1945 5 68.12110843389466 17.143700556919452 0.023756757940560952 -1 0 0
1780 1 73.36148576960454 12.101122323082793 1.8588159399710122 -1 0 0
1786 1 76.85487419317055 12.101122323082793 1.858815939971012 -1 0 0
1953 1 71.61479155782155 15.126485443177792 1.8588159399710122 -1 0 0
1778 5 73.36119106924366 14.118337436824449 0.02375675794056188 -1 0 0
1959 1 75.10817998138755 15.126485443177792 1.858815939971012 -1 0 0
1784 5 76.85457949280966 14.118337436824449 0.023756757940561785 -1 0 0
1951 5 71.61449685746067 17.143700556919452 0.023756757940561837 -1 0 0
1957 5 75.10788528102665 17.143700556919452 0.023756757940561472 -1 0 0
1792 1 80.34826261673655 12.101122323082793 1.858815939971012 -1 0 0
1965 1 78.60156840495354 15.12648544317779 1.8588159399710122 -1 0 0
1790 5 80.34796791637565 14.118337436824449 0.023756757940561896 -1 0 0
1971 1 82.09495682851954 15.126485443177792 1.858815939971012 -1 0 0
1963 5 78.60127370459266 17.143700556919452 0.023756757940561608 -1 0 0
1969 5 82.09466212815866 17.143700556919452 0.02375675794056092 -1 0 0
1798 1 83.84165104030255 12.101122323082793 1.8588159399710118 -1 0 0
1804 1 87.33503946386854 12.101122323082793 1.8588159399710118 -1 0 0
1796 5 83.84135633994165 14.118337436824447 0.023756757940561132 -1 0 0
1977 1 85.58834525208555 15.126485443177792 1.858815939971012 -1 0 0
1802 5 87.33474476350766 14.11833743682445 0.02375675794056146 -1 0 0
1983 1 89.08173367565155 15.126485443177792 1.8588159399710122 -1 0 0
1975 5 85.58805055172466 17.143700556919452 0.023756757940560952 -1 0 0
1981 5 89.08143897529067 17.143700556919452 0.023756757940561767 -1 0 0
1810 1 90.82842788743454 12.101122323082793 1.858815939971012 -1 0 0
1816 1 94.32181631100055 12.101122323082793 1.8588159399710118 -1 0 0
1808 5 90.82813318707366 14.118337436824447 0.023756757940561736 -1 0 0
1989 1 92.57512209921755 15.126485443177792 1.8588159399710118 -1 0 0
1814 5 94.32152161063966 14.118337436824449 0.023756757940561223 -1 0 0
1987 5 92.57482739885666 17.143700556919452 0.023756757940561275 -1 0 0
1822 1 97.81520473456655 12.101122323082793 1.8588159399710122 -1 0 0
1995 1 96.06851052278354 15.126485443177792 1.858815939971012 -1 0 0
1820 5 97.81491003420567 14.11833743682445 0.023756757940561958 -1 0 0
2001 1 99.56189894634954 15.12648544317779 1.8588159399710122 -1 0 0
1993 5 96.06821582242266 17.143700556919452 0.023756757940561216 -1 0 0
1999 5 99.56160424598866 17.143700556919452 0.02375675794056104 -1 0 0
2002 1 0.0003288747185400022 18.151848563272793 1.858815939971012 0 0 0
2008 1 3.49371729828454 18.151848563272793 1.858815939971012 0 0 0
2000 5 3.417435765338235e-05 20.16906367701445 0.023756757940562583 0 0 0
2181 1 1.7470230865015393 21.17721168336779 1.8588159399710125 0 0 0
2006 5 3.4934225979236517 20.16906367701445 0.02375675794056216 0 0 0
2187 1 5.240411510067541 21.17721168336779 1.8588159399710127 0 0 0
2014 1 6.987105721850541 18.151848563272793 1.8588159399710122 0 0 0
2020 1 10.48049414541654 18.151848563272793 1.858815939971012 0 0 0
2012 5 6.986811021489653 20.16906367701445 0.023756757940562256 0 0 0
2193 1 8.733799933633541 21.17721168336779 1.8588159399710127 0 0 0
2018 5 10.48019944505565 20.16906367701445 0.023756757940562836 0 0 0
2026 1 13.973882568982539 18.151848563272793 1.858815939971012 0 0 0
2032 1 17.46727099254854 18.151848563272793 1.858815939971012 0 0 0
2199 1 12.22718835719954 21.17721168336779 1.8588159399710127 0 0 0
2024 5 13.97358786862165 20.16906367701445 0.023756757940562218 0 0 0
2030 5 17.46697629218765 20.16906367701445 0.02375675794056196 0 0 0
2205 1 15.72057678076554 21.17721168336779 1.8588159399710127 0 0 0
2038 1 20.96065941611454 18.151848563272793 1.858815939971012 0 0 0
2211 1 19.21396520433154 21.17721168336779 1.8588159399710127 0 0 0
2036 5 20.960364715753652 20.16906367701445 0.023756757940562503 0 0 0
2217 1 22.70735362789754 21.17721168336779 1.8588159399710127 0 0 0
2044 1 24.45404783968054 18.151848563272793 1.8588159399710122 0 0 0
2050 1 27.94743626324654 18.151848563272793 1.8588159399710122 0 0 0
2042 5 24.453753139319655 20.16906367701445 0.023756757940562128 0 0 0
2223 1 26.20074205146354 21.17721168336779 1.8588159399710127 0 0 0
2048 5 27.94714156288566 20.16906367701445 0.023756757940562444 0 0 0
2229 1 29.694130475029542 21.177211683367794 1.8588159399710127 0 0 0
2056 1 31.44082468681254 18.151848563272793 1.8588159399710122 0 0 0
2062 1 34.93421311037854 18.151848563272793 1.858815939971012 0 0 0
2054 5 31.44052998645165 20.16906367701445 0.023756757940562645 0 0 0
2060 5 34.933918410017654 20.16906367701445 0.02375675794056217 0 0 0
2235 1 33.18751889859554 21.17721168336779 1.8588159399710127 0 0 0
2068 1 38.42760153394455 18.151848563272793 1.8588159399710122 0 0 0
2241 1 36.680907322161545 21.17721168336779 1.8588159399710127 0 0 0
2066 5 38.42730683358366 20.16906367701445 0.02375675794056268 0 0 0
2247 1 40.17429574572754 21.17721168336779 1.8588159399710127 0 0 0
2074 1 41.92098995751054 18.151848563272793 1.8588159399710122 0 0 0
2080 1 45.414378381076546 18.151848563272793 1.8588159399710122 0 0 0
2072 5 41.92069525714965 20.16906367701445 0.023756757940561937 0 0 0
2253 1 43.667684169293544 21.17721168336779 1.8588159399710127 0 0 0
2078 5 45.414083680715656 20.16906367701445 0.023756757940562673 0 0 0
2259 1 47.16107259285955 21.177211683367794 1.8588159399710127 0 0 0
2086 1 48.90776680464254 18.151848563272793 1.8588159399710122 0 0 0
1918 1 52.401155228208545 18.151848563272793 1.8588159399710122 -1 0 0
2084 5 48.90747210428165 20.16906367701445 0.02375675794056223 0 0 0
2091 1 50.65446101642554 21.17721168336779 1.8588159399710125 -1 0 0
1916 5 52.400860527847655 20.16906367701445 0.02375675794056186 -1 0 0
1924 1 55.89454365177455 18.151848563272793 1.8588159399710122 -1 0 0
1930 1 59.38793207534055 18.151848563272793 1.858815939971012 -1 0 0
2097 1 54.147849439991546 21.17721168336779 1.8588159399710127 -1 0 0
1922 5 55.89424895141366 20.16906367701445 0.023756757940562825 -1 0 0
2103 1 57.64123786355755 21.17721168336779 1.8588159399710127 -1 0 0
1928 5 59.38763737497966 20.16906367701445 0.02375675794056229 -1 0 0
1936 1 62.88132049890655 18.151848563272793 1.858815939971012 -1 0 0
2109 1 61.134626287123545 21.17721168336779 1.8588159399710127 -1 0 0
1934 5 62.88102579854566 20.16906367701445 0.023756757940563013 -1 0 0
2115 1 64.62801471068954 21.177211683367794 1.8588159399710125 -1 0 0
1942 1 66.37470892247255 18.151848563272793 1.8588159399710118 -1 0 0
1948 1 69.86809734603855 18.151848563272793 1.858815939971012 -1 0 0
1940 5 66.37441422211165 20.16906367701445 0.023756757940562062 -1 0 0
2121 1 68.12140313425554 21.177211683367794 1.8588159399710125 -1 0 0
1946 5 69.86780264567766 20.16906367701445 0.02375675794056225 -1 0 0
1954 1 73.36148576960454 18.151848563272793 1.8588159399710122 -1 0 0
1960 1 76.85487419317055 18.151848563272793 1.8588159399710118 -1 0 0
2127 1 71.61479155782155 21.177211683367794 1.8588159399710127 -1 0 0
1952 5 73.36119106924366 20.16906367701445 0.023756757940562718 -1 0 0
2133 1 75.10817998138755 21.17721168336779 1.8588159399710122 -1 0 0
1958 5 76.85457949280966 20.16906367701445 0.023756757940562416 -1 0 0
1966 1 80.34826261673655 18.151848563272793 1.858815939971012 -1 0 0
2139 1 78.60156840495354 21.17721168336779 1.8588159399710127 -1 0 0
1964 5 80.34796791637565 20.16906367701445 0.023756757940562603 -1 0 0
2145 1 82.09495682851954 21.17721168336779 1.8588159399710125 -1 0 0
1972 1 83.84165104030255 18.151848563272793 1.8588159399710118 -1 0 0
1978 1 87.33503946386855 18.151848563272793 1.858815939971012 -1 0 0
1970 5 83.84135633994165 20.16906367701445 0.0237567579405619 -1 0 0
2151 1 85.58834525208555 21.177211683367794 1.8588159399710125 -1 0 0
1976 5 87.33474476350766 20.16906367701445 0.02375675794056226 -1 0 0
2157 1 89.08173367565155 21.177211683367794 1.8588159399710127 -1 0 0
1984 1 90.82842788743454 18.151848563272793 1.8588159399710122 -1 0 0
1990 1 94.32181631100055 18.151848563272793 1.858815939971012 -1 0 0
1982 5 90.82813318707366 20.16906367701445 0.023756757940562496 -1 0 0
2163 1 92.57512209921755 21.17721168336779 1.8588159399710122 -1 0 0
1988 5 94.32152161063966 20.16906367701445 0.023756757940561975 -1 0 0
1996 1 97.81520473456655 18.151848563272793 1.8588159399710125 -1 0 0
2169 1 96.06851052278354 21.177211683367794 1.8588159399710125 -1 0 0
1994 5 97.81491003420567 20.16906367701445 0.023756757940562773 -1 0 0
2175 1 99.56189894634954 21.17721168336779 1.8588159399710127 -1 0 0
2179 5 1.7467283861406506 23.194426797109447 0.023756757940561663 0 0 0
2185 5 5.240116809706652 23.194426797109447 0.023756757940561223 0 0 0
2176 1 0.00032887471853993485 24.20257480346279 1.858815939971012 0 0 0
2182 1 3.49371729828454 24.20257480346279 1.858815939971012 0 0 0
2174 5 3.417435765325866e-05 26.21978991720445 0.023756757940561635 0 0 0
2355 1 1.7470230865015393 27.227937923557793 1.858815939971012 0 0 0
2180 5 3.4934225979236513 26.21978991720445 0.023756757940561278 0 0 0
2361 1 5.240411510067541 27.227937923557793 1.858815939971012 0 0 0
2191 5 8.733505233272654 23.194426797109447 0.023756757940561757 0 0 0
2188 1 6.987105721850541 24.20257480346279 1.858815939971012 0 0 0
2194 1 10.48049414541654 24.20257480346279 1.858815939971012 0 0 0
2186 5 6.986811021489653 26.21978991720445 0.023756757940561327 0 0 0
2367 1 8.733799933633541 27.227937923557793 1.858815939971012 0 0 0
2192 5 10.48019944505565 26.21978991720445 0.023756757940561726 0 0 0
2197 5 12.226893656838651 23.194426797109447 0.023756757940561632 0 0 0
2203 5 15.720282080404655 23.194426797109447 0.023756757940561306 0 0 0
2200 1 13.973882568982539 24.20257480346279 1.858815939971012 0 0 0
2206 1 17.46727099254854 24.20257480346279 1.8588159399710122 0 0 0
2373 1 12.22718835719954 27.227937923557793 1.858815939971012 0 0 0
2198 5 13.97358786862165 26.21978991720445 0.02375675794056125 0 0 0