LAMMPS data file via write_data, version 29 Aug 2024, timestep = 0, units = metal

2958 atoms
3 atom types

0 101.308264283414 xlo xhi
0 102.86234608323 ylo yhi
0 18.728973937645 zlo zhi

Masses

1 95.95
2 127.6
3 127.6

Atoms # atomic

1480 1 0 0 1.8609431243919996 0 0 0
1486 1 3.493388423565996 0 1.8609431243919996 0 0 0
1492 1 6.986776847131999 0 1.8609431243919996 0 0 0
1498 1 10.480165270697995 0 1.8609431243919996 0 0 0
1504 1 13.973553694263991 0 1.8609431243919996 0 0 0
1510 1 17.466942117829994 0 1.8609431243919996 0 0 0
1516 1 20.960330541395997 0 1.8609431243919996 0 0 0
1522 1 24.453718964962 0 1.8609431243919996 0 0 0
1528 1 27.947107388528003 0 1.8609431243919996 0 0 0
1534 1 31.440495812093992 0 1.8609431243919996 0 0 0
1540 1 34.933884235659995 0 1.8609431243919996 0 0 0
1546 1 38.427272659226 0 1.8609431243919996 0 0 0
1552 1 41.920661082792 0 1.8609431243919996 0 0 0
1558 1 45.414049506358005 0 1.8609431243919996 0 0 0
1564 1 48.907437929923994 0 1.8609431243919996 0 0 0
1396 1 52.400826353490004 0 1.8609431243919996 -1 0 0
1402 1 55.894214777056 0 1.8609431243919996 -1 0 0
1408 1 59.387603200622 0 1.8609431243919996 -1 0 0
1414 1 62.880991624188 0 1.8609431243919996 -1 0 0
1420 1 66.374380047754 0 1.8609431243919996 -1 0 0
1426 1 69.86776847132 0 1.8609431243919996 -1 0 0
1432 1 73.361156894886 0 1.8609431243919996 -1 0 0
1438 1 76.854545318452 0 1.8609431243919996 -1 0 0
1444 1 80.347933742018 0 1.8609431243919996 -1 0 0
1450 1 83.841322165584 0 1.8609431243919996 -1 0 0
1456 1 87.33471058915 0 1.8609431243919996 -1 0 0
1462 1 90.828099012716 0 1.8609431243919996 -1 0 0
1468 1 94.32148743628201 0 1.8609431243919996 -1 0 0
1474 1 97.814875859848 0 1.8609431243919996 -1 0 0
1478 3 0 2.016908746730003 0 0 0 0
1659 1 1.7466942117829944 3.025363120095001 1.8609431243919996 0 0 0
1484 3 3.493388423565996 2.016908746730003 0 0 0 0
1665 1 5.2400826353489975 3.025363120095001 1.8609431243919996 0 0 0
1490 3 6.986776847131999 2.016908746730003 0 0 0 0
1671 1 8.733471058915 3.025363120095001 1.8609431243919996 0 0 0
1496 3 10.480165270697995 2.016908746730003 0 0 0 0
1677 1 12.226859482480997 3.025363120095001 1.8609431243919996 0 0 0
1502 3 13.973553694263991 2.016908746730003 0 0 0 0
1508 3 17.466942117829994 2.016908746730003 0 0 0 0
1683 1 15.720247906047 3.025363120095001 1.8609431243919996 0 0 0
1689 1 19.213636329613003 3.025363120095001 1.8609431243919996 0 0 0
1514 3 20.960330541395997 2.016908746730003 0 0 0 0
1695 1 22.70702475317899 3.025363120095001 1.8609431243919996 0 0 0
1520 3 24.453718964962 2.016908746730003 0 0 0 0
1701 1 26.200413176744995 3.025363120095001 1.8609431243919996 0 0 0
1526 3 27.947107388528003 2.016908746730003 0 0 0 0
1707 1 29.693801600310998 3.025363120095001 1.8609431243919996 0 0 0
1532 3 31.440495812093992 2.016908746730003 0 0 0 0
1538 3 34.933884235659995 2.016908746730003 0 0 0 0
1713 1 33.187190023877 3.025363120095001 1.8609431243919996 0 0 0
1719 1 36.680578447443004 3.025363120095001 1.8609431243919996 0 0 0
1544 3 38.427272659226 2.016908746730003 0 0 0 0
1725 1 40.17396687100899 3.025363120095001 1.8609431243919996 0 0 0
1550 3 41.920661082792 2.016908746730003 0 0 0 0
1731 1 43.667355294574996 3.025363120095001 1.8609431243919996 0 0 0
1556 3 45.414049506358005 2.016908746730003 0 0 0 0
1737 1 47.160743718141 3.025363120095001 1.8609431243919996 0 0 0
1562 3 48.907437929923994 2.016908746730003 0 0 0 0
1569 1 50.654132141707 3.025363120095001 1.8609431243919996 -1 0 0
1394 3 52.400826353490004 2.016908746730003 0 -1 0 0
1575 1 54.147520565273005 3.025363120095001 1.8609431243919996 -1 0 0
1400 3 55.894214777056 2.016908746730003 0 -1 0 0
1581 1 57.640908988839 3.025363120095001 1.8609431243919996 -1 0 0
1406 3 59.387603200622 2.016908746730003 0 -1 0 0
1587 1 61.134297412405004 3.025363120095001 1.8609431243919996 -1 0 0
1412 3 62.880991624188 2.016908746730003 0 -1 0 0
1593 1 64.627685835971 3.025363120095001 1.8609431243919996 -1 0 0
1418 3 66.374380047754 2.016908746730003 0 -1 0 0
1599 1 68.12107425953701 3.025363120095001 1.8609431243919996 -1 0 0
1424 3 69.86776847132 2.016908746730003 0 -1 0 0
1605 1 71.614462683103 3.025363120095001 1.8609431243919996 -1 0 0
1430 3 73.361156894886 2.016908746730003 0 -1 0 0
1611 1 75.107851106669 3.025363120095001 1.8609431243919996 -1 0 0
1436 3 76.854545318452 2.016908746730003 0 -1 0 0
1617 1 78.601239530235 3.025363120095001 1.8609431243919996 -1 0 0
1442 3 80.347933742018 2.016908746730003 0 -1 0 0
1623 1 82.094627953801 3.025363120095001 1.8609431243919996 -1 0 0
1448 3 83.841322165584 2.016908746730003 0 -1 0 0
1629 1 85.58801637736701 3.025363120095001 1.8609431243919996 -1 0 0
1454 3 87.33471058915 2.016908746730003 0 -1 0 0
1635 1 89.081404800933 3.025363120095001 1.8609431243919996 -1 0 0
1460 3 90.828099012716 2.016908746730003 0 -1 0 0
1641 1 92.574793224499 3.025363120095001 1.8609431243919996 -1 0 0
1466 3 94.32148743628201 2.016908746730003 0 -1 0 0
1647 1 96.068181648065 3.025363120095001 1.8609431243919996 -1 0 0
1472 3 97.814875859848 2.016908746730003 0 -1 0 0
1653 1 99.561570071631 3.025363120095001 1.8609431243919996 -1 0 0
1657 3 1.7466942117829944 5.042271866825004 0 0 0 0
1663 3 5.2400826353489975 5.042271866825004 0 0 0 0
1669 3 8.733471058915 5.042271866825004 0 0 0 0
1675 3 12.226859482480997 5.042271866825004 0 0 0 0
1681 3 15.720247906047 5.042271866825004 0 0 0 0
1687 3 19.213636329613003 5.042271866825004 0 0 0 0
1693 3 22.70702475317899 5.042271866825004 0 0 0 0
1699 3 26.200413176744995 5.042271866825004 0 0 0 0
1705 3 29.693801600310998 5.042271866825004 0 0 0 0
1711 3 33.187190023877 5.042271866825004 0 0 0 0
1717 3 36.680578447443004 5.042271866825004 0 0 0 0
1723 3 40.17396687100899 5.042271866825004 0 0 0 0
1729 3 43.667355294574996 5.042271866825004 0 0 0 0
1735 3 47.160743718141 5.042271866825004 0 0 0 0
1567 3 50.654132141707 5.042271866825004 0 -1 0 0
1573 3 54.147520565273005 5.042271866825004 0 -1 0 0
1579 3 57.640908988839 5.042271866825004 0 -1 0 0
1585 3 61.134297412405004 5.042271866825004 0 -1 0 0
1591 3 64.627685835971 5.042271866825004 0 -1 0 0
1597 3 68.12107425953701 5.042271866825004 0 -1 0 0
1603 3 71.614462683103 5.042271866825004 0 -1 0 0
1609 3 75.107851106669 5.042271866825004 0 -1 0 0
1615 3 78.601239530235 5.042271866825004 0 -1 0 0
1621 3 82.094627953801 5.042271866825004 0 -1 0 0
1627 3 85.58801637736701 5.042271866825004 0 -1 0 0
1633 3 89.081404800933 5.042271866825004 0 -1 0 0
1639 3 92.574793224499 5.042271866825004 0 -1 0 0
1645 3 96.068181648065 5.042271866825004 0 -1 0 0
1651 3 99.561570071631 5.042271866825004 0 -1 0 0
1654 1 0 6.050726240190002 1.8609431243919996 0 0 0
1660 1 3.493388423565996 6.050726240190002 1.8609431243919996 0 0 0
1666 1 6.986776847131999 6.050726240190002 1.8609431243919996 0 0 0
1672 1 10.480165270697995 6.050726240190002 1.8609431243919996 0 0 0
1678 1 13.973553694263991 6.050726240190002 1.8609431243919996 0 0 0
1684 1 17.466942117829994 6.050726240190002 1.8609431243919996 0 0 0
1690 1 20.960330541395997 6.050726240190002 1.8609431243919996 0 0 0
1696 1 24.453718964962 6.050726240190002 1.8609431243919996 0 0 0
1702 1 27.947107388528003 6.050726240190002 1.8609431243919996 0 0 0
1708 1 31.440495812093992 6.050726240190002 1.8609431243919996 0 0 0
1714 1 34.933884235659995 6.050726240190002 1.8609431243919996 0 0 0
1720 1 38.427272659226 6.050726240190002 1.8609431243919996 0 0 0
1726 1 41.920661082792 6.050726240190002 1.8609431243919996 0 0 0
1732 1 45.414049506358005 6.050726240190002 1.8609431243919996 0 0 0
1738 1 48.907437929923994 6.050726240190002 1.8609431243919996 0 0 0
1570 1 52.400826353490004 6.050726240190002 1.8609431243919996 -1 0 0
1576 1 55.894214777056 6.050726240190002 1.8609431243919996 -1 0 0
1582 1 59.387603200622 6.050726240190002 1.8609431243919996 -1 0 0
1588 1 62.880991624188 6.050726240190002 1.8609431243919996 -1 0 0
1594 1 66.374380047754 6.050726240190002 1.8609431243919996 -1 0 0
1600 1 69.86776847132 6.050726240190002 1.8609431243919996 -1 0 0
1606 1 73.361156894886 6.050726240190002 1.8609431243919996 -1 0 0
1612 1 76.854545318452 6.050726240190002 1.8609431243919996 -1 0 0
1618 1 80.347933742018 6.050726240190002 1.8609431243919996 -1 0 0
1624 1 83.841322165584 6.050726240190002 1.8609431243919996 -1 0 0
1630 1 87.33471058915 6.050726240190002 1.8609431243919996 -1 0 0
1636 1 90.828099012716 6.050726240190002 1.8609431243919996 -1 0 0
1642 1 94.32148743628201 6.050726240190002 1.8609431243919996 -1 0 0
1648 1 97.814875859848 6.050726240190002 1.8609431243919996 -1 0 0
1652 3 0 8.067634986920005 0 0 0 0
1833 1 1.7466942117829944 9.076089360285003 1.8609431243919996 0 0 0
1658 3 3.493388423565996 8.067634986920005 0 0 0 0
1839 1 5.2400826353489975 9.076089360285003 1.8609431243919996 0 0 0
1664 3 6.986776847131999 8.067634986920005 0 0 0 0
1845 1 8.733471058915 9.076089360285003 1.8609431243919996 0 0 0
1670 3 10.480165270697995 8.067634986920005 0 0 0 0
1851 1 12.226859482480997 9.076089360285003 1.8609431243919996 0 0 0
1676 3 13.973553694263991 8.067634986920005 0 0 0 0
1682 3 17.466942117829994 8.067634986920005 0 0 0 0
1857 1 15.720247906047 9.076089360285003 1.8609431243919996 0 0 0
1863 1 19.213636329613003 9.076089360285003 1.8609431243919996 0 0 0
1688 3 20.960330541395997 8.067634986920005 0 0 0 0
1869 1 22.70702475317899 9.076089360285003 1.8609431243919996 0 0 0
1694 3 24.453718964962 8.067634986920005 0 0 0 0
1875 1 26.200413176744995 9.076089360285003 1.8609431243919996 0 0 0
1700 3 27.947107388528003 8.067634986920005 0 0 0 0
1881 1 29.693801600310998 9.076089360285003 1.8609431243919996 0 0 0
1706 3 31.440495812093992 8.067634986920005 0 0 0 0
1712 3 34.933884235659995 8.067634986920005 0 0 0 0
1887 1 33.187190023877 9.076089360285003 1.8609431243919996 0 0 0
1893 1 36.680578447443004 9.076089360285003 1.8609431243919996 0 0 0
1718 3 38.427272659226 8.067634986920005 0 0 0 0
1899 1 40.17396687100899 9.076089360285003 1.8609431243919996 0 0 0
1724 3 41.920661082792 8.067634986920005 0 0 0 0
1905 1 43.667355294574996 9.076089360285003 1.8609431243919996 0 0 0
1730 3 45.414049506358005 8.067634986920005 0 0 0 0
1911 1 47.160743718141 9.076089360285003 1.8609431243919996 0 0 0
1736 3 48.907437929923994 8.067634986920005 0 0 0 0
1743 1 50.654132141707 9.076089360285003 1.8609431243919996 -1 0 0
1568 3 52.400826353490004 8.067634986920005 0 -1 0 0
1749 1 54.147520565273005 9.076089360285003 1.8609431243919996 -1 0 0
1574 3 55.894214777056 8.067634986920005 0 -1 0 0
1755 1 57.640908988839 9.076089360285003 1.8609431243919996 -1 0 0
1580 3 59.387603200622 8.067634986920005 0 -1 0 0
1761 1 61.134297412405004 9.076089360285003 1.8609431243919996 -1 0 0
1586 3 62.880991624188 8.067634986920005 0 -1 0 0
1767 1 64.627685835971 9.076089360285003 1.8609431243919996 -1 0 0
1592 3 66.374380047754 8.067634986920005 0 -1 0 0
1773 1 68.12107425953701 9.076089360285003 1.8609431243919996 -1 0 0
1598 3 69.86776847132 8.067634986920005 0 -1 0 0
1779 1 71.614462683103 9.076089360285003 1.8609431243919996 -1 0 0
1604 3 73.361156894886 8.067634986920005 0 -1 0 0
1785 1 75.107851106669 9.076089360285003 1.8609431243919996 -1 0 0
1610 3 76.854545318452 8.067634986920005 0 -1 0 0
1791 1 78.601239530235 9.076089360285003 1.8609431243919996 -1 0 0
1616 3 80.347933742018 8.067634986920005 0 -1 0 0
1797 1 82.094627953801 9.076089360285003 1.8609431243919996 -1 0 0
1622 3 83.841322165584 8.067634986920005 0 -1 0 0
1803 1 85.58801637736701 9.076089360285003 1.8609431243919996 -1 0 0
1628 3 87.33471058915 8.067634986920005 0 -1 0 0
1809 1 89.081404800933 9.076089360285003 1.8609431243919996 -1 0 0
1634 3 90.828099012716 8.067634986920005 0 -1 0 0
1815 1 92.574793224499 9.076089360285003 1.8609431243919996 -1 0 0
1640 3 94.32148743628201 8.067634986920005 0 -1 0 0
1821 1 96.068181648065 9.076089360285003 1.8609431243919996 -1 0 0
1646 3 97.814875859848 8.067634986920005 0 -1 0 0
1827 1 99.561570071631 9.076089360285003 1.8609431243919996 -1 0 0
1831 3 1.7466942117829944 11.092998107015006 0 0 0 0
1837 3 5.2400826353489975 11.092998107015006 0 0 0 0
1843 3 8.733471058915 11.092998107015006 0 0 0 0
1849 3 12.226859482480997 11.092998107015006 0 0 0 0
1855 3 15.720247906047 11.092998107015006 0 0 0 0
1861 3 19.213636329613003 11.092998107015006 0 0 0 0
1867 3 22.70702475317899 11.092998107015006 0 0 0 0
1873 3 26.200413176744995 11.092998107015006 0 0 0 0
1879 3 29.693801600310998 11.092998107015006 0 0 0 0
1885 3 33.187190023877 11.092998107015006 0 0 0 0
1891 3 36.680578447443004 11.092998107015006 0 0 0 0
1897 3 40.17396687100899 11.092998107015006 0 0 0 0
1903 3 43.667355294574996 11.092998107015006 0 0 0 0
1909 3 47.160743718141 11.092998107015006 0 0 0 0
1741 3 50.654132141707 11.092998107015006 0 -1 0 0
1747 3 54.147520565273005 11.092998107015006 0 -1 0 0
1753 3 57.640908988839 11.092998107015006 0 -1 0 0
1759 3 61.134297412405004 11.092998107015006 0 -1 0 0
1765 3 64.627685835971 11.092998107015006 0 -1 0 0
1771 3 68.12107425953701 11.092998107015006 0 -1 0 0
1777 3 71.614462683103 11.092998107015006 0 -1 0 0
1783 3 75.107851106669 11.092998107015006 0 -1 0 0
1789 3 78.601239530235 11.092998107015006 0 -1 0 0
1795 3 82.094627953801 11.092998107015006 0 -1 0 0
1801 3 85.58801637736701 11.092998107015006 0 -1 0 0
1807 3 89.081404800933 11.092998107015006 0 -1 0 0
1813 3 92.574793224499 11.092998107015006 0 -1 0 0
1819 3 96.068181648065 11.092998107015006 0 -1 0 0
1825 3 99.561570071631 11.092998107015006 0 -1 0 0
1828 1 0 12.101452480380004 1.8609431243919996 0 0 0
1834 1 3.493388423565996 12.101452480380004 1.8609431243919996 0 0 0
1840 1 6.986776847131999 12.101452480380004 1.8609431243919996 0 0 0
1846 1 10.480165270697995 12.101452480380004 1.8609431243919996 0 0 0
1852 1 13.973553694263991 12.101452480380004 1.8609431243919996 0 0 0
1858 1 17.466942117829994 12.101452480380004 1.8609431243919996 0 0 0
1864 1 20.960330541395997 12.101452480380004 1.8609431243919996 0 0 0
1870 1 24.453718964962 12.101452480380004 1.8609431243919996 0 0 0
1876 1 27.947107388528003 12.101452480380004 1.8609431243919996 0 0 0
1882 1 31.440495812093992 12.101452480380004 1.8609431243919996 0 0 0
1888 1 34.933884235659995 12.101452480380004 1.8609431243919996 0 0 0
1894 1 38.427272659226 12.101452480380004 1.8609431243919996 0 0 0
1900 1 41.920661082792 12.101452480380004 1.8609431243919996 0 0 0
1906 1 45.414049506358005 12.101452480380004 1.8609431243919996 0 0 0
1912 1 48.907437929923994 12.101452480380004 1.8609431243919996 0 0 0
1744 1 52.400826353490004 12.101452480380004 1.8609431243919996 -1 0 0
1750 1 55.894214777056 12.101452480380004 1.8609431243919996 -1 0 0
1756 1 59.387603200622 12.101452480380004 1.8609431243919996 -1 0 0
1762 1 62.880991624188 12.101452480380004 1.8609431243919996 -1 0 0
1768 1 66.374380047754 12.101452480380004 1.8609431243919996 -1 0 0
1774 1 69.86776847132 12.101452480380004 1.8609431243919996 -1 0 0
1780 1 73.361156894886 12.101452480380004 1.8609431243919996 -1 0 0
1786 1 76.854545318452 12.101452480380004 1.8609431243919996 -1 0 0
1792 1 80.347933742018 12.101452480380004 1.8609431243919996 -1 0 0
1798 1 83.841322165584 12.101452480380004 1.8609431243919996 -1 0 0
1804 1 87.33471058915 12.101452480380004 1.8609431243919996 -1 0 0
1810 1 90.828099012716 12.101452480380004 1.8609431243919996 -1 0 0
1816 1 94.32148743628201 12.101452480380004 1.8609431243919996 -1 0 0
1822 1 97.814875859848 12.101452480380004 1.8609431243919996 -1 0 0
1826 3 0 14.11836122711 0 0 0 0
2007 1 1.7466942117829944 15.126815600474998 1.8609431243919996 0 0 0
1832 3 3.493388423565996 14.11836122711 0 0 0 0
2013 1 5.2400826353489975 15.126815600474998 1.8609431243919996 0 0 0
1838 3 6.986776847131999 14.11836122711 0 0 0 0
2019 1 8.733471058915 15.126815600474998 1.8609431243919996 0 0 0
1844 3 10.480165270697995 14.11836122711 0 0 0 0
2025 1 12.226859482480997 15.126815600474998 1.8609431243919996 0 0 0
1850 3 13.973553694263991 14.11836122711 0 0 0 0
1856 3 17.466942117829994 14.11836122711 0 0 0 0
2031 1 15.720247906047 15.126815600474998 1.8609431243919996 0 0 0
2037 1 19.213636329613003 15.126815600474998 1.8609431243919996 0 0 0
1862 3 20.960330541395997 14.11836122711 0 0 0 0
2043 1 22.70702475317899 15.126815600474998 1.8609431243919996 0 0 0
1868 3 24.453718964962 14.11836122711 0 0 0 0
2049 1 26.200413176744995 15.126815600474998 1.8609431243919996 0 0 0
1874 3 27.947107388528003 14.11836122711 0 0 0 0
2055 1 29.693801600310998 15.126815600474998 1.8609431243919996 0 0 0
1880 3 31.440495812093992 14.11836122711 0 0 0 0
1886 3 34.933884235659995 14.11836122711 0 0 0 0
2061 1 33.187190023877 15.126815600474998 1.8609431243919996 0 0 0
2067 1 36.680578447443004 15.126815600474998 1.8609431243919996 0 0 0
1892 3 38.427272659226 14.11836122711 0 0 0 0
2073 1 40.17396687100899 15.126815600474998 1.8609431243919996 0 0 0
1898 3 41.920661082792 14.11836122711 0 0 0 0
2079 1 43.667355294574996 15.126815600474998 1.8609431243919996 0 0 0
1904 3 45.414049506358005 14.11836122711 0 0 0 0
2085 1 47.160743718141 15.126815600474998 1.8609431243919996 0 0 0
1910 3 48.907437929923994 14.11836122711 0 0 0 0
1917 1 50.654132141707 15.126815600474998 1.8609431243919996 -1 0 0
1742 3 52.400826353490004 14.11836122711 0 -1 0 0
1923 1 54.147520565273005 15.126815600474998 1.8609431243919996 -1 0 0
1748 3 55.894214777056 14.11836122711 0 -1 0 0
1929 1 57.640908988839 15.126815600474998 1.8609431243919996 -1 0 0
1754 3 59.387603200622 14.11836122711 0 -1 0 0
1935 1 61.134297412405004 15.126815600474998 1.8609431243919996 -1 0 0
1760 3 62.880991624188 14.11836122711 0 -1 0 0
1941 1 64.627685835971 15.126815600474998 1.8609431243919996 -1 0 0
1766 3 66.374380047754 14.11836122711 0 -1 0 0
1947 1 68.12107425953701 15.126815600474998 1.8609431243919996 -1 0 0
1772 3 69.86776847132 14.11836122711 0 -1 0 0
1953 1 71.614462683103 15.126815600474998 1.8609431243919996 -1 0 0
1778 3 73.361156894886 14.11836122711 0 -1 0 0
1959 1 75.107851106669 15.126815600474998 1.8609431243919996 -1 0 0
1784 3 76.854545318452 14.11836122711 0 -1 0 0
1965 1 78.601239530235 15.126815600474998 1.8609431243919996 -1 0 0
1790 3 80.347933742018 14.11836122711 0 -1 0 0
1971 1 82.094627953801 15.126815600474998 1.8609431243919996 -1 0 0
1796 3 83.841322165584 14.11836122711 0 -1 0 0
1977 1 85.58801637736701 15.126815600474998 1.8609431243919996 -1 0 0
1802 3 87.33471058915 14.11836122711 0 -1 0 0
1983 1 89.081404800933 15.126815600474998 1.8609431243919996 -1 0 0
1808 3 90.828099012716 14.11836122711 0 -1 0 0
1989 1 92.574793224499 15.126815600474998 1.8609431243919996 -1 0 0
1814 3 94.32148743628201 14.11836122711 0 -1 0 0
1995 1 96.068181648065 15.126815600474998 1.8609431243919996 -1 0 0
1820 3 97.814875859848 14.11836122711 0 -1 0 0
2001 1 99.561570071631 15.126815600474998 1.8609431243919996 -1 0 0
2005 3 1.7466942117829944 17.14372434720501 0 0 0 0
2011 3 5.2400826353489975 17.14372434720501 0 0 0 0
2017 3 8.733471058915 17.14372434720501 0 0 0 0
2023 3 12.226859482480997 17.14372434720501 0 0 0 0
2029 3 15.720247906047 17.14372434720501 0 0 0 0
2035 3 19.213636329613003 17.14372434720501 0 0 0 0
2041 3 22.70702475317899 17.14372434720501 0 0 0 0
2047 3 26.200413176744995 17.14372434720501 0 0 0 0
2053 3 29.693801600310998 17.14372434720501 0 0 0 0
2059 3 33.187190023877 17.14372434720501 0 0 0 0
2065 3 36.680578447443004 17.14372434720501 0 0 0 0
2071 3 40.17396687100899 17.14372434720501 0 0 0 0
2077 3 43.667355294574996 17.14372434720501 0 0 0 0
2083 3 47.160743718141 17.14372434720501 0 0 0 0
1915 3 50.654132141707 17.14372434720501 0 -1 0 0
1921 3 54.147520565273005 17.14372434720501 0 -1 0 0
1927 3 57.640908988839 17.14372434720501 0 -1 0 0
1933 3 61.134297412405004 17.14372434720501 0 -1 0 0
1939 3 64.627685835971 17.14372434720501 0 -1 0 0
1945 3 68.12107425953701 17.14372434720501 0 -1 0 0
1951 3 71.614462683103 17.14372434720501 0 -1 0 0
1957 3 75.107851106669 17.14372434720501 0 -1 0 0
1963 3 78.601239530235 17.14372434720501 0 -1 0 0
1969 3 82.094627953801 17.14372434720501 0 -1 0 0
1975 3 85.58801637736701 17.14372434720501 0 -1 0 0
1981 3 89.081404800933 17.14372434720501 0 -1 0 0
1987 3 92.574793224499 17.14372434720501 0 -1 0 0
1993 3 96.068181648065 17.14372434720501 0 -1 0 0
1999 3 99.561570071631 17.14372434720501 0 -1 0 0
2002 1 0 18.152178720570006 1.8609431243919996 0 0 0
2008 1 3.493388423565996 18.152178720570006 1.8609431243919996 0 0 0
2014 1 6.986776847131999 18.152178720570006 1.8609431243919996 0 0 0
2020 1 10.480165270697995 18.152178720570006 1.8609431243919996 0 0 0
2026 1 13.973553694263991 18.152178720570006 1.8609431243919996 0 0 0
2032 1 17.466942117829994 18.152178720570006 1.8609431243919996 0 0 0
2038 1 20.960330541395997 18.152178720570006 1.8609431243919996 0 0 0
2044 1 24.453718964962 18.152178720570006 1.8609431243919996 0 0 0
2050 1 27.947107388528003 18.152178720570006 1.8609431243919996 0 0 0
2056 1 31.440495812093992 18.152178720570006 1.8609431243919996 0 0 0
2062 1 34.933884235659995 18.152178720570006 1.8609431243919996 0 0 0
2068 1 38.427272659226 18.152178720570006 1.8609431243919996 0 0 0
2074 1 41.920661082792 18.152178720570006 1.8609431243919996 0 0 0
2080 1 45.414049506358005 18.152178720570006 1.8609431243919996 0 0 0
2086 1 48.907437929923994 18.152178720570006 1.8609431243919996 0 0 0
1918 1 52.400826353490004 18.152178720570006 1.8609431243919996 -1 0 0
1924 1 55.894214777056 18.152178720570006 1.8609431243919996 -1 0 0
1930 1 59.387603200622 18.152178720570006 1.8609431243919996 -1 0 0
1936 1 62.880991624188 18.152178720570006 1.8609431243919996 -1 0 0
1942 1 66.374380047754 18.152178720570006 1.8609431243919996 -1 0 0
1948 1 69.86776847132 18.152178720570006 1.8609431243919996 -1 0 0
1954 1 73.361156894886 18.152178720570006 1.8609431243919996 -1 0 0
1960 1 76.854545318452 18.152178720570006 1.8609431243919996 -1 0 0
1966 1 80.347933742018 18.152178720570006 1.8609431243919996 -1 0 0
1972 1 83.841322165584 18.152178720570006 1.8609431243919996 -1 0 0
1978 1 87.33471058915 18.152178720570006 1.8609431243919996 -1 0 0
1984 1 90.828099012716 18.152178720570006 1.8609431243919996 -1 0 0
1990 1 94.32148743628201 18.152178720570006 1.8609431243919996 -1 0 0
1996 1 97.814875859848 18.152178720570006 1.8609431243919996 -1 0 0
2000 3 0 20.169087467300002 0 0 0 0
2181 1 1.7466942117829944 21.177541840665 1.8609431243919996 0 0 0
2006 3 3.493388423565996 20.169087467300002 0 0 0 0
2187 1 5.2400826353489975 21.177541840665 1.8609431243919996 0 0 0
2012 3 6.986776847131999 20.169087467300002 0 0 0 0
2193 1 8.733471058915 21.177541840665 1.8609431243919996 0 0 0
2018 3 10.480165270697995 20.169087467300002 0 0 0 0
2199 1 12.226859482480997 21.177541840665 1.8609431243919996 0 0 0
2024 3 13.973553694263991 20.169087467300002 0 0 0 0
2030 3 17.466942117829994 20.169087467300002 0 0 0 0
2205 1 15.720247906047 21.177541840665 1.8609431243919996 0 0 0
2211 1 19.213636329613003 21.177541840665 1.8609431243919996 0 0 0
2036 3 20.960330541395997 20.169087467300002 0 0 0 0
2217 1 22.70702475317899 21.177541840665 1.8609431243919996 0 0 0
2042 3 24.453718964962 20.169087467300002 0 0 0 0
2223 1 26.200413176744995 21.177541840665 1.8609431243919996 0 0 0
2048 3 27.947107388528003 20.169087467300002 0 0 0 0
2229 1 29.693801600310998 21.177541840665 1.8609431243919996 0 0 0
2054 3 31.440495812093992 20.169087467300002 0 0 0 0
2060 3 34.933884235659995 20.169087467300002 0 0 0 0
2235 1 33.187190023877 21.177541840665 1.8609431243919996 0 0 0
2241 1 36.680578447443004 21.177541840665 1.8609431243919996 0 0 0
2066 3 38.427272659226 20.169087467300002 0 0 0 0
2247 1 40.17396687100899 21.177541840665 1.8609431243919996 0 0 0
2072 3 41.920661082792 20.169087467300002 0 0 0 0
2253 1 43.667355294574996 21.177541840665 1.8609431243919996 0 0 0
2078 3 45.414049506358005 20.169087467300002 0 0 0 0
2259 1 47.160743718141 21.177541840665 1.8609431243919996 0 0 0
2084 3 48.907437929923994 20.169087467300002 0 0 0 0
2091 1 50.654132141707 21.177541840665 1.8609431243919996 -1 0 0
1916 3 52.400826353490004 20.169087467300002 0 -1 0 0
2097 1 54.147520565273005 21.177541840665 1.8609431243919996 -1 0 0
1922 3 55.894214777056 20.169087467300002 0 -1 0 0
2103 1 57.640908988839 21.177541840665 1.8609431243919996 -1 0 0
1928 3 59.387603200622 20.169087467300002 0 -1 0 0
2109 1 61.134297412405004 21.177541840665 1.8609431243919996 -1 0 0
1934 3 62.880991624188 20.169087467300002 0 -1 0 0
2115 1 64.627685835971 21.177541840665 1.8609431243919996 -1 0 0
1940 3 66.374380047754 20.169087467300002 0 -1 0 0
2121 1 68.12107425953701 21.177541840665 1.8609431243919996 -1 0 0
1946 3 69.86776847132 20.169087467300002 0 -1 0 0
2127 1 71.614462683103 21.177541840665 1.8609431243919996 -1 0 0
1952 3 73.361156894886 20.169087467300002 0 -1 0 0
2133 1 75.107851106669 21.177541840665 1.8609431243919996 -1 0 0
1958 3 76.854545318452 20.169087467300002 0 -1 0 0
2139 1 78.601239530235 21.177541840665 1.8609431243919996 -1 0 0
1964 3 80.347933742018 20.169087467300002 0 -1 0 0
2145 1 82.094627953801 21.177541840665 1.8609431243919996 -1 0 0
1970 3 83.841322165584 20.169087467300002 0 -1 0 0
2151 1 85.58801637736701 21.177541840665 1.8609431243919996 -1 0 0
1976 3 87.33471058915 20.169087467300002 0 -1 0 0
2157 1 89.081404800933 21.177541840665 1.8609431243919996 -1 0 0
1982 3 90.828099012716 20.169087467300002 0 -1 0 0
2163 1 92.574793224499 21.177541840665 1.8609431243919996 -1 0 0
1988 3 94.32148743628201 20.169087467300002 0 -1 0 0
2169 1 96.068181648065 21.177541840665 1.8609431243919996 -1 0 0
1994 3 97.814875859848 20.169087467300002 0 -1 0 0
2175 1 99.561570071631 21.177541840665 1.8609431243919996 -1 0 0
2179 3 1.7466942117829944 23.194450587394996 0 0 0 0
2185 3 5.2400826353489975 23.194450587394996 0 0 0 0
2191 3 8.733471058915 23.194450587394996 0 0 0 0
2197 3 12.226859482480997 23.194450587394996 0 0 0 0
2203 3 15.720247906047 23.194450587394996 0 0 0 0
2209 3 19.213636329613003 23.194450587394996 0 0 0 0
2215 3 22.70702475317899 23.194450587394996 0 0 0 0
2221 3 26.200413176744995 23.194450587394996 0 0 0 0
2227 3 29.693801600310998 23.194450587394996 0 0 0 0
2233 3 33.187190023877 23.194450587394996 0 0 0 0
2239 3 36.680578447443004 23.194450587394996 0 0 0 0
2245 3 40.17396687100899 23.194450587394996 0 0 0 0
2251 3 43.667355294574996 23.194450587394996 0 0 0 0
2257 3 47.160743718141 23.194450587394996 0 0 0 0
2089 3 50.654132141707 23.194450587394996 0 -1 0 0
2095 3 54.147520565273005 23.194450587394996 0 -1 0 0
2101 3 57.640908988839 23.194450587394996 0 -1 0 0
2107 3 61.134297412405004 23.194450587394996 0 -1 0 0
2113 3 64.627685835971 23.194450587394996 0 -1 0 0
2119 3 68.12107425953701 23.194450587394996 0 -1 0 0
2125 3 71.614462683103 23.194450587394996 0 -1 0 0
2131 3 75.107851106669 23.194450587394996 0 -1 0 0
2137 3 78.601239530235 23.194450587394996 0 -1 0 0
2143 3 82.094627953801 23.194450587394996 0 -1 0 0
2149 3 85.58801637736701 23.194450587394996 0 -1 0 0
2155 3 89.081404800933 23.194450587394996 0 -1 0 0
2161 3 92.574793224499 23.194450587394996 0 -1 0 0
2167 3 96.068181648065 23.194450587394996 0 -1 0 0
2173 3 99.561570071631 23.194450587394996 0 -1 0 0
2176 1 0 24.20290496076001 1.8609431243919996 0 0 0
2182 1 3.493388423565996 24.20290496076001 1.8609431243919996 0 0 0
2188 1 6.986776847131999 24.20290496076001 1.8609431243919996 0 0 0
2194 1 10.480165270697995 24.20290496076001 1.8609431243919996 0 0 0
2200 1 13.973553694263991 24.20290496076001 1.8609431243919996 0 0 0
2206 1 17.466942117829994 24.20290496076001 1.8609431243919996 0 0 0
2212 1 20.960330541395997 24.20290496076001 1.8609431243919996 0 0 0
2218 1 24.453718964962 24.20290496076001 1.8609431243919996 0 0 0
2224 1 27.947107388528003 24.20290496076001 1.8609431243919996 0 0 0
2230 1 31.440495812093992 24.20290496076001 1.8609431243919996 0 0 0
2236 1 34.933884235659995 24.20290496076001 1.8609431243919996 0 0 0
2242 1 38.427272659226 24.20290496076001 1.8609431243919996 0 0 0
2248 1 41.920661082792 24.20290496076001 1.8609431243919996 0 0 0
2254 1 45.414049506358005 24.20290496076001 1.8609431243919996 0 0 0
2260 1 48.907437929923994 24.20290496076001 1.8609431243919996 0 0 0
2092 1 52.400826353490004 24.20290496076001 1.8609431243919996 -1 0 0
2098 1 55.894214777056 24.20290496076001 1.8609431243919996 -1 0 0
2104 1 59.387603200622 24.20290496076001 1.8609431243919996 -1 0 0
2110 1 62.880991624188 24.20290496076001 1.8609431243919996 -1 0 0
2116 1 66.374380047754 24.20290496076001 1.8609431243919996 -1 0 0
2122 1 69.86776847132 24.20290496076001 1.8609431243919996 -1 0 0
2128 1 73.361156894886 24.20290496076001 1.8609431243919996 -1 0 0
2134 1 76.854545318452 24.20290496076001 1.8609431243919996 -1 0 0
2140 1 80.347933742018 24.20290496076001 1.8609431243919996 -1 0 0
2146 1 83.841322165584 24.20290496076001 1.8609431243919996 -1 0 0
2152 1 87.33471058915 24.20290496076001 1.8609431243919996 -1 0 0
2158 1 90.828099012716 24.20290496076001 1.8609431243919996 -1 0 0
2164 1 94.32148743628201 24.20290496076001 1.8609431243919996 -1 0 0
2170 1 97.814875859848 24.20290496076001 1.8609431243919996 -1 0 0
2174 3 0 26.219813707490005 0 0 0 0
2355 1 1.7466942117829944 27.228268080855003 1.8609431243919996 0 0 0
2180 3 3.493388423565996 26.219813707490005 0 0 0 0
2361 1 5.2400826353489975 27.228268080855003 1.8609431243919996 0 0 0
2186 3 6.986776847131999 26.219813707490005 0 0 0 0
2367 1 8.733471058915 27.228268080855003 1.8609431243919996 0 0 0
2192 3 10.480165270697995 26.219813707490005 0 0 0 0
2373 1 12.226859482480997 27.228268080855003 1.8609431243919996 0 0 0
2198 3 13.973553694263991 26.219813707490005 0 0 0 0
2204 3 17.466942117829994 26.219813707490005 0 0 0 0
2379 1 15.720247906047 27.228268080855003 1.8609431243919996 0 0 0
2385 1 19.213636329613003 27.228268080855003 1.8609431243919996 0 0 0
2210 3 20.960330541395997 26.219813707490005 0 0 0 0
2391 1 22.70702475317899 27.228268080855003 1.8609431243919996 0 0 0