LAMMPS data file via write_data, version 29 Aug 2024, timestep = 2, units = metal

13608 atoms
36 atom types

0 99.098684832564 xlo xhi
0 100.125641637756 ylo yhi
-50 50 zlo zhi

Masses

1 50.9415
2 50.9415
3 50.9415
4 50.9415
5 50.9415
6 50.9415
7 50.9415
8 50.9415
9 50.9415
10 50.9415
11 50.9415
12 50.9415
13 15.999
14 15.999
15 15.999
16 15.999
17 15.999
18 15.999
19 15.999
20 15.999
21 15.999
22 15.999
23 15.999
24 15.999
25 15.999
26 15.999
27 15.999
28 15.999
29 15.999
30 15.999
31 15.999
32 15.999
33 15.999
34 15.999
35 15.999
36 15.999

Atoms # atomic

2280 20 2.75274124534893 0.7946479495060206 0.022043854883958863 0 0 0
2286 16 5.50548249069793 0.7946479495060206 0.022043854883958866 0 0 0
2485 1 1.8939394841201524e-13 2.3839438485179554 1.1406232913905696 0 0 0
2491 3 2.75274124534919 2.383943848517956 1.1406232913905694 0 0 0
2497 1 5.50548249069819 2.383943848517956 1.1406232913905694 0 0 0
2487 14 1.3763706226747578 3.178591798024018 0.022043854883958696 0 0 0
2493 18 4.129111868023758 3.178591798024018 0.022043854883958713 0 0 0
2488 2 1.376370622674425 4.767887697035953 1.1406232913905694 0 0 0
2496 20 2.75274124534893 5.562535646542017 0.022043854883959067 0 0 0
2494 4 4.129111868023425 4.767887697035953 1.1406232913905694 0 0 0
2502 16 5.50548249069793 5.562535646542017 0.022043854883959078 0 0 0
2279 19 2.75274124534893 0.7946479495060206 2.259235810214494 0 0 0
2285 15 5.50548249069793 0.7946479495060207 2.259235810214494 0 0 0
2486 13 1.3763706226747578 3.1785917980240175 2.2592358102144945 0 0 0
2492 17 4.129111868023758 3.1785917980240175 2.2592358102144945 0 0 0
2495 19 2.75274124534893 5.562535646542017 2.259235810214494 0 0 0
2501 15 5.50548249069793 5.562535646542017 2.259235810214494 0 0 0
2292 20 8.258223736046931 0.7946479495060206 0.022043854883958863 0 0 0
2298 16 11.010964981395931 0.7946479495060206 0.02204385488395886 0 0 0
2503 3 8.25822373604719 2.383943848517956 1.1406232913905694 0 0 0
2509 1 11.01096498139619 2.383943848517956 1.1406232913905694 0 0 0
2499 14 6.881853113372758 3.178591798024018 0.022043854883958765 0 0 0
2505 18 9.634594358721758 3.178591798024018 0.022043854883958765 0 0 0
2500 2 6.881853113372425 4.767887697035953 1.1406232913905694 0 0 0
2508 20 8.258223736046931 5.562535646542017 0.022043854883959078 0 0 0
2506 4 9.634594358721426 4.767887697035953 1.1406232913905694 0 0 0
2514 16 11.010964981395931 5.562535646542017 0.022043854883959036 0 0 0
2291 19 8.258223736046931 0.7946479495060207 2.259235810214494 0 0 0
2297 15 11.010964981395931 0.7946479495060206 2.259235810214494 0 0 0
2498 13 6.881853113372758 3.1785917980240175 2.2592358102144945 0 0 0
2504 17 9.634594358721758 3.1785917980240175 2.2592358102144945 0 0 0
2507 19 8.258223736046931 5.562535646542017 2.259235810214494 0 0 0
2513 15 11.010964981395931 5.562535646542017 2.259235810214494 0 0 0
2304 20 13.763706226744931 0.7946479495060205 0.022043854883958987 0 0 0
2310 16 16.516447472093933 0.7946479495060205 0.022043854883958974 0 0 0
2515 3 13.76370622674519 2.383943848517956 1.1406232913905694 0 0 0
2521 1 16.516447472094193 2.383943848517956 1.1406232913905694 0 0 0
2511 14 12.387335604070758 3.178591798024018 0.022043854883958727 0 0 0
2517 18 15.140076849419758 3.1785917980240175 0.022043854883958845 0 0 0
2512 2 12.387335604070426 4.767887697035953 1.1406232913905694 0 0 0
2520 20 13.763706226744931 5.562535646542017 0.02204385488395926 0 0 0
2518 4 15.140076849419428 4.767887697035953 1.1406232913905694 0 0 0
2526 16 16.516447472093933 5.562535646542017 0.022043854883959154 0 0 0
2303 19 13.763706226744931 0.7946479495060206 2.259235810214494 0 0 0
2309 15 16.516447472093933 0.7946479495060205 2.259235810214494 0 0 0
2510 13 12.387335604070758 3.1785917980240175 2.2592358102144945 0 0 0
2516 17 15.140076849419758 3.1785917980240175 2.259235810214494 0 0 0
2519 19 13.763706226744931 5.562535646542017 2.259235810214494 0 0 0
2525 15 16.516447472093933 5.562535646542017 2.259235810214494 0 0 0
2316 20 19.269188717442933 0.7946479495060206 0.022043854883958876 0 0 0
2322 16 22.021929962791933 0.7946479495060206 0.02204385488395888 0 0 0
2527 3 19.269188717443193 2.383943848517956 1.1406232913905694 0 0 0
2533 1 22.021929962792193 2.383943848517956 1.1406232913905694 0 0 0
2523 14 17.89281809476876 3.178591798024018 0.02204385488395874 0 0 0
2529 18 20.64555934011776 3.178591798024018 0.022043854883958765 0 0 0
2524 2 17.89281809476843 4.767887697035953 1.1406232913905696 0 0 0
2532 20 19.269188717442933 5.562535646542017 0.02204385488395906 0 0 0
2530 4 20.64555934011743 4.767887697035953 1.1406232913905696 0 0 0
2538 16 22.021929962791933 5.562535646542017 0.02204385488395906 0 0 0
2315 19 19.269188717442933 0.7946479495060206 2.259235810214494 0 0 0
2321 15 22.021929962791933 0.7946479495060206 2.259235810214494 0 0 0
2522 13 17.89281809476876 3.1785917980240175 2.2592358102144945 0 0 0
2528 17 20.64555934011776 3.1785917980240175 2.2592358102144945 0 0 0
2531 19 19.269188717442933 5.562535646542017 2.259235810214494 0 0 0
2537 15 22.021929962791933 5.562535646542017 2.259235810214494 0 0 0
2328 20 24.774671208140933 0.7946479495060206 0.022043854883958876 0 0 0
2334 16 27.527412453489934 0.7946479495060206 0.022043854883958876 0 0 0
2539 3 24.774671208141193 2.383943848517956 1.1406232913905694 0 0 0
2545 1 27.527412453490193 2.383943848517956 1.1406232913905694 0 0 0
2535 14 23.39830058546676 3.178591798024018 0.022043854883958765 0 0 0
2541 18 26.15104183081576 3.178591798024018 0.022043854883958765 0 0 0
2547 14 28.90378307616476 3.178591798024018 0.022043854883958765 0 0 0
2536 2 23.39830058546643 4.767887697035953 1.1406232913905696 0 0 0
2544 20 24.774671208140933 5.562535646542017 0.02204385488395906 0 0 0
2542 4 26.15104183081543 4.767887697035953 1.1406232913905696 0 0 0
2550 16 27.527412453489934 5.562535646542017 0.02204385488395906 0 0 0
2548 2 28.90378307616443 4.767887697035953 1.1406232913905696 0 0 0
2327 19 24.774671208140933 0.7946479495060206 2.259235810214494 0 0 0
2333 15 27.527412453489934 0.7946479495060206 2.259235810214494 0 0 0
2534 13 23.39830058546676 3.1785917980240175 2.2592358102144945 0 0 0
2540 17 26.15104183081576 3.1785917980240175 2.2592358102144945 0 0 0
2546 13 28.90378307616476 3.1785917980240175 2.2592358102144945 0 0 0
2543 19 24.774671208140933 5.562535646542017 2.259235810214494 0 0 0
2549 15 27.527412453489934 5.562535646542017 2.259235810214494 0 0 0
2340 20 30.280153698838934 0.7946479495060206 0.022043854883958876 0 0 0
2346 16 33.03289494418793 0.7946479495060208 0.022043854883958675 0 0 0
2551 3 30.280153698839193 2.383943848517956 1.1406232913905694 0 0 0
2557 1 33.03289494418819 2.3839438485179554 1.1406232913905694 0 0 0
2553 18 31.65652432151376 3.178591798024018 0.02204385488395856 0 0 0
2559 14 34.40926556686276 3.1785917980240175 0.02204385488395882 0 0 0
2556 20 30.280153698838934 5.562535646542017 0.02204385488395906 0 0 0
2554 4 31.65652432151343 4.767887697035953 1.1406232913905696 0 0 0
2562 16 33.03289494418793 5.562535646542018 0.022043854883958856 0 0 0
2560 2 34.40926556686243 4.767887697035953 1.1406232913905696 0 0 0
2339 19 30.280153698838934 0.7946479495060206 2.259235810214494 0 0 0
2345 15 33.03289494418793 0.7946479495060208 2.2592358102144945 0 0 0
2552 17 31.65652432151376 3.1785917980240175 2.2592358102144945 0 0 0
2558 13 34.40926556686276 3.1785917980240175 2.259235810214494 0 0 0
2555 19 30.280153698838934 5.562535646542017 2.259235810214494 0 0 0
2561 15 33.03289494418793 5.562535646542018 2.259235810214494 0 0 0
2352 20 35.78563618953693 0.7946479495060206 0.022043854883958908 0 0 0
2358 16 38.53837743488593 0.7946479495060206 0.022043854883958908 0 0 0
2563 3 35.78563618953719 2.383943848517956 1.1406232913905694 0 0 0
2569 1 38.53837743488619 2.383943848517956 1.1406232913905694 0 0 0
2565 18 37.16200681221176 3.178591798024018 0.022043854883958765 0 0 0
2571 14 39.91474805756076 3.178591798024018 0.022043854883958765 0 0 0
2568 20 35.78563618953693 5.562535646542017 0.02204385488395908 0 0 0
2566 4 37.16200681221143 4.767887697035953 1.1406232913905696 0 0 0
2574 16 38.53837743488593 5.562535646542017 0.02204385488395908 0 0 0
2572 2 39.91474805756043 4.767887697035953 1.1406232913905696 0 0 0
2351 19 35.78563618953693 0.7946479495060206 2.259235810214494 0 0 0
2357 15 38.53837743488593 0.7946479495060206 2.259235810214494 0 0 0
2564 17 37.16200681221176 3.1785917980240175 2.2592358102144945 0 0 0
2570 13 39.91474805756076 3.1785917980240175 2.2592358102144945 0 0 0
2567 19 35.78563618953693 5.562535646542017 2.259235810214494 0 0 0
2573 15 38.53837743488593 5.562535646542017 2.259235810214494 0 0 0
2364 20 41.29111868023493 0.7946479495060206 0.022043854883958908 0 0 0
2370 16 44.04385992558393 0.7946479495060206 0.022043854883958908 0 0 0
2575 3 41.29111868023519 2.383943848517956 1.1406232913905694 0 0 0
2581 1 44.043859925584194 2.383943848517956 1.1406232913905694 0 0 0
2577 18 42.66748930290976 3.178591798024018 0.022043854883958765 0 0 0
2583 14 45.42023054825876 3.178591798024018 0.022043854883958765 0 0 0
2580 20 41.29111868023493 5.562535646542017 0.02204385488395908 0 0 0
2578 4 42.66748930290943 4.767887697035953 1.1406232913905696 0 0 0
2586 16 44.04385992558393 5.562535646542017 0.02204385488395908 0 0 0
2584 2 45.42023054825843 4.767887697035953 1.1406232913905696 0 0 0
2363 19 41.29111868023493 0.7946479495060206 2.259235810214494 0 0 0
2369 15 44.04385992558393 0.7946479495060206 2.259235810214494 0 0 0
2576 17 42.66748930290976 3.1785917980240175 2.2592358102144945 0 0 0
2582 13 45.42023054825876 3.1785917980240175 2.2592358102144945 0 0 0
2579 19 41.29111868023493 5.562535646542017 2.259235810214494 0 0 0
2585 15 44.04385992558393 5.562535646542017 2.259235810214494 0 0 0
2376 20 46.79660117093293 0.7946479495060206 0.022043854883958908 0 0 0
2166 16 49.54934241628193 0.7946479495060206 0.02204385488395891 -1 0 0
2172 20 52.30208366163093 0.7946479495060206 0.02204385488395891 -1 0 0
2587 3 46.796601170933194 2.383943848517956 1.1406232913905694 0 0 0
2377 1 49.549342416282194 2.383943848517956 1.1406232913905694 -1 0 0
2383 3 52.302083661631194 2.383943848517956 1.1406232913905694 -1 0 0
2589 18 48.17297179360776 3.178591798024018 0.022043854883958765 0 0 0
2379 14 50.92571303895676 3.178591798024018 0.022043854883958765 -1 0 0
2592 20 46.79660117093293 5.562535646542017 0.02204385488395908 0 0 0
2590 4 48.17297179360743 4.767887697035953 1.1406232913905696 0 0 0
2382 16 49.54934241628193 5.562535646542017 0.022043854883959088 -1 0 0
2380 2 50.92571303895643 4.767887697035953 1.1406232913905696 -1 0 0
2388 20 52.30208366163093 5.562535646542017 0.02204385488395908 -1 0 0
2375 19 46.79660117093293 0.7946479495060206 2.259235810214494 0 0 0
2165 15 49.54934241628193 0.7946479495060206 2.259235810214494 -1 0 0
2171 19 52.30208366163093 0.7946479495060206 2.259235810214494 -1 0 0
2588 17 48.17297179360776 3.1785917980240175 2.2592358102144945 0 0 0
2378 13 50.92571303895676 3.1785917980240175 2.2592358102144945 -1 0 0
2591 19 46.79660117093293 5.562535646542017 2.259235810214494 0 0 0
2381 15 49.54934241628193 5.562535646542017 2.259235810214494 -1 0 0
2387 19 52.30208366163093 5.562535646542017 2.259235810214494 -1 0 0
2178 16 55.05482490697993 0.7946479495060206 0.022043854883958908 -1 0 0
2184 20 57.80756615232893 0.7946479495060206 0.02204385488395891 -1 0 0
2389 1 55.054824906980194 2.383943848517956 1.1406232913905694 -1 0 0
2395 3 57.807566152329194 2.383943848517956 1.1406232913905694 -1 0 0
2385 18 53.67845428430576 3.178591798024018 0.022043854883958765 -1 0 0
2391 14 56.43119552965476 3.178591798024018 0.022043854883958765 -1 0 0
2386 4 53.67845428430543 4.767887697035953 1.1406232913905696 -1 0 0
2394 16 55.05482490697993 5.562535646542017 0.02204385488395908 -1 0 0
2392 2 56.43119552965443 4.767887697035953 1.1406232913905696 -1 0 0
2400 20 57.80756615232893 5.562535646542017 0.02204385488395908 -1 0 0
2177 15 55.05482490697993 0.7946479495060206 2.259235810214494 -1 0 0
2183 19 57.80756615232893 0.7946479495060206 2.259235810214494 -1 0 0
2384 17 53.67845428430576 3.1785917980240175 2.2592358102144945 -1 0 0
2390 13 56.43119552965476 3.1785917980240175 2.2592358102144945 -1 0 0
2393 15 55.05482490697993 5.562535646542017 2.259235810214494 -1 0 0
2399 19 57.80756615232893 5.562535646542017 2.259235810214494 -1 0 0
2190 16 60.56030739767793 0.7946479495060206 0.022043854883958908 -1 0 0
2196 20 63.31304864302693 0.7946479495060202 0.022043854883959487 -1 0 0
2401 1 60.560307397678194 2.383943848517956 1.1406232913905694 -1 0 0
2407 3 63.313048643027194 2.3839438485179563 1.1406232913905694 -1 0 0
2397 18 59.18393677500376 3.178591798024018 0.022043854883958765 -1 0 0
2403 14 61.93667802035276 3.178591798024018 0.022043854883958765 -1 0 0
2398 4 59.18393677500343 4.767887697035953 1.1406232913905696 -1 0 0
2406 16 60.56030739767793 5.562535646542017 0.02204385488395908 -1 0 0
2404 2 61.93667802035243 4.767887697035953 1.1406232913905696 -1 0 0
2412 20 63.31304864302693 5.562535646542017 0.022043854883959622 -1 0 0
2189 15 60.56030739767793 0.7946479495060206 2.259235810214494 -1 0 0
2195 19 63.31304864302693 0.7946479495060202 2.2592358102144936 -1 0 0
2396 17 59.18393677500376 3.1785917980240175 2.2592358102144945 -1 0 0
2402 13 61.93667802035276 3.1785917980240175 2.2592358102144945 -1 0 0
2405 15 60.56030739767793 5.562535646542017 2.259235810214494 -1 0 0
2411 19 63.31304864302693 5.562535646542017 2.2592358102144936 -1 0 0
2202 16 66.06578988837593 0.7946479495060206 0.022043854883958908 -1 0 0
2208 20 68.81853113372493 0.7946479495060206 0.02204385488395891 -1 0 0
2413 1 66.06578988837619 2.383943848517956 1.1406232913905694 -1 0 0
2419 3 68.81853113372519 2.383943848517956 1.1406232913905694 -1 0 0
2409 18 64.68941926570176 3.178591798024018 0.022043854883958765 -1 0 0
2415 14 67.44216051105076 3.178591798024018 0.022043854883958765 -1 0 0
2410 4 64.68941926570143 4.767887697035953 1.1406232913905694 -1 0 0
2418 16 66.06578988837593 5.562535646542017 0.022043854883959074 -1 0 0
2416 2 67.44216051105043 4.767887697035953 1.1406232913905694 -1 0 0
2424 20 68.81853113372493 5.562535646542017 0.022043854883959074 -1 0 0
2201 15 66.06578988837593 0.7946479495060207 2.259235810214494 -1 0 0
2207 19 68.81853113372493 0.7946479495060207 2.259235810214494 -1 0 0
2408 17 64.68941926570176 3.1785917980240175 2.2592358102144945 -1 0 0
2414 13 67.44216051105076 3.1785917980240175 2.2592358102144945 -1 0 0
2417 15 66.06578988837593 5.562535646542017 2.259235810214494 -1 0 0
2423 19 68.81853113372493 5.562535646542017 2.259235810214494 -1 0 0
2214 16 71.57127237907393 0.7946479495060206 0.022043854883958908 -1 0 0
2220 20 74.32401362442293 0.7946479495060206 0.022043854883958908 -1 0 0
2425 1 71.57127237907419 2.383943848517956 1.1406232913905694 -1 0 0
2431 3 74.32401362442319 2.383943848517956 1.1406232913905694 -1 0 0
2421 18 70.19490175639976 3.178591798024018 0.022043854883958765 -1 0 0
2427 14 72.94764300174876 3.178591798024018 0.022043854883958765 -1 0 0
2433 18 75.70038424709776 3.178591798024018 0.022043854883958765 -1 0 0
2422 4 70.19490175639943 4.767887697035953 1.1406232913905694 -1 0 0
2430 16 71.57127237907393 5.562535646542017 0.022043854883959074 -1 0 0
2428 2 72.94764300174843 4.767887697035953 1.1406232913905694 -1 0 0
2436 20 74.32401362442293 5.562535646542017 0.022043854883959074 -1 0 0
2434 4 75.70038424709743 4.767887697035953 1.1406232913905694 -1 0 0
2213 15 71.57127237907393 0.7946479495060207 2.259235810214494 -1 0 0
2219 19 74.32401362442293 0.7946479495060207 2.259235810214494 -1 0 0
2420 17 70.19490175639976 3.1785917980240175 2.2592358102144945 -1 0 0
2426 13 72.94764300174876 3.1785917980240175 2.2592358102144945 -1 0 0
2432 17 75.70038424709776 3.1785917980240175 2.2592358102144945 -1 0 0
2429 15 71.57127237907393 5.562535646542017 2.259235810214494 -1 0 0
2435 19 74.32401362442293 5.562535646542017 2.259235810214494 -1 0 0
2226 16 77.07675486977193 0.7946479495060206 0.022043854883958908 -1 0 0
2232 20 79.82949611512093 0.7946479495060206 0.022043854883958897 -1 0 0
2437 1 77.07675486977219 2.383943848517956 1.1406232913905694 -1 0 0
2443 3 79.82949611512119 2.383943848517956 1.1406232913905694 -1 0 0
2439 14 78.45312549244676 3.178591798024018 0.022043854883958765 -1 0 0
2445 18 81.20586673779576 3.1785917980240175 0.022043854883958817 -1 0 0
2442 16 77.07675486977193 5.562535646542017 0.022043854883959074 -1 0 0
2440 2 78.45312549244643 4.767887697035953 1.1406232913905694 -1 0 0
2448 20 79.82949611512093 5.562535646542017 0.0220438548839591 -1 0 0
2446 4 81.20586673779543 4.767887697035953 1.1406232913905694 -1 0 0
2225 15 77.07675486977193 0.7946479495060207 2.259235810214494 -1 0 0
2231 19 79.82949611512093 0.7946479495060207 2.259235810214494 -1 0 0
2438 13 78.45312549244676 3.1785917980240175 2.2592358102144945 -1 0 0
2444 17 81.20586673779576 3.1785917980240175 2.259235810214494 -1 0 0
2441 15 77.07675486977193 5.562535646542017 2.259235810214494 -1 0 0
2447 19 79.82949611512093 5.562535646542017 2.259235810214494 -1 0 0
2238 16 82.58223736046993 0.794647949506021 0.022043854883958616 -1 0 0
2244 20 85.33497860581893 0.7946479495060206 0.022043854883958908 -1 0 0
2449 1 82.58223736047019 2.383943848517956 1.1406232913905694 -1 0 0
2455 3 85.33497860581919 2.383943848517956 1.1406232913905694 -1 0 0
2451 14 83.95860798314476 3.178591798024018 0.02204385488395879 -1 0 0
2457 18 86.71134922849376 3.178591798024018 0.022043854883958765 -1 0 0
2454 16 82.58223736046993 5.562535646542018 0.02204385488395873 -1 0 0
2452 2 83.95860798314443 4.767887697035953 1.1406232913905694 -1 0 0
2460 20 85.33497860581893 5.562535646542017 0.022043854883959116 -1 0 0
2458 4 86.71134922849343 4.767887697035953 1.1406232913905694 -1 0 0
2237 15 82.58223736046993 0.794647949506021 2.2592358102144945 -1 0 0
2243 19 85.33497860581893 0.7946479495060206 2.259235810214494 -1 0 0
2450 13 83.95860798314476 3.1785917980240175 2.259235810214494 -1 0 0
2456 17 86.71134922849376 3.1785917980240175 2.2592358102144945 -1 0 0
2453 15 82.58223736046993 5.562535646542018 2.259235810214494 -1 0 0
2459 19 85.33497860581893 5.562535646542017 2.259235810214494 -1 0 0
2250 16 88.08771985116793 0.7946479495060206 0.022043854883958908 -1 0 0
2256 20 90.84046109651693 0.7946479495060206 0.022043854883958908 -1 0 0
2461 1 88.08771985116819 2.383943848517956 1.1406232913905694 -1 0 0
2467 3 90.84046109651719 2.383943848517956 1.1406232913905694 -1 0 0
2463 14 89.46409047384276 3.178591798024018 0.022043854883958765 -1 0 0
2469 18 92.21683171919176 3.178591798024018 0.022043854883958765 -1 0 0
2466 16 88.08771985116793 5.562535646542017 0.022043854883959088 -1 0 0
2464 2 89.46409047384243 4.767887697035953 1.1406232913905694 -1 0 0
2472 20 90.84046109651693 5.562535646542017 0.022043854883959088 -1 0 0
2470 4 92.21683171919143 4.767887697035953 1.1406232913905694 -1 0 0
2249 15 88.08771985116793 0.7946479495060206 2.259235810214494 -1 0 0
2255 19 90.84046109651693 0.7946479495060206 2.259235810214494 -1 0 0
2462 13 89.46409047384276 3.1785917980240175 2.2592358102144945 -1 0 0
2468 17 92.21683171919176 3.1785917980240175 2.2592358102144945 -1 0 0
2465 15 88.08771985116793 5.562535646542017 2.259235810214494 -1 0 0
2471 19 90.84046109651693 5.562535646542017 2.259235810214494 -1 0 0
2274 16 99.09868483256393 0.7946479495060202 0.022043854883959116 -1 0 0
2490 16 99.09868483256393 5.562535646542017 0.02204385488395914 -1 0 0
2273 15 99.09868483256393 0.7946479495060207 2.2592358102144945 -1 0 0
2489 15 99.09868483256393 5.562535646542017 2.2592358102144945 -1 0 0
2262 16 93.59320234186593 0.7946479495060206 0.022043854883958908 -1 0 0
2268 20 96.34594358721493 0.7946479495060206 0.0220438548839589 -1 0 0
2473 1 93.59320234186619 2.383943848517956 1.1406232913905694 -1 0 0
2479 3 96.34594358721519 2.383943848517956 1.1406232913905694 -1 0 0
2475 14 94.96957296454076 3.178591798024018 0.022043854883958765 -1 0 0
2481 18 97.72231420988976 3.178591798024018 0.022043854883958776 -1 0 0
2478 16 93.59320234186593 5.562535646542017 0.022043854883959088 -1 0 0
2476 2 94.96957296454043 4.767887697035953 1.1406232913905694 -1 0 0
2484 20 96.34594358721493 5.562535646542017 0.022043854883959074 -1 0 0
2482 4 97.72231420988943 4.767887697035953 1.140623291390569 -1 0 0
2261 15 93.59320234186593 0.7946479495060206 2.259235810214494 -1 0 0
2267 19 96.34594358721493 0.7946479495060206 2.259235810214494 -1 0 0
2474 13 94.96957296454076 3.1785917980240175 2.2592358102144945 -1 0 0
2480 17 97.72231420988976 3.1785917980240175 2.259235810214494 -1 0 0
2477 15 93.59320234186593 5.562535646542017 2.259235810214494 -1 0 0
2483 19 96.34594358721493 5.562535646542017 2.259235810214494 -1 0 0
2701 1 1.894079432268678e-13 7.151831545553954 1.1406232913905696 0 0 0
2707 3 2.75274124534919 7.151831545553954 1.1406232913905694 0 0 0
2713 1 5.50548249069819 7.151831545553954 1.1406232913905694 0 0 0
2703 14 1.3763706226747578 7.946479495060018 0.022043854883958897 0 0 0
2709 18 4.129111868023758 7.946479495060018 0.022043854883958932 0 0 0
2704 2 1.3763706226744248 9.535775394071955 1.1406232913905694 0 0 0
2710 4 4.129111868023425 9.535775394071955 1.1406232913905694 0 0 0
2712 20 2.75274124534893 10.330423343578019 0.022043854883959088 0 0 0
2718 16 5.50548249069793 10.330423343578019 0.022043854883959064 0 0 0
2702 13 1.3763706226747578 7.946479495060018 2.259235810214494 0 0 0
2708 17 4.129111868023758 7.946479495060018 2.259235810214494 0 0 0
2711 19 2.75274124534893 10.330423343578019 2.259235810214494 0 0 0
2717 15 5.50548249069793 10.330423343578019 2.259235810214494 0 0 0
2719 3 8.25822373604719 7.151831545553954 1.1406232913905694 0 0 0
2725 1 11.01096498139619 7.151831545553954 1.1406232913905694 0 0 0
2715 14 6.881853113372758 7.946479495060018 0.022043854883958956 0 0 0
2721 18 9.634594358721758 7.946479495060018 0.022043854883958956 0 0 0
2716 2 6.881853113372425 9.535775394071955 1.1406232913905694 0 0 0
2722 4 9.634594358721426 9.535775394071955 1.1406232913905694 0 0 0
2724 20 8.258223736046931 10.330423343578019 0.022043854883959064 0 0 0
2730 16 11.010964981395931 10.330423343578019 0.022043854883959033 0 0 0
2714 13 6.881853113372758 7.946479495060018 2.259235810214494 0 0 0
2720 17 9.634594358721758 7.946479495060018 2.259235810214494 0 0 0
2723 19 8.258223736046931 10.330423343578019 2.259235810214494 0 0 0
2729 15 11.010964981395931 10.330423343578019 2.259235810214494 0 0 0
2731 3 13.76370622674519 7.151831545553954 1.1406232913905694 0 0 0
2737 1 16.516447472094193 7.1518315455539545 1.1406232913905694 0 0 0
2727 14 12.387335604070758 7.946479495060018 0.022043854883958908 0 0 0
2733 18 15.140076849419758 7.946479495060018 0.022043854883959005 0 0 0
2728 2 12.387335604070426 9.535775394071955 1.1406232913905694 0 0 0
2734 4 15.140076849419428 9.535775394071955 1.1406232913905694 0 0 0
2736 20 13.763706226744931 10.330423343578019 0.022043854883959237 0 0 0
2742 16 16.516447472093933 10.330423343578019 0.02204385488395907 0 0 0
2726 13 12.387335604070758 7.946479495060018 2.259235810214494 0 0 0
2732 17 15.140076849419758 7.946479495060018 2.259235810214494 0 0 0
2735 19 13.763706226744931 10.330423343578019 2.259235810214494 0 0 0
2741 15 16.516447472093933 10.330423343578019 2.259235810214494 0 0 0
2743 3 19.269188717443193 7.151831545553954 1.1406232913905694 0 0 0
2749 1 22.021929962792193 7.151831545553954 1.1406232913905694 0 0 0
2739 14 17.89281809476876 7.946479495060018 0.02204385488395893 0 0 0
2745 18 20.64555934011776 7.946479495060018 0.022043854883958956 0 0 0
2740 2 17.89281809476843 9.535775394071955 1.1406232913905694 0 0 0
2746 4 20.64555934011743 9.535775394071955 1.1406232913905694 0 0 0
2748 20 19.269188717442933 10.330423343578019 0.02204385488395902 0 0 0
2754 16 22.021929962791933 10.330423343578019 0.022043854883959015 0 0 0
2738 13 17.89281809476876 7.946479495060018 2.259235810214494 0 0 0
2744 17 20.64555934011776 7.946479495060018 2.259235810214494 0 0 0
2747 19 19.269188717442933 10.330423343578019 2.259235810214494 0 0 0
2753 15 22.021929962791933 10.330423343578019 2.259235810214494 0 0 0
2755 3 24.774671208141193 7.151831545553954 1.1406232913905694 0 0 0
2761 1 27.527412453490193 7.151831545553954 1.1406232913905694 0 0 0
2751 14 23.39830058546676 7.946479495060018 0.022043854883958956 0 0 0
2757 18 26.15104183081576 7.946479495060018 0.022043854883958956 0 0 0
2763 14 28.90378307616476 7.946479495060018 0.02204385488395895 0 0 0
2752 2 23.39830058546643 9.535775394071955 1.1406232913905694 0 0 0
2758 4 26.15104183081543 9.535775394071955 1.1406232913905694 0 0 0
2764 2 28.90378307616443 9.535775394071955 1.1406232913905694 0 0 0
2760 20 24.774671208140933 10.330423343578019 0.02204385488395902 0 0 0
2766 16 27.527412453489934 10.330423343578019 0.02204385488395902 0 0 0
2750 13 23.39830058546676 7.946479495060018 2.259235810214494 0 0 0
2756 17 26.15104183081576 7.946479495060018 2.259235810214494 0 0 0
2762 13 28.90378307616476 7.946479495060018 2.259235810214494 0 0 0
2759 19 24.774671208140933 10.330423343578019 2.259235810214494 0 0 0
2765 15 27.527412453489934 10.330423343578019 2.259235810214494 0 0 0
2767 3 30.280153698839193 7.1518315455539545 1.1406232913905694 0 0 0
2773 1 33.03289494418819 7.151831545553954 1.1406232913905696 0 0 0
2769 18 31.65652432151376 7.946479495060018 0.02204385488395871 0 0 0
2775 14 34.40926556686276 7.946479495060018 0.02204385488395901 0 0 0
2770 4 31.65652432151343 9.535775394071955 1.1406232913905694 0 0 0
2776 2 34.40926556686243 9.535775394071955 1.1406232913905694 0 0 0
2772 20 30.280153698838934 10.330423343578019 0.02204385488395902 0 0 0
2778 16 33.03289494418793 10.330423343578019 0.022043854883958807 0 0 0
2768 17 31.65652432151376 7.946479495060018 2.2592358102144945 0 0 0
2774 13 34.40926556686276 7.946479495060018 2.259235810214494 0 0 0
2771 19 30.280153698838934 10.330423343578019 2.259235810214494 0 0 0
2777 15 33.03289494418793 10.330423343578019 2.259235810214494 0 0 0
2779 3 35.78563618953719 7.151831545553954 1.1406232913905694 0 0 0
2785 1 38.53837743488619 7.151831545553954 1.1406232913905694 0 0 0
2781 18 37.16200681221176 7.946479495060018 0.022043854883958956 0 0 0
2787 14 39.91474805756076 7.946479495060018 0.02204385488395895 0 0 0
2782 4 37.16200681221143 9.535775394071955 1.1406232913905694 0 0 0
2788 2 39.91474805756043 9.535775394071955 1.1406232913905694 0 0 0
2784 20 35.78563618953693 10.330423343578019 0.02204385488395901 0 0 0
2790 16 38.53837743488593 10.330423343578019 0.02204385488395901 0 0 0
2780 17 37.16200681221176 7.946479495060018 2.259235810214494 0 0 0
2786 13 39.91474805756076 7.946479495060018 2.259235810214494 0 0 0
2783 19 35.78563618953693 10.330423343578019 2.259235810214494 0 0 0
2789 15 38.53837743488593 10.330423343578019 2.259235810214494 0 0 0
2791 3 41.29111868023519 7.151831545553954 1.1406232913905694 0 0 0
2797 1 44.043859925584194 7.151831545553954 1.1406232913905694 0 0 0
2793 18 42.66748930290976 7.946479495060018 0.022043854883958956 0 0 0
2799 14 45.42023054825876 7.946479495060018 0.02204385488395895 0 0 0
2794 4 42.66748930290943 9.535775394071955 1.1406232913905694 0 0 0
2800 2 45.42023054825843 9.535775394071955 1.1406232913905694 0 0 0
2796 20 41.29111868023493 10.330423343578019 0.02204385488395901 0 0 0
2802 16 44.04385992558393 10.330423343578019 0.02204385488395901 0 0 0
2792 17 42.66748930290976 7.946479495060018 2.259235810214494 0 0 0
2798 13 45.42023054825876 7.946479495060018 2.259235810214494 0 0 0
2795 19 41.29111868023493 10.330423343578019 2.259235810214494 0 0 0
2801 15 44.04385992558393 10.330423343578019 2.259235810214494 0 0 0
2803 3 46.796601170933194 7.151831545553954 1.1406232913905694 0 0 0
2593 1 49.549342416282194 7.151831545553954 1.1406232913905694 -1 0 0
2599 3 52.302083661631194 7.151831545553954 1.1406232913905694 -1 0 0
2805 18 48.17297179360776 7.946479495060018 0.022043854883958956 0 0 0
2595 14 50.92571303895676 7.946479495060018 0.022043854883958956 -1 0 0
2806 4 48.17297179360743 9.535775394071955 1.1406232913905694 0 0 0
2596 2 50.92571303895643 9.535775394071955 1.1406232913905694 -1 0 0
2808 20 46.79660117093293 10.330423343578019 0.02204385488395901 0 0 0
2598 16 49.54934241628193 10.330423343578019 0.02204385488395901 -1 0 0
2604 20 52.30208366163093 10.330423343578019 0.022043854883959 -1 0 0
2804 17 48.17297179360776 7.946479495060018 2.259235810214494 0 0 0
2594 13 50.92571303895676 7.946479495060018 2.259235810214494 -1 0 0
2807 19 46.79660117093293 10.330423343578019 2.259235810214494 0 0 0
2597 15 49.54934241628193 10.330423343578019 2.259235810214494 -1 0 0
2603 19 52.30208366163093 10.330423343578019 2.259235810214494 -1 0 0
2605 1 55.054824906980194 7.151831545553954 1.1406232913905694 -1 0 0
2611 3 57.807566152329194 7.151831545553954 1.1406232913905694 -1 0 0
2601 18 53.67845428430576 7.946479495060018 0.022043854883958956 -1 0 0
2607 14 56.43119552965476 7.946479495060018 0.022043854883958956 -1 0 0
2602 4 53.67845428430543 9.535775394071955 1.1406232913905694 -1 0 0
2608 2 56.43119552965443 9.535775394071955 1.1406232913905694 -1 0 0
2610 16 55.05482490697993 10.330423343578019 0.02204385488395901 -1 0 0
2616 20 57.80756615232893 10.330423343578019 0.022043854883959 -1 0 0
2600 17 53.67845428430576 7.946479495060018 2.259235810214494 -1 0 0
2606 13 56.43119552965476 7.946479495060018 2.259235810214494 -1 0 0
2609 15 55.05482490697993 10.330423343578019 2.259235810214494 -1 0 0
2615 19 57.80756615232893 10.330423343578019 2.259235810214494 -1 0 0
2617 1 60.560307397678194 7.151831545553954 1.1406232913905694 -1 0 0
2623 3 63.313048643027194 7.1518315455539545 1.1406232913905694 -1 0 0
2613 18 59.18393677500376 7.946479495060018 0.022043854883958956 -1 0 0
2619 14 61.93667802035276 7.946479495060018 0.022043854883958956 -1 0 0
2614 4 59.18393677500343 9.535775394071955 1.1406232913905694 -1 0 0