LAMMPS data file via write_data, version 29 Aug 2024, timestep = 2, units = metal

9072 atoms
24 atom types

0 99.098684832564 xlo xhi
0 100.125641637756 ylo yhi
-50 50 zlo zhi

Masses

1 50.9415
2 50.9415
3 50.9415
4 50.9415
5 50.9415
6 50.9415
7 50.9415
8 50.9415
9 15.999
10 15.999
11 15.999
12 15.999
13 15.999
14 15.999
15 15.999
16 15.999
17 15.999
18 15.999
19 15.999
20 15.999
21 15.999
22 15.999
23 15.999
24 15.999

Atoms # atomic

2280 16 2.75274124534893 0.7946479495060206 0.02204498998461665 0 0 0
2286 12 5.50548249069793 0.7946479495060206 0.022044989984616643 0 0 0
2485 1 1.8937985850497413e-13 2.3839438485179554 1.1406205273880117 0 0 0
2491 3 2.7527412453491897 2.383943848517956 1.1406205273880112 0 0 0
2497 1 5.50548249069819 2.383943848517956 1.1406205273880112 0 0 0
2487 10 1.3763706226747578 3.178591798024018 0.022044989984616497 0 0 0
2493 14 4.129111868023758 3.178591798024018 0.022044989984616525 0 0 0
2488 2 1.3763706226744248 4.767887697035953 1.1406205273880115 0 0 0
2496 16 2.75274124534893 5.562535646542017 0.02204498998461696 0 0 0
2494 4 4.129111868023425 4.767887697035953 1.1406205273880115 0 0 0
2502 12 5.50548249069793 5.562535646542017 0.022044989984616955 0 0 0
2279 15 2.75274124534893 0.7946479495060206 2.2592291168415093 0 0 0
2285 11 5.50548249069793 0.7946479495060206 2.2592291168415093 0 0 0
2486 9 1.3763706226747578 3.1785917980240175 2.2592291168415093 0 0 0
2492 13 4.129111868023758 3.1785917980240175 2.2592291168415093 0 0 0
2495 15 2.75274124534893 5.562535646542017 2.259229116841509 0 0 0
2501 11 5.50548249069793 5.562535646542017 2.259229116841509 0 0 0
2292 16 8.258223736046931 0.7946479495060206 0.022044989984616636 0 0 0
2298 12 11.010964981395931 0.7946479495060206 0.02204498998461659 0 0 0
2503 3 8.25822373604719 2.383943848517956 1.1406205273880112 0 0 0
2509 1 11.01096498139619 2.383943848517956 1.1406205273880112 0 0 0
2499 10 6.881853113372758 3.1785917980240175 0.02204498998461658 0 0 0
2505 14 9.634594358721758 3.1785917980240175 0.02204498998461658 0 0 0
2500 2 6.881853113372425 4.767887697035953 1.1406205273880115 0 0 0
2508 16 8.258223736046931 5.562535646542017 0.022044989984616955 0 0 0
2506 4 9.634594358721426 4.767887697035953 1.1406205273880115 0 0 0
2514 12 11.010964981395931 5.562535646542017 0.02204498998461691 0 0 0
2291 15 8.258223736046931 0.7946479495060206 2.2592291168415093 0 0 0
2297 11 11.010964981395931 0.7946479495060206 2.2592291168415093 0 0 0
2498 9 6.881853113372758 3.1785917980240175 2.2592291168415093 0 0 0
2504 13 9.634594358721758 3.1785917980240175 2.2592291168415093 0 0 0
2507 15 8.258223736046931 5.562535646542017 2.259229116841509 0 0 0
2513 11 11.010964981395931 5.562535646542017 2.2592291168415093 0 0 0
2304 16 13.763706226744931 0.7946479495060206 0.022044989984616837 0 0 0
2310 12 16.516447472093933 0.7946479495060205 0.02204498998461679 0 0 0
2515 3 13.76370622674519 2.383943848517956 1.1406205273880112 0 0 0
2521 1 16.516447472094193 2.383943848517956 1.1406205273880112 0 0 0
2511 10 12.387335604070758 3.1785917980240175 0.022044989984616545 0 0 0
2517 14 15.140076849419758 3.1785917980240175 0.02204498998461663 0 0 0
2512 2 12.387335604070426 4.767887697035953 1.1406205273880115 0 0 0
2520 16 13.763706226744931 5.562535646542017 0.02204498998461692 0 0 0
2518 4 15.140076849419428 4.767887697035953 1.1406205273880115 0 0 0
2526 12 16.516447472093933 5.562535646542017 0.02204498998461693 0 0 0
2303 15 13.763706226744931 0.7946479495060206 2.2592291168415093 0 0 0
2309 11 16.516447472093933 0.7946479495060205 2.2592291168415093 0 0 0
2510 9 12.387335604070758 3.1785917980240175 2.2592291168415093 0 0 0
2516 13 15.140076849419758 3.1785917980240175 2.2592291168415093 0 0 0
2519 15 13.763706226744931 5.562535646542017 2.2592291168415093 0 0 0
2525 11 16.516447472093933 5.562535646542017 2.259229116841509 0 0 0
2316 16 19.269188717442933 0.7946479495060206 0.02204498998461672 0 0 0
2322 12 22.021929962791933 0.7946479495060206 0.022044989984616722 0 0 0
2527 3 19.269188717443193 2.383943848517956 1.1406205273880112 0 0 0
2533 1 22.021929962792193 2.383943848517956 1.1406205273880112 0 0 0
2523 10 17.89281809476876 3.178591798024018 0.02204498998461656 0 0 0
2529 14 20.64555934011776 3.1785917980240175 0.022044989984616587 0 0 0
2524 2 17.89281809476843 4.767887697035953 1.1406205273880115 0 0 0
2532 16 19.269188717442933 5.562535646542017 0.022044989984616903 0 0 0
2530 4 20.64555934011743 4.767887697035953 1.1406205273880115 0 0 0
2538 12 22.021929962791933 5.562535646542017 0.022044989984616903 0 0 0
2315 15 19.269188717442933 0.7946479495060206 2.2592291168415093 0 0 0
2321 11 22.021929962791933 0.7946479495060206 2.2592291168415093 0 0 0
2522 9 17.89281809476876 3.1785917980240175 2.2592291168415093 0 0 0
2528 13 20.64555934011776 3.1785917980240175 2.2592291168415093 0 0 0
2531 15 19.269188717442933 5.562535646542017 2.2592291168415093 0 0 0
2537 11 22.021929962791933 5.562535646542017 2.2592291168415093 0 0 0
2328 16 24.774671208140933 0.7946479495060206 0.02204498998461672 0 0 0
2334 12 27.527412453489934 0.7946479495060206 0.022044989984616726 0 0 0
2539 3 24.774671208141193 2.383943848517956 1.1406205273880112 0 0 0
2545 1 27.527412453490193 2.383943848517956 1.1406205273880112 0 0 0
2535 10 23.39830058546676 3.1785917980240175 0.022044989984616587 0 0 0
2541 14 26.15104183081576 3.1785917980240175 0.022044989984616584 0 0 0
2547 10 28.90378307616476 3.1785917980240175 0.022044989984616615 0 0 0
2536 2 23.39830058546643 4.767887697035953 1.1406205273880115 0 0 0
2544 16 24.774671208140933 5.562535646542017 0.022044989984616903 0 0 0
2542 4 26.15104183081543 4.767887697035953 1.1406205273880115 0 0 0
2550 12 27.527412453489934 5.562535646542017 0.022044989984616896 0 0 0
2548 2 28.90378307616443 4.767887697035953 1.1406205273880112 0 0 0
2327 15 24.774671208140933 0.7946479495060206 2.2592291168415093 0 0 0
2333 11 27.527412453489934 0.7946479495060206 2.2592291168415093 0 0 0
2534 9 23.39830058546676 3.1785917980240175 2.2592291168415093 0 0 0
2540 13 26.15104183081576 3.1785917980240175 2.2592291168415093 0 0 0
2546 9 28.90378307616476 3.1785917980240175 2.2592291168415093 0 0 0
2543 15 24.774671208140933 5.562535646542017 2.2592291168415093 0 0 0
2549 11 27.527412453489934 5.562535646542017 2.2592291168415093 0 0 0
2340 16 30.280153698838934 0.7946479495060206 0.022044989984616726 0 0 0
2346 12 33.03289494418793 0.7946479495060208 0.022044989984616497 0 0 0
2551 3 30.280153698839193 2.383943848517956 1.1406205273880112 0 0 0
2557 1 33.03289494418819 2.3839438485179554 1.1406205273880112 0 0 0
2553 14 31.65652432151376 3.178591798024018 0.02204498998461632 0 0 0
2559 10 34.40926556686276 3.1785917980240175 0.02204498998461667 0 0 0
2556 16 30.280153698838934 5.562535646542017 0.022044989984616896 0 0 0
2554 4 31.65652432151343 4.767887697035953 1.1406205273880115 0 0 0
2562 12 33.03289494418793 5.562535646542018 0.022044989984616684 0 0 0
2560 2 34.40926556686243 4.767887697035953 1.1406205273880112 0 0 0
2339 15 30.280153698838934 0.7946479495060206 2.2592291168415093 0 0 0
2345 11 33.03289494418793 0.7946479495060208 2.2592291168415093 0 0 0
2552 13 31.65652432151376 3.1785917980240175 2.2592291168415097 0 0 0
2558 9 34.40926556686276 3.1785917980240175 2.2592291168415093 0 0 0
2555 15 30.280153698838934 5.562535646542017 2.2592291168415093 0 0 0
2561 11 33.03289494418793 5.562535646542018 2.2592291168415093 0 0 0
2352 16 35.78563618953693 0.7946479495060206 0.02204498998461672 0 0 0
2358 12 38.53837743488593 0.7946479495060206 0.02204498998461672 0 0 0
2563 3 35.78563618953719 2.383943848517956 1.1406205273880112 0 0 0
2569 1 38.53837743488619 2.383943848517956 1.1406205273880112 0 0 0
2565 14 37.16200681221176 3.1785917980240175 0.02204498998461658 0 0 0
2571 10 39.91474805756076 3.1785917980240175 0.02204498998461661 0 0 0
2568 16 35.78563618953693 5.562535646542017 0.022044989984616903 0 0 0
2566 4 37.16200681221143 4.767887697035953 1.1406205273880115 0 0 0
2574 12 38.53837743488593 5.562535646542017 0.022044989984616903 0 0 0
2572 2 39.91474805756043 4.767887697035953 1.1406205273880112 0 0 0
2351 15 35.78563618953693 0.7946479495060206 2.2592291168415093 0 0 0
2357 11 38.53837743488593 0.7946479495060206 2.2592291168415093 0 0 0
2564 13 37.16200681221176 3.1785917980240175 2.2592291168415093 0 0 0
2570 9 39.91474805756076 3.1785917980240175 2.2592291168415093 0 0 0
2567 15 35.78563618953693 5.562535646542017 2.2592291168415093 0 0 0
2573 11 38.53837743488593 5.562535646542017 2.2592291168415093 0 0 0
2364 16 41.29111868023493 0.7946479495060206 0.02204498998461672 0 0 0
2370 12 44.04385992558393 0.7946479495060206 0.02204498998461672 0 0 0
2575 3 41.29111868023519 2.383943848517956 1.1406205273880112 0 0 0
2581 1 44.043859925584194 2.383943848517956 1.1406205273880112 0 0 0
2577 14 42.66748930290976 3.1785917980240175 0.02204498998461658 0 0 0
2583 10 45.42023054825876 3.1785917980240175 0.02204498998461661 0 0 0
2580 16 41.29111868023493 5.562535646542017 0.022044989984616903 0 0 0
2578 4 42.66748930290943 4.767887697035953 1.1406205273880115 0 0 0
2586 12 44.04385992558393 5.562535646542017 0.022044989984616903 0 0 0
2584 2 45.42023054825843 4.767887697035953 1.1406205273880112 0 0 0
2363 15 41.29111868023493 0.7946479495060206 2.2592291168415093 0 0 0
2369 11 44.04385992558393 0.7946479495060206 2.2592291168415093 0 0 0
2576 13 42.66748930290976 3.1785917980240175 2.2592291168415093 0 0 0
2582 9 45.42023054825876 3.1785917980240175 2.2592291168415093 0 0 0
2579 15 41.29111868023493 5.562535646542017 2.2592291168415093 0 0 0
2585 11 44.04385992558393 5.562535646542017 2.2592291168415093 0 0 0
2376 16 46.79660117093293 0.7946479495060206 0.02204498998461672 0 0 0
2166 12 49.54934241628193 0.7946479495060206 0.022044989984616715 -1 0 0
2172 16 52.30208366163093 0.7946479495060206 0.022044989984616715 -1 0 0
2587 3 46.796601170933194 2.383943848517956 1.1406205273880112 0 0 0
2377 1 49.549342416282194 2.383943848517956 1.1406205273880112 -1 0 0
2383 3 52.302083661631194 2.383943848517956 1.1406205273880112 -1 0 0
2589 14 48.17297179360776 3.1785917980240175 0.022044989984616584 0 0 0
2379 10 50.92571303895676 3.1785917980240175 0.022044989984616584 -1 0 0
2592 16 46.79660117093293 5.562535646542017 0.022044989984616903 0 0 0
2590 4 48.17297179360743 4.767887697035953 1.1406205273880115 0 0 0
2382 12 49.54934241628193 5.562535646542017 0.02204498998461691 -1 0 0
2380 2 50.92571303895643 4.767887697035953 1.1406205273880115 -1 0 0
2388 16 52.30208366163093 5.562535646542017 0.022044989984616906 -1 0 0
2375 15 46.79660117093293 0.7946479495060206 2.2592291168415093 0 0 0
2165 11 49.54934241628193 0.7946479495060206 2.2592291168415093 -1 0 0
2171 15 52.30208366163093 0.7946479495060206 2.2592291168415093 -1 0 0
2588 13 48.17297179360776 3.1785917980240175 2.2592291168415093 0 0 0
2378 9 50.92571303895676 3.1785917980240175 2.2592291168415093 -1 0 0
2591 15 46.79660117093293 5.562535646542017 2.2592291168415093 0 0 0
2381 11 49.54934241628193 5.562535646542017 2.2592291168415093 -1 0 0
2387 15 52.30208366163093 5.562535646542017 2.2592291168415093 -1 0 0
2178 12 55.05482490697993 0.7946479495060206 0.02204498998461671 -1 0 0
2184 16 57.80756615232893 0.7946479495060206 0.022044989984616715 -1 0 0
2389 1 55.054824906980194 2.383943848517956 1.1406205273880112 -1 0 0
2395 3 57.807566152329194 2.383943848517956 1.1406205273880112 -1 0 0
2385 14 53.67845428430576 3.1785917980240175 0.022044989984616584 -1 0 0
2391 10 56.43119552965476 3.1785917980240175 0.022044989984616584 -1 0 0
2386 4 53.67845428430543 4.767887697035953 1.1406205273880115 -1 0 0
2394 12 55.05482490697993 5.562535646542017 0.022044989984616906 -1 0 0
2392 2 56.43119552965443 4.767887697035953 1.1406205273880115 -1 0 0
2400 16 57.80756615232893 5.562535646542017 0.022044989984616906 -1 0 0
2177 11 55.05482490697993 0.7946479495060206 2.2592291168415093 -1 0 0
2183 15 57.80756615232893 0.7946479495060206 2.2592291168415093 -1 0 0
2384 13 53.67845428430576 3.1785917980240175 2.2592291168415093 -1 0 0
2390 9 56.43119552965476 3.1785917980240175 2.2592291168415093 -1 0 0
2393 11 55.05482490697993 5.562535646542017 2.2592291168415093 -1 0 0
2399 15 57.80756615232893 5.562535646542017 2.2592291168415093 -1 0 0
2190 12 60.56030739767793 0.7946479495060206 0.02204498998461671 -1 0 0
2196 16 63.31304864302694 0.7946479495060202 0.0220449899846173 -1 0 0
2401 1 60.560307397678194 2.383943848517956 1.1406205273880112 -1 0 0
2407 3 63.313048643027194 2.3839438485179563 1.1406205273880112 -1 0 0
2397 14 59.18393677500376 3.1785917980240175 0.022044989984616584 -1 0 0
2403 10 61.93667802035276 3.1785917980240175 0.022044989984616584 -1 0 0
2398 4 59.18393677500343 4.767887697035953 1.1406205273880115 -1 0 0
2406 12 60.56030739767793 5.562535646542017 0.022044989984616906 -1 0 0
2404 2 61.93667802035243 4.767887697035953 1.1406205273880115 -1 0 0
2412 16 63.31304864302694 5.562535646542017 0.02204498998461749 -1 0 0
2189 11 60.56030739767793 0.7946479495060206 2.2592291168415093 -1 0 0
2195 15 63.31304864302694 0.7946479495060202 2.259229116841509 -1 0 0
2396 13 59.18393677500376 3.1785917980240175 2.2592291168415093 -1 0 0
2402 9 61.93667802035276 3.1785917980240175 2.2592291168415093 -1 0 0
2405 11 60.56030739767793 5.562535646542017 2.2592291168415093 -1 0 0
2411 15 63.31304864302694 5.562535646542017 2.2592291168415084 -1 0 0
2202 12 66.06578988837593 0.7946479495060206 0.022044989984616712 -1 0 0
2208 16 68.81853113372493 0.7946479495060206 0.022044989984616715 -1 0 0
2413 1 66.06578988837619 2.383943848517956 1.1406205273880112 -1 0 0
2419 3 68.81853113372519 2.383943848517956 1.1406205273880112 -1 0 0
2409 14 64.68941926570176 3.1785917980240175 0.022044989984616584 -1 0 0
2415 10 67.44216051105076 3.1785917980240175 0.022044989984616584 -1 0 0
2410 4 64.68941926570143 4.767887697035953 1.1406205273880115 -1 0 0
2418 12 66.06578988837593 5.562535646542017 0.022044989984616896 -1 0 0
2416 2 67.44216051105043 4.767887697035953 1.1406205273880115 -1 0 0
2424 16 68.81853113372493 5.562535646542017 0.022044989984616896 -1 0 0
2201 11 66.06578988837593 0.7946479495060206 2.2592291168415093 -1 0 0
2207 15 68.81853113372493 0.7946479495060206 2.2592291168415093 -1 0 0
2408 13 64.68941926570176 3.1785917980240175 2.2592291168415093 -1 0 0
2414 9 67.44216051105076 3.1785917980240175 2.2592291168415093 -1 0 0
2417 11 66.06578988837593 5.562535646542017 2.2592291168415093 -1 0 0
2423 15 68.81853113372493 5.562535646542017 2.2592291168415093 -1 0 0
2214 12 71.57127237907393 0.7946479495060206 0.022044989984616712 -1 0 0
2220 16 74.32401362442293 0.7946479495060206 0.02204498998461672 -1 0 0
2425 1 71.57127237907419 2.383943848517956 1.1406205273880112 -1 0 0
2431 3 74.32401362442319 2.383943848517956 1.1406205273880112 -1 0 0
2421 14 70.19490175639976 3.1785917980240175 0.022044989984616584 -1 0 0
2427 10 72.94764300174876 3.1785917980240175 0.022044989984616584 -1 0 0
2433 14 75.70038424709776 3.1785917980240175 0.022044989984616615 -1 0 0
2422 4 70.19490175639943 4.767887697035953 1.1406205273880115 -1 0 0
2430 12 71.57127237907393 5.562535646542017 0.022044989984616896 -1 0 0
2428 2 72.94764300174843 4.767887697035953 1.1406205273880115 -1 0 0
2436 16 74.32401362442293 5.562535646542017 0.022044989984616892 -1 0 0
2434 4 75.70038424709743 4.767887697035953 1.1406205273880112 -1 0 0
2213 11 71.57127237907393 0.7946479495060206 2.2592291168415093 -1 0 0
2219 15 74.32401362442293 0.7946479495060206 2.2592291168415093 -1 0 0
2420 13 70.19490175639976 3.1785917980240175 2.2592291168415093 -1 0 0
2426 9 72.94764300174876 3.1785917980240175 2.2592291168415093 -1 0 0
2432 13 75.70038424709776 3.1785917980240175 2.2592291168415093 -1 0 0
2429 11 71.57127237907393 5.562535646542017 2.2592291168415093 -1 0 0
2435 15 74.32401362442293 5.562535646542017 2.2592291168415093 -1 0 0
2226 12 77.07675486977193 0.7946479495060206 0.02204498998461672 -1 0 0
2232 16 79.82949611512093 0.7946479495060206 0.022044989984616715 -1 0 0
2437 1 77.07675486977219 2.383943848517956 1.1406205273880112 -1 0 0
2443 3 79.82949611512119 2.383943848517956 1.1406205273880112 -1 0 0
2439 10 78.45312549244676 3.1785917980240175 0.02204498998461658 -1 0 0
2445 14 81.20586673779576 3.1785917980240175 0.02204498998461665 -1 0 0
2442 12 77.07675486977193 5.562535646542017 0.022044989984616892 -1 0 0
2440 2 78.45312549244643 4.767887697035953 1.1406205273880115 -1 0 0
2448 16 79.82949611512093 5.562535646542017 0.022044989984616917 -1 0 0
2446 4 81.20586673779543 4.767887697035953 1.1406205273880112 -1 0 0
2225 11 77.07675486977193 0.7946479495060206 2.2592291168415093 -1 0 0
2231 15 79.82949611512093 0.7946479495060206 2.2592291168415093 -1 0 0
2438 9 78.45312549244676 3.1785917980240175 2.2592291168415093 -1 0 0
2444 13 81.20586673779576 3.1785917980240175 2.2592291168415093 -1 0 0
2441 11 77.07675486977193 5.562535646542017 2.2592291168415093 -1 0 0
2447 15 79.82949611512093 5.562535646542017 2.2592291168415093 -1 0 0
2238 12 82.58223736046993 0.7946479495060209 0.022044989984616244 -1 0 0
2244 16 85.33497860581893 0.7946479495060206 0.02204498998461671 -1 0 0
2449 1 82.58223736047019 2.383943848517956 1.1406205273880115 -1 0 0
2455 3 85.33497860581919 2.383943848517956 1.1406205273880112 -1 0 0
2451 10 83.95860798314476 3.1785917980240175 0.022044989984616594 -1 0 0
2457 14 86.71134922849376 3.1785917980240175 0.022044989984616615 -1 0 0
2454 12 82.58223736046993 5.562535646542018 0.022044989984616604 -1 0 0
2452 2 83.95860798314443 4.767887697035953 1.1406205273880115 -1 0 0
2460 16 85.33497860581893 5.562535646542017 0.02204498998461693 -1 0 0
2458 4 86.71134922849343 4.767887697035953 1.1406205273880112 -1 0 0
2237 11 82.58223736046993 0.794647949506021 2.2592291168415097 -1 0 0
2243 15 85.33497860581893 0.7946479495060206 2.2592291168415093 -1 0 0
2450 9 83.95860798314476 3.1785917980240175 2.2592291168415093 -1 0 0
2456 13 86.71134922849376 3.1785917980240175 2.2592291168415093 -1 0 0
2453 11 82.58223736046993 5.562535646542018 2.2592291168415093 -1 0 0
2459 15 85.33497860581893 5.562535646542017 2.2592291168415093 -1 0 0
2250 12 88.08771985116793 0.7946479495060206 0.022044989984616715 -1 0 0
2256 16 90.84046109651693 0.7946479495060206 0.022044989984616715 -1 0 0
2461 1 88.08771985116819 2.383943848517956 1.1406205273880112 -1 0 0
2467 3 90.84046109651719 2.383943848517956 1.1406205273880112 -1 0 0
2463 10 89.46409047384276 3.1785917980240175 0.02204498998461658 -1 0 0
2469 14 92.21683171919176 3.1785917980240175 0.022044989984616615 -1 0 0
2466 12 88.08771985116793 5.562535646542017 0.022044989984616906 -1 0 0
2464 2 89.46409047384243 4.767887697035953 1.1406205273880115 -1 0 0
2472 16 90.84046109651693 5.562535646542017 0.022044989984616906 -1 0 0
2470 4 92.21683171919143 4.767887697035953 1.1406205273880112 -1 0 0
2249 11 88.08771985116793 0.7946479495060206 2.2592291168415093 -1 0 0
2255 15 90.84046109651693 0.7946479495060206 2.2592291168415093 -1 0 0
2462 9 89.46409047384276 3.1785917980240175 2.2592291168415093 -1 0 0
2468 13 92.21683171919176 3.1785917980240175 2.2592291168415093 -1 0 0
2465 11 88.08771985116793 5.562535646542017 2.2592291168415093 -1 0 0
2471 15 90.84046109651693 5.562535646542017 2.2592291168415093 -1 0 0
2274 12 99.09868483256393 0.7946479495060204 0.022044989984616747 -1 0 0
2490 12 99.09868483256393 5.562535646542017 0.022044989984616837 -1 0 0
2273 11 99.09868483256393 0.7946479495060207 2.2592291168415097 -1 0 0
2489 11 99.09868483256393 5.562535646542017 2.2592291168415097 -1 0 0
2262 12 93.59320234186593 0.7946479495060206 0.022044989984616715 -1 0 0
2268 16 96.34594358721493 0.7946479495060206 0.022044989984616705 -1 0 0
2473 1 93.59320234186619 2.383943848517956 1.1406205273880112 -1 0 0
2479 3 96.34594358721519 2.383943848517956 1.1406205273880112 -1 0 0
2475 10 94.96957296454076 3.1785917980240175 0.02204498998461658 -1 0 0
2481 14 97.72231420988976 3.1785917980240175 0.022044989984616584 -1 0 0
2478 12 93.59320234186593 5.562535646542017 0.022044989984616906 -1 0 0
2476 2 94.96957296454043 4.767887697035953 1.1406205273880115 -1 0 0
2484 16 96.34594358721493 5.562535646542017 0.02204498998461689 -1 0 0
2482 4 97.72231420988943 4.767887697035953 1.1406205273880108 -1 0 0
2261 11 93.59320234186593 0.7946479495060206 2.2592291168415093 -1 0 0
2267 15 96.34594358721493 0.7946479495060206 2.2592291168415093 -1 0 0
2474 9 94.96957296454076 3.1785917980240175 2.2592291168415093 -1 0 0
2480 13 97.72231420988976 3.1785917980240175 2.2592291168415093 -1 0 0
2477 11 93.59320234186593 5.562535646542017 2.2592291168415093 -1 0 0
2483 15 96.34594358721493 5.562535646542017 2.2592291168415093 -1 0 0
2701 1 1.894136745246217e-13 7.151831545553954 1.1406205273880117 0 0 0
2707 3 2.7527412453491897 7.151831545553954 1.1406205273880115 0 0 0
2713 1 5.50548249069819 7.151831545553954 1.1406205273880115 0 0 0
2703 10 1.3763706226747578 7.946479495060018 0.022044989984616747 0 0 0
2709 14 4.129111868023758 7.946479495060018 0.022044989984616768 0 0 0
2704 2 1.3763706226744248 9.535775394071955 1.1406205273880115 0 0 0
2710 4 4.129111868023425 9.535775394071955 1.1406205273880115 0 0 0
2712 16 2.75274124534893 10.330423343578019 0.022044989984616938 0 0 0
2718 12 5.50548249069793 10.330423343578019 0.022044989984616924 0 0 0
2702 9 1.3763706226747578 7.946479495060018 2.2592291168415093 0 0 0
2708 13 4.129111868023758 7.946479495060018 2.2592291168415093 0 0 0
2711 15 2.75274124534893 10.330423343578019 2.2592291168415093 0 0 0
2717 11 5.50548249069793 10.330423343578019 2.2592291168415093 0 0 0
2719 3 8.25822373604719 7.151831545553954 1.1406205273880115 0 0 0
2725 1 11.01096498139619 7.151831545553954 1.1406205273880115 0 0 0
2715 10 6.881853113372758 7.946479495060018 0.022044989984616778 0 0 0
2721 14 9.634594358721758 7.946479495060018 0.022044989984616778 0 0 0
2716 2 6.881853113372425 9.535775394071955 1.1406205273880115 0 0 0
2722 4 9.634594358721426 9.535775394071955 1.1406205273880115 0 0 0
2724 16 8.258223736046931 10.330423343578019 0.022044989984616924 0 0 0
2730 12 11.010964981395931 10.330423343578019 0.022044989984616892 0 0 0
2714 9 6.881853113372758 7.946479495060018 2.2592291168415093 0 0 0
2720 13 9.634594358721758 7.946479495060018 2.2592291168415093 0 0 0
2723 15 8.258223736046931 10.330423343578019 2.2592291168415093 0 0 0
2729 11 11.010964981395931 10.330423343578019 2.2592291168415093 0 0 0
2731 3 13.76370622674519 7.151831545553954 1.1406205273880115 0 0 0
2737 1 16.516447472094193 7.1518315455539545 1.1406205273880115 0 0 0
2727 10 12.387335604070758 7.946479495060018 0.022044989984616722 0 0 0
2733 14 15.140076849419758 7.946479495060018 0.02204498998461681 0 0 0
2728 2 12.387335604070426 9.535775394071955 1.1406205273880115 0 0 0
2734 4 15.140076849419428 9.535775394071955 1.1406205273880115 0 0 0
2736 16 13.763706226744931 10.330423343578019 0.02204498998461683 0 0 0
2742 12 16.516447472093933 10.330423343578019 0.022044989984616896 0 0 0
2726 9 12.387335604070758 7.946479495060018 2.2592291168415093 0 0 0
2732 13 15.140076849419758 7.946479495060018 2.2592291168415093 0 0 0
2735 15 13.763706226744931 10.330423343578019 2.2592291168415093 0 0 0
2741 11 16.516447472093933 10.330423343578019 2.2592291168415093 0 0 0
2743 3 19.269188717443193 7.151831545553954 1.1406205273880115 0 0 0
2749 1 22.021929962792193 7.151831545553954 1.1406205273880115 0 0 0
2739 10 17.89281809476876 7.946479495060018 0.02204498998461675 0 0 0
2745 14 20.64555934011776 7.946479495060018 0.022044989984616778 0 0 0
2740 2 17.89281809476843 9.535775394071955 1.1406205273880115 0 0 0
2746 4 20.64555934011743 9.535775394071955 1.1406205273880115 0 0 0
2748 16 19.269188717442933 10.330423343578019 0.022044989984616802 0 0 0
2754 12 22.021929962791933 10.330423343578019 0.0220449899846168 0 0 0
2738 9 17.89281809476876 7.946479495060018 2.2592291168415093 0 0 0
2744 13 20.64555934011776 7.946479495060018 2.2592291168415093 0 0 0
2747 15 19.269188717442933 10.330423343578019 2.2592291168415093 0 0 0
2753 11 22.021929962791933 10.330423343578019 2.2592291168415093 0 0 0
2755 3 24.774671208141193 7.151831545553954 1.1406205273880115 0 0 0
2761 1 27.527412453490193 7.151831545553954 1.1406205273880115 0 0 0
2751 10 23.39830058546676 7.946479495060018 0.022044989984616778 0 0 0
2757 14 26.15104183081576 7.946479495060018 0.022044989984616778 0 0 0
2763 10 28.90378307616476 7.946479495060018 0.022044989984616774 0 0 0
2752 2 23.39830058546643 9.535775394071955 1.1406205273880115 0 0 0
2758 4 26.15104183081543 9.535775394071955 1.1406205273880115 0 0 0
2764 2 28.90378307616443 9.535775394071955 1.1406205273880115 0 0 0
2760 16 24.774671208140933 10.330423343578019 0.022044989984616802 0 0 0
2766 12 27.527412453489934 10.330423343578019 0.022044989984616802 0 0 0
2750 9 23.39830058546676 7.946479495060018 2.2592291168415093 0 0 0
2756 13 26.15104183081576 7.946479495060018 2.2592291168415093 0 0 0
2762 9 28.90378307616476 7.946479495060018 2.2592291168415093 0 0 0
2759 15 24.774671208140933 10.330423343578019 2.2592291168415093 0 0 0
2765 11 27.527412453489934 10.330423343578019 2.2592291168415093 0 0 0
2767 3 30.280153698839193 7.151831545553954 1.1406205273880115 0 0 0
2773 1 33.03289494418819 7.151831545553954 1.1406205273880115 0 0 0
2769 14 31.65652432151376 7.946479495060018 0.022044989984616566 0 0 0
2775 10 34.40926556686276 7.946479495060018 0.02204498998461683 0 0 0
2770 4 31.65652432151343 9.535775394071955 1.1406205273880115 0 0 0
2776 2 34.40926556686243 9.535775394071955 1.1406205273880115 0 0 0
2772 16 30.280153698838934 10.330423343578019 0.022044989984616802 0 0 0
2778 12 33.03289494418793 10.330423343578019 0.022044989984616594 0 0 0
2768 13 31.65652432151376 7.946479495060018 2.2592291168415093 0 0 0
2774 9 34.40926556686276 7.946479495060018 2.2592291168415093 0 0 0
2771 15 30.280153698838934 10.330423343578019 2.2592291168415093 0 0 0
2777 11 33.03289494418793 10.330423343578019 2.2592291168415093 0 0 0
2779 3 35.78563618953719 7.151831545553954 1.1406205273880115 0 0 0
2785 1 38.53837743488619 7.151831545553954 1.1406205273880115 0 0 0
2781 14 37.16200681221176 7.946479495060018 0.022044989984616778 0 0 0
2787 10 39.91474805756076 7.946479495060018 0.022044989984616774 0 0 0
2782 4 37.16200681221143 9.535775394071955 1.1406205273880115 0 0 0
2788 2 39.91474805756043 9.535775394071955 1.1406205273880115 0 0 0
2784 16 35.78563618953693 10.330423343578019 0.022044989984616802 0 0 0
2790 12 38.53837743488593 10.330423343578019 0.022044989984616802 0 0 0
2780 13 37.16200681221176 7.946479495060018 2.2592291168415093 0 0 0
2786 9 39.91474805756076 7.946479495060018 2.2592291168415093 0 0 0
2783 15 35.78563618953693 10.330423343578019 2.2592291168415093 0 0 0
2789 11 38.53837743488593 10.330423343578019 2.2592291168415093 0 0 0
2791 3 41.29111868023519 7.151831545553954 1.1406205273880115 0 0 0
2797 1 44.043859925584194 7.151831545553954 1.1406205273880115 0 0 0
2793 14 42.66748930290976 7.946479495060018 0.022044989984616778 0 0 0
2799 10 45.42023054825876 7.946479495060018 0.022044989984616774 0 0 0
2794 4 42.66748930290943 9.535775394071955 1.1406205273880115 0 0 0
2800 2 45.42023054825843 9.535775394071955 1.1406205273880115 0 0 0
2796 16 41.29111868023493 10.330423343578019 0.022044989984616802 0 0 0
2802 12 44.04385992558393 10.330423343578019 0.022044989984616802 0 0 0
2792 13 42.66748930290976 7.946479495060018 2.2592291168415093 0 0 0
2798 9 45.42023054825876 7.946479495060018 2.2592291168415093 0 0 0
2795 15 41.29111868023493 10.330423343578019 2.2592291168415093 0 0 0
2801 11 44.04385992558393 10.330423343578019 2.2592291168415093 0 0 0
2803 3 46.796601170933194 7.151831545553954 1.1406205273880115 0 0 0
2593 1 49.549342416282194 7.151831545553954 1.1406205273880115 -1 0 0
2599 3 52.302083661631194 7.151831545553954 1.1406205273880115 -1 0 0
2805 14 48.17297179360776 7.946479495060018 0.022044989984616778 0 0 0
2595 10 50.92571303895676 7.946479495060018 0.022044989984616778 -1 0 0
2806 4 48.17297179360743 9.535775394071955 1.1406205273880115 0 0 0
2596 2 50.92571303895643 9.535775394071955 1.1406205273880115 -1 0 0
2808 16 46.79660117093293 10.330423343578019 0.022044989984616802 0 0 0
2598 12 49.54934241628193 10.330423343578019 0.022044989984616802 -1 0 0
2604 16 52.30208366163093 10.330423343578019 0.0220449899846168 -1 0 0
2804 13 48.17297179360776 7.946479495060018 2.2592291168415093 0 0 0
2594 9 50.92571303895676 7.946479495060018 2.2592291168415093 -1 0 0
2807 15 46.79660117093293 10.330423343578019 2.2592291168415093 0 0 0
2597 11 49.54934241628193 10.330423343578019 2.2592291168415093 -1 0 0
2603 15 52.30208366163093 10.330423343578019 2.2592291168415093 -1 0 0
2605 1 55.054824906980194 7.151831545553954 1.1406205273880115 -1 0 0
2611 3 57.807566152329194 7.151831545553954 1.1406205273880115 -1 0 0
2601 14 53.67845428430576 7.946479495060018 0.022044989984616778 -1 0 0
2607 10 56.43119552965476 7.946479495060018 0.022044989984616778 -1 0 0
2602 4 53.67845428430543 9.535775394071955 1.1406205273880115 -1 0 0
2608 2 56.43119552965443 9.535775394071955 1.1406205273880115 -1 0 0
2610 12 55.05482490697993 10.330423343578019 0.022044989984616802 -1 0 0
2616 16 57.80756615232893 10.330423343578019 0.0220449899846168 -1 0 0
2600 13 53.67845428430576 7.946479495060018 2.2592291168415093 -1 0 0
2606 9 56.43119552965476 7.946479495060018 2.2592291168415093 -1 0 0
2609 11 55.05482490697993 10.330423343578019 2.2592291168415093 -1 0 0
2615 15 57.80756615232893 10.330423343578019 2.2592291168415093 -1 0 0
2617 1 60.560307397678194 7.151831545553954 1.1406205273880115 -1 0 0
2623 3 63.313048643027194 7.1518315455539545 1.1406205273880115 -1 0 0
2613 14 59.18393677500376 7.946479495060018 0.022044989984616778 -1 0 0
2619 10 61.93667802035276 7.946479495060018 0.022044989984616778 -1 0 0
2614 4 59.18393677500343 9.535775394071955 1.1406205273880115 -1 0 0