LAMMPS data file via write_data, version 29 Aug 2024, timestep = 103, units = metal

6912 atoms
24 atom types

0 100.93711714192 xlo xhi
0 98.340871083372 ylo yhi
-50 50 zlo zhi

Masses

1 55.845
2 55.845
3 55.845
4 55.845
5 55.845
6 55.845
7 55.845
8 55.845
9 32.06
10 32.06
11 32.06
12 32.06
13 32.06
14 32.06
15 32.06
16 32.06
17 32.06
18 32.06
19 32.06
20 32.06
21 32.06
22 32.06
23 32.06
24 32.06

Atoms # atomic

1827 2 2.4376680587233066 1.2554050780493715 0.11375571372094263 0 0 0
1825 13 1.5715869432295657 0.1690197451074815 1.6994045513070983 0 0 0
1831 15 3.233015031922825 0.8482332026695231 2.1461230355993304 0 0 0
1833 10 3.1428660497699674 1.0713815412136254 2.2084699740709453 0 0 0
1828 14 1.5712547954331058 2.8178381056087733 1.762012996586156 0 0 0
1834 16 4.986724189303242 2.4142194908856593 0.9900316573678054 0 0 0
1830 4 0.5961104193809007 1.5517237038590075 0.21401193360070617 0 0 0
1836 12 3.290649154128181 3.7758166754549918 1.6627804393822887 0 0 0
2017 13 1.5715869432297416 5.632401471961461 1.6994045513069818 0 0 0
1832 9 4.913133215436986 0.5693463499853368 2.1392017368194316 0 0 0
1835 11 3.2493312826199072 3.717023755951914 1.6389873831934825 0 0 0
1837 13 7.880156764599607 0.16901974510728646 1.6994045513073026 0 0 0
1839 2 8.746237880093165 1.2554050780491715 0.11375571372098478 0 0 0
1843 15 9.541584853293001 0.8482332026693202 2.1461230355992362 0 0 0
1845 10 9.451435871140331 1.0713815412136893 2.2084699740708227 0 0 0
1840 14 7.879824616803106 2.8178381056085877 1.7620129965863505 0 0 0
1846 16 11.295294010673171 2.41421949088578 0.9900316573677229 0 0 0
1842 4 6.90468024075096 1.5517237038588083 0.21401193360083348 0 0 0
1848 12 9.599218975498006 3.7758166754548945 1.662780439382331 0 0 0
2029 13 7.880156764599704 5.632401471961313 1.6994045513071416 0 0 0
1844 9 11.221703036806838 0.569346349985253 2.1392017368196496 0 0 0
1841 3 6.124873256694283 4.225228013552237 1.6334141463760612 0 0 0
1847 11 9.557901103989671 3.717023755951744 1.6389873831935085 0 0 0
1849 13 14.188726585969532 0.16901974510747048 1.699404551307209 0 0 0
1851 2 15.054807701463314 1.2554050780491304 0.11375571372099191 0 0 0
1855 15 15.850154674662646 0.8482332026694455 2.146123035599478 0 0 0
1857 10 15.760005692510155 1.0713815412133914 2.2084699740709275 0 0 0
1852 14 14.188394438173024 2.8178381056087676 1.7620129965862297 0 0 0
1858 16 17.60386383204317 2.414219490885636 0.9900316573678462 0 0 0
1854 4 13.213250062120862 1.5517237038589744 0.21401193360071108 0 0 0
1860 12 15.907788796868035 3.775816675454873 1.66278043938237 0 0 0
2041 13 14.188726585969583 5.632401471961461 1.6994045513070537 0 0 0
1856 9 17.5302728581769 0.5693463499852309 2.139201736819594 0 0 0
1853 3 12.433443078064176 4.225228013552338 1.6334141463759748 0 0 0
1859 11 15.866470925359717 3.7170237559517396 1.6389873831936117 0 0 0
1861 13 20.49729640733955 0.1690197451072415 1.6994045513074139 0 0 0
1863 2 21.363377522832998 1.2554050780490886 0.11375571372072044 0 0 0
1867 15 22.158724496032814 0.8482332026692949 2.146123035598982 0 0 0
1869 10 22.068575513880376 1.0713815412136514 2.208469974070486 0 0 0
1864 14 20.49696425954304 2.817838105608571 1.7620129965864484 0 0 0
1866 4 19.52181988349085 1.5517237038587695 0.21401193360092052 0 0 0
1872 12 22.21635861823794 3.775816675454842 1.6627804393822903 0 0 0
2053 13 20.49729640733959 5.632401471961318 1.699404551307189 0 0 0
1865 3 18.742012899434222 4.225228013552244 1.6334141463761431 0 0 0
1871 11 22.175040746729604 3.7170237559516797 1.638987383193486 0 0 0
1870 16 23.91243365341309 2.414219490885768 0.9900316573677753 0 0 0
1868 9 23.838842679546733 0.5693463499852537 2.1392017368197878 0 0 0
1873 13 26.805866228709437 0.16901974510741508 1.699404551307263 0 0 0
1875 2 27.671947344203044 1.2554050780491182 0.11375571372081361 0 0 0
1879 15 28.46729431740315 0.8482332026697637 2.14612303559906 0 0 0
1876 14 26.805534080912985 2.817838105608685 1.7620129965863167 0 0 0
1878 4 25.83038970486078 1.551723703858937 0.21401193360078363 0 0 0
1884 12 28.52492843960798 3.775816675454767 1.662780439382279 0 0 0
2065 13 26.805866228709554 5.632401471961417 1.6994045513071308 0 0 0
1877 3 25.050582720804137 4.225228013552344 1.6334141463760912 0 0 0
1883 11 28.483610568099618 3.717023755951582 1.6389873831935151 0 0 0
1881 10 28.377145335250447 1.0713815412137289 2.2084699740705878 0 0 0
1885 13 33.114436050079426 0.16901974510745363 1.6994045513072678 0 0 0
1887 2 33.98051716557334 1.2554050780490154 0.11375571372128997 0 0 0
1891 15 34.775864138772675 0.8482332026696672 2.146123035599826 0 0 0
1882 16 30.221003474783068 2.414219490885757 0.9900316573677809 0 0 0
1888 14 33.11410390228294 2.817838105608709 1.7620129965863047 0 0 0
1890 4 32.13895952623079 1.5517237038589555 0.21401193360076556 0 0 0
1896 12 34.83349826097799 3.7758166754547964 1.6627804393824102 0 0 0
2077 13 33.114436050079526 5.632401471961426 1.699404551307091 0 0 0
1880 9 30.14741250091671 0.5693463499851816 2.139201736819725 0 0 0
1889 3 31.3591525421741 4.225228013552339 1.6334141463760594 0 0 0
1895 11 34.79218038946963 3.7170237559516153 1.6389873831936799 0 0 0
1893 10 34.68571515662031 1.0713815412134124 2.2084699740711784 0 0 0
1897 13 39.42300587144953 0.1690197451073966 1.699404551307265 0 0 0
1899 2 40.28908698694335 1.255405078049224 0.11375571372125652 0 0 0
1903 15 41.08443396014253 0.848233202669376 2.146123035599761 0 0 0
1894 16 36.52957329615316 2.4142194908856736 0.990031657367769 0 0 0
1900 14 39.42267372365301 2.8178381056086814 1.7620129965862679 0 0 0
1902 4 38.44752934760088 1.5517237038588925 0.2140119336007523 0 0 0
1908 12 41.14206808234799 3.775816675454916 1.6627804393824688 0 0 0
2089 13 39.423005871449554 5.632401471961406 1.6994045513071456 0 0 0
1892 9 36.455982322286864 0.569346349985292 2.1392017368195058 0 0 0
1901 3 37.667722363544186 4.225228013552274 1.6334141463760297 0 0 0
1907 11 41.100750210839635 3.717023755951764 1.6389873831936927 0 0 0
1905 10 40.99428497799015 1.0713815412135008 2.2084699740712015 0 0 0
1909 13 45.7315756928196 0.1690197451073625 1.699404551307281 0 0 0
1911 2 46.59765680831341 1.2554050780491404 0.11375571372134288 0 0 0
1915 15 47.39300378151259 0.8482332026692712 2.146123035599855 0 0 0
1906 16 42.838143117523224 2.414219490885655 0.9900316573677345 0 0 0
1912 14 45.73124354502304 2.8178381056086446 1.7620129965863038 0 0 0
1914 4 44.75609916897097 1.5517237038588605 0.21401193360075932 0 0 0
1920 12 47.450637903717954 3.775816675454938 1.6627804393825147 0 0 0
2101 13 45.73157569281959 5.632401471961386 1.699404551307159 0 0 0
1904 9 42.76455214365693 0.5693463499852213 2.1392017368194054 0 0 0
1913 3 43.97629218491421 4.22522801355225 1.6334141463760232 0 0 0
1919 11 47.409320032209585 3.717023755951783 1.6389873831937343 0 0 0
1917 10 47.3028547993602 1.0713815412133996 2.2084699740713005 0 0 0
1729 13 52.040145514189604 0.1690197451073717 1.699404551307277 -1 0 0
1731 2 52.906226629683424 1.2554050780491233 0.11375571372144092 -1 0 0
1918 16 49.146712938893195 2.414219490885651 0.9900316573677022 0 0 0
1732 14 52.03981336639302 2.817838105608667 1.7620129965862816 -1 0 0
1734 4 51.064668990340934 1.5517237038588503 0.2140119336007383 -1 0 0
1921 13 52.04014551418957 5.632401471961382 1.6994045513071288 -1 0 0
1916 9 49.07312196502691 0.5693463499851712 2.1392017368194276 0 0 0
1733 3 50.28486200628415 4.22522801355225 1.6334141463759901 -1 0 0
1735 15 53.701573602882476 0.8482332026692017 2.1461230355999845 -1 0 0
1737 10 53.6114246207302 1.0713815412133334 2.208469974071392 -1 0 0
1741 13 58.34871533555961 0.16901974510738246 1.6994045513072804 -1 0 0
1743 2 59.21479645105344 1.255405078049127 0.11375571372147196 -1 0 0
1738 16 55.455282760263174 2.4142194908856847 0.990031657367743 -1 0 0
1744 14 58.34838318776302 2.817838105608668 1.7620129965862907 -1 0 0
1740 12 53.759207725087954 3.7758166754549287 1.6627804393825294 -1 0 0
1746 4 57.37323881171089 1.5517237038588745 0.21401193360075993 -1 0 0
1933 13 58.34871533555956 5.632401471961394 1.6994045513071145 -1 0 0
1736 9 55.381691786396914 0.5693463499851915 2.1392017368194374 -1 0 0
1739 11 53.71788985357958 3.7170237559517822 1.6389873831937514 -1 0 0
1745 3 56.593431827654136 4.225228013552264 1.6334141463760254 -1 0 0
1747 15 60.01014342425253 0.8482332026692678 2.1461230356000107 -1 0 0
1749 10 59.91999444210023 1.0713815412134071 2.208469974071423 -1 0 0
1753 13 64.65728515692955 0.16901974510737064 1.6994045513072666 -1 0 0
1750 16 61.76385258163316 2.4142194908856776 0.9900316573677542 -1 0 0
1756 14 64.65695300913298 2.8178381056086583 1.762012996586252 -1 0 0
1752 12 60.067777546458046 3.775816675454953 1.6627804393824788 -1 0 0
1758 4 63.681808633080905 1.5517237038588516 0.21401193360077195 -1 0 0
1945 13 64.65728515692959 5.6324014719613915 1.6994045513070095 -1 0 0
1748 9 61.69026160776689 0.5693463499851465 2.139201736819538 -1 0 0
1751 11 60.026459674949685 3.7170237559518022 1.638987383193692 -1 0 0
1757 3 62.902001649024214 4.225228013552247 1.6334141463759664 -1 0 0
1755 2 65.52336627242347 1.2554050780489883 0.11375571372139176 -1 0 0
1761 10 66.22856426347015 1.0713815412132408 2.2084699740713334 -1 0 0
1759 15 66.31871324562246 0.8482332026693896 2.1461230356000045 -1 0 0
1765 13 70.96585497829956 0.16901974510739684 1.6994045513072267 -1 0 0
1762 16 68.07242240300319 2.414219490885744 0.9900316573678228 -1 0 0
1768 14 70.96552283050306 2.817838105608659 1.7620129965862479 -1 0 0
1764 12 66.3763473678281 3.7758166754549047 1.6627804393823593 -1 0 0
1770 4 69.99037845445083 1.5517237038589073 0.2140119336007551 -1 0 0
1957 13 70.96585497829965 5.632401471961436 1.6994045513070832 -1 0 0
1760 9 67.99883142913693 0.5693463499854068 2.1392017368195293 -1 0 0
1763 11 66.33502949631982 3.7170237559517747 1.6389873831935926 -1 0 0
1769 3 69.21057147039419 4.225228013552318 1.6334141463760277 -1 0 0
1767 2 71.83193609379306 1.2554050780493982 0.11375571372091467 -1 0 0
1771 15 72.62728306699285 0.8482332026694436 2.146123035599157 -1 0 0
1773 10 72.53713408484012 1.0713815412138719 2.208469974070788 -1 0 0
1774 16 74.38099222437316 2.4142194908857513 0.9900316573677903 -1 0 0
1776 12 72.68491718919807 3.7758166754549047 1.6627804393823253 -1 0 0
1782 4 76.29894827582089 1.5517237038589196 0.21401193360078608 -1 0 0
1772 9 74.30740125050689 0.5693463499853126 2.1392017368196186 -1 0 0
1775 11 72.64359931768979 3.717023755951778 1.6389873831935036 -1 0 0
1781 3 75.51914129176421 4.22522801355229 1.633414146376011 -1 0 0
1777 13 77.27442479966952 0.16901974510743192 1.6994045513072638 -1 0 0
1969 13 77.27442479966957 5.632401471961413 1.6994045513069986 -1 0 0
1779 2 78.14050591516325 1.2554050780491377 0.11375571372119518 -1 0 0
1783 15 78.93585288836289 0.8482332026696013 2.1461230355995573 -1 0 0
1785 10 78.84570390621037 1.0713815412136973 2.2084699740710265 -1 0 0
1780 14 77.27409265187299 2.817838105608723 1.7620129965862859 -1 0 0
1786 16 80.68956204574313 2.414219490885852 0.9900316573677868 -1 0 0
1788 12 78.99348701056819 3.7758166754548412 1.6627804393822172 -1 0 0
1794 4 82.60751809719073 1.5517237038590264 0.21401193360065263 -1 0 0
1784 9 80.61597107187681 0.5693463499853757 2.1392017368196945 -1 0 0
1787 11 78.95216913905992 3.717023755951699 1.6389873831934305 -1 0 0
1793 3 81.82771111313417 4.225228013552379 1.6334141463759124 -1 0 0
1789 13 83.58299462103949 0.16901974510749035 1.6994045513070914 -1 0 0
1981 13 83.58299462103963 5.63240147196152 1.699404551306898 -1 0 0
1791 2 84.4490757365332 1.2554050780493597 0.11375571372109969 -1 0 0
1795 15 85.2444227097326 0.848233202669812 2.146123035599597 -1 0 0
1797 10 85.15427372758 1.0713815412137362 2.2084699740710834 -1 0 0
1792 14 83.58266247324302 2.8178381056087836 1.762012996586107 -1 0 0
1798 16 86.9981318671132 2.4142194908857184 0.990031657367878 -1 0 0
1800 12 85.30205683193823 3.7758166754548883 1.662780439382254 -1 0 0
1806 4 88.91608791856092 1.551723703858875 0.21401193360080326 -1 0 0
1796 9 86.92454089324703 0.5693463499855338 2.1392017368194316 -1 0 0
1799 11 85.26073896043 3.7170237559517907 1.6389873831934847 -1 0 0
1805 3 88.13628093450434 4.225228013552246 1.6334141463760448 -1 0 0
1801 13 89.89156444240957 0.16901974510737028 1.699404551307185 -1 0 0
1993 13 89.89156444240966 5.632401471961373 1.6994045513070637 -1 0 0
1803 2 90.75764555790325 1.2554050780492076 0.11375571372098879 -1 0 0
1807 15 91.55299253110326 0.8482332026695102 2.1461230355991967 -1 0 0
1809 10 91.46284354895023 1.0713815412137502 2.2084699740708684 -1 0 0
1804 14 89.8912322946131 2.817838105608678 1.762012996586235 -1 0 0
1810 16 93.3067016884831 2.414219490885853 0.9900316573677674 -1 0 0
1812 12 91.61062665330815 3.775816675454885 1.6627804393822785 -1 0 0
1808 9 93.23311071461681 0.5693463499853731 2.1392017368196936 -1 0 0
1811 11 91.56930878179986 3.717023755951762 1.6389873831934436 -1 0 0
1817 3 94.44485075587421 4.22522801355238 1.6334141463759075 -1 0 0
1829 3 100.75342057724428 4.225228013552328 1.6334141463759684 -1 0 0
1813 13 96.20013426377947 0.16901974510748255 1.6994045513070617 -1 0 0
1818 4 95.22465773993073 1.5517237038590246 0.2140119336006365 -1 0 0
2005 13 96.20013426377963 5.632401471961504 1.6994045513068587 -1 0 0
1815 2 97.06621537927325 1.2554050780493191 0.11375571372123441 -1 0 0
1819 15 97.86156235247286 0.8482332026699221 2.146123035599648 -1 0 0
1821 10 97.7714133703202 1.0713815412138155 2.2084699740711433 -1 0 0
1816 14 96.19980211598302 2.8178381056087916 1.762012996586088 -1 0 0
1822 16 99.61527150985323 2.414219490885814 0.9900316573678889 -1 0 0
1824 12 97.91919647467837 3.7758166754548825 1.6627804393821761 -1 0 0
1820 9 99.541680535987 0.569346349985573 2.139201736819473 -1 0 0
1823 11 97.87787860317016 3.7170237559517867 1.6389873831934028 -1 0 0
2023 15 3.233015031922976 6.311614929523418 2.1461230355996457 0 0 0
2019 2 2.437668058723629 6.718786804903412 0.11375571372121802 0 0 0
2025 10 3.1428660497698058 6.534763268067534 2.2084699740713636 0 0 0
2020 14 1.5712547954332494 8.281219832462737 1.7620129965860287 0 0 0
2026 16 4.986724189303344 7.877601217739618 0.9900316573678285 0 0 0
2022 4 0.5961104193809711 7.015105430712968 0.21401193360057688 0 0 0
2028 12 3.290649154128128 9.239198402309082 1.662780439382534 0 0 0
2209 13 1.5715869432297542 11.095783198815447 1.6994045513071019 0 0 0
2024 9 4.9131332154371155 6.032728076839427 2.139201736819264 0 0 0
2027 11 3.2493312826198593 9.180405482806037 1.6389873831937 0 0 0
2216 9 4.9131332154371465 11.49610980369337 2.1392017368191913 0 0 0
2035 15 9.541584853293237 6.311614929523384 2.146123035599461 0 0 0
2031 2 8.746237880093508 6.7187868049031785 0.11375571372115881 0 0 0
2037 10 9.451435871140129 6.534763268067553 2.208469974071149 0 0 0
2032 14 7.879824616803211 8.281219832462583 1.7620129965862066 0 0 0
2038 16 11.295294010673244 7.877601217739749 0.9900316573677805 0 0 0
2034 4 6.904680240751019 7.0151054307128495 0.21401193360069667 0 0 0
2040 12 9.599218975498015 9.239198402308972 1.6627804393824914 0 0 0
2221 13 7.8801567645997554 11.095783198815345 1.6994045513071772 0 0 0
2036 9 11.221703036806938 6.032728076839398 2.139201736819489 0 0 0
2033 3 6.124873256694305 9.688609740406223 1.6334141463760137 0 0 0
2039 11 9.557901103989696 9.18040548280584 1.6389873831936548 0 0 0
2228 9 11.221703036807012 11.496109803693392 2.139201736819391 0 0 0
2047 15 15.85015467466299 6.311614929523626 2.1461230355995786 0 0 0
2043 2 15.054807701463519 6.718786804903239 0.11375571372113087 0 0 0
2049 10 15.76000569251003 6.534763268067509 2.208469974071176 0 0 0
2044 14 14.188394438173116 8.281219832462732 1.7620129965861249 0 0 0
2050 16 17.60386383204324 7.877601217739664 0.9900316573678763 0 0 0
2046 4 13.213250062120885 7.015105430713007 0.21401193360060283 0 0 0
2052 12 15.907788796868047 9.239198402308931 1.6627804393824985 0 0 0
2233 13 14.18872658596965 11.095783198815473 1.699404551307101 0 0 0
2048 9 17.530272858177 6.032728076839359 2.139201736819412 0 0 0
2045 3 12.433443078064217 9.688609740406342 1.6334141463759853 0 0 0
2051 11 15.866470925359751 9.180405482805824 1.6389873831937158 0 0 0
2240 9 17.53027285817705 11.49610980369336 2.1392017368193366 0 0 0
2059 15 22.15872449603307 6.311614929523459 2.1461230355993126 0 0 0
2055 2 21.36337752283334 6.718786804903199 0.11375571372099832 0 0 0
2061 10 22.06857551388013 6.5347632680676195 2.20846997407095 0 0 0
2056 14 20.496964259543127 8.281219832462591 1.7620129965862592 0 0 0
2058 4 19.52181988349092 7.015105430712869 0.21401193360075635 0 0 0
2064 12 22.216358618237933 9.239198402308894 1.6627804393825107 0 0 0
2245 13 20.49729640733968 11.095783198815377 1.6994045513072205 0 0 0
2057 3 18.742012899434197 9.688609740406264 1.63341414637609 0 0 0
2063 11 22.175040746729607 9.180405482805751 1.6389873831937054 0 0 0
2071 15 28.46729431740315 6.311614929523713 2.1461230355993415 0 0 0
2062 16 23.912433653413196 7.877601217739698 0.9900316573678257 0 0 0
2060 9 23.838842679546918 6.032728076839374 2.139201736819556 0 0 0
2067 2 27.67194734420333 6.718786804903242 0.1137557137210221 0 0 0
2068 14 26.805534080913088 8.281219832462673 1.7620129965862013 0 0 0
2070 4 25.830389704860877 7.01510543071295 0.21401193360068393 0 0 0
2076 12 28.52492843960799 9.239198402308828 1.6627804393824828 0 0 0
2257 13 26.80586622870962 11.095783198815415 1.699404551307178 0 0 0
2069 3 25.050582720804194 9.6886097404063 1.6334141463760576 0 0 0
2075 11 28.48361056809965 9.180405482805668 1.6389873831936979 0 0 0
2073 10 28.37714533525021 6.534763268067745 2.208469974070962 0 0 0
2252 9 23.83884267954697 11.496109803693333 2.139201736819447 0 0 0
2083 15 34.77586413877325 6.311614929523738 2.1461230355995364 0 0 0
2079 2 33.980517165573495 6.71878680490315 0.11375571372117019 0 0 0
2074 16 30.221003474783185 7.877601217739704 0.9900316573678327 0 0 0
2080 14 33.11410390228308 8.281219832462687 1.7620129965861393 0 0 0
2082 4 32.13895952623085 7.015105430712951 0.21401193360065612 0 0 0
2088 12 34.83349826097805 9.239198402308872 1.662780439382446 0 0 0
2269 13 33.114436050079604 11.095783198815449 1.699404551307113 0 0 0
2072 9 30.14741250091691 6.032728076839413 2.1392017368195364 0 0 0
2081 3 31.35915254217417 9.688609740406307 1.6334141463760041 0 0 0
2087 11 34.79218038946971 9.180405482805748 1.6389873831936692 0 0 0
2085 10 34.68571515662016 6.5347632680675165 2.2084699740711455 0 0 0
2264 9 30.14741250091696 11.496109803693344 2.139201736819445 0 0 0
2095 15 41.08443396014297 6.3116149295235555 2.146123035599747 0 0 0
2091 2 40.289086986943474 6.71878680490316 0.11375571372131116 0 0 0
2086 16 36.5295732961532 7.877601217739723 0.990031657367857 0 0 0
2092 14 39.42267372365308 8.281219832462677 1.7620129965862261 0 0 0
2094 4 38.44752934760085 7.015105430712957 0.2140119336006947 0 0 0
2100 12 41.14206808234803 9.23919840230893 1.6627804393825012 0 0 0
2281 13 39.42300587144965 11.095783198815441 1.6994045513071077 0 0 0
2084 9 36.45598232228692 6.032728076839354 2.1392017368194653 0 0 0
2093 3 37.66772236354418 9.688609740406323 1.633414146376058 0 0 0
2099 11 41.1007502108397 9.180405482805806 1.6389873831937163 0 0 0
2097 10 40.99428497799008 6.534763268067457 2.208469974071306 0 0 0
2276 9 36.45598232228704 11.496109803693432 2.1392017368194027 0 0 0
2107 15 47.393003781513016 6.311614929523479 2.1461230355997216 0 0 0
2103 2 46.597656808313545 6.71878680490314 0.11375571372129198 0 0 0
2098 16 42.83814311752322 7.877601217739692 0.9900316573678187 0 0 0
2104 14 45.73124354502308 8.28121983246265 1.7620129965862348 0 0 0
2106 4 44.756099168970906 7.0151054307129295 0.2140119336006996 0 0 0
2112 12 47.45063790371803 9.23919840230892 1.6627804393824812 0 0 0
2293 13 45.73157569281964 11.095783198815425 1.6994045513071283 0 0 0
2096 9 42.764552143656964 6.032728076839341 2.139201736819424 0 0 0
2105 3 43.97629218491417 9.688609740406292 1.6334141463760439 0 0 0
2111 11 47.40932003220969 9.180405482805787 1.638987383193687 0 0 0
2109 10 47.302854799360134 6.534763268067431 2.2084699740712908 0 0 0
2288 9 42.76455214365703 11.496109803693397 2.139201736819387 0 0 0
1923 2 52.90622662968358 6.7187868049031385 0.1137557137213722 -1 0 0
2110 16 49.14671293889321 7.877601217739717 0.9900316573678017 0 0 0
1924 14 52.03981336639307 8.281219832462654 1.7620129965862155 -1 0 0
1926 4 51.064668990340856 7.015105430712934 0.2140119336006637 -1 0 0
2113 13 52.040145514189646 11.095783198815422 1.69940455130711 -1 0 0
2108 9 49.07312196502692 6.032728076839332 2.139201736819449 0 0 0
1925 3 50.28486200628418 9.688609740406296 1.633414146376029 -1 0 0
2300 9 49.073121965027035 11.496109803693399 2.1392017368193907 0 0 0
1927 15 53.701573602883 6.311614929523535 2.1461230355998206 -1 0 0
1929 10 53.61142462073013 6.534763268067457 2.208469974071376 -1 0 0
1935 2 59.21479645105353 6.718786804903261 0.11375571372136176 -1 0 0
1930 16 55.4552827602632 7.877601217739719 0.9900316573678143 -1 0 0
1936 14 58.34838318776306 8.281219832462678 1.7620129965861675 -1 0 0
1932 12 53.75920772508807 9.239198402308904 1.6627804393824954 -1 0 0
1938 4 57.37323881171085 7.015105430712943 0.2140119336006653 -1 0 0
2125 13 58.34871533555964 11.095783198815445 1.6994045513070402 -1 0 0
1928 9 55.381691786396935 6.032728076839365 2.13920173681947 -1 0 0
1931 11 53.71788985357972 9.180405482805789 1.6389873831937112 -1 0 0
1937 3 56.59343182765422 9.688609740406285 1.6334141463759888 -1 0 0
2120 9 55.381691786397035 11.496109803693427 2.139201736819376 -1 0 0
1939 15 60.01014342425285 6.311614929523668 2.146123035599871 -1 0 0
1941 10 59.91999444210011 6.5347632680675805 2.2084699740713907 -1 0 0
1942 16 61.76385258163324 7.87760121773972 0.9900316573678289 -1 0 0
1948 14 64.65695300913312 8.281219832462654 1.7620129965861016 -1 0 0
1944 12 60.06777754645819 9.239198402308963 1.6627804393823773 -1 0 0
1950 4 63.681808633080905 7.015105430712938 0.21401193360061185 -1 0 0
2137 13 64.65728515692973 11.095783198815402 1.6994045513070961 -1 0 0
1940 9 61.690261607767 6.032728076839409 2.1392017368193943 -1 0 0
1943 11 60.02645967494986 9.180405482805869 1.638987383193591 -1 0 0
1949 3 62.90200164902424 9.68860974040628 1.6334141463759702 -1 0 0
2132 9 61.69026160776711 11.496109803693455 2.139201736819225 -1 0 0
1951 15 66.318713245623 6.311614929523685 2.146123035599878 -1 0 0
1947 2 65.52336627242359 6.718786804903198 0.11375571372138873 -1 0 0
1953 10 66.22856426346996 6.5347632680674765 2.208469974071468 -1 0 0
1954 16 68.07242240300327 7.877601217739737 0.9900316573678238 -1 0 0
1960 14 70.96552283050316 8.281219832462703 1.7620129965861298 -1 0 0
1956 12 66.37634736782805 9.23919840230893 1.6627804393825156 -1 0 0
1962 4 69.99037845445089 7.015105430712964 0.2140119336006447 -1 0 0
2149 13 70.96585497829969 11.095783198815449 1.6994045513070974 -1 0 0
1952 9 67.99883142913704 6.032728076839444 2.1392017368193286 -1 0 0
1955 11 66.33502949631978 9.180405482805782 1.6389873831937116 -1 0 0
1961 3 69.21057147039417 9.688609740406292 1.6334141463759784 -1 0 0
2144 9 67.99883142913706 11.496109803693406 2.13920173681931 -1 0 0
1963 15 72.62728306699299 6.311614929523522 2.146123035599726 -1 0 0
1959 2 71.83193609379354 6.718786804903242 0.11375571372129831 -1 0 0
1965 10 72.53713408483998 6.534763268067521 2.2084699740713534 -1 0 0
1966 16 74.38099222437327 7.877601217739683 0.9900316573678324 -1 0 0
1968 12 72.68491718919806 9.239198402308958 1.6627804393825087 -1 0 0
1974 4 76.29894827582088 7.015105430712956 0.21401193360061155 -1 0 0
1964 9 74.307401250507 6.032728076839457 2.13920173681943 -1 0 0
1967 11 72.6435993176898 9.180405482805842 1.6389873831937076 -1 0 0
1973 3 75.51914129176424 9.688609740406314 1.6334141463759724 -1 0 0
2156 9 74.30740125050707 11.496109803693393 2.139201736819284 -1 0 0
1975 15 78.93585288836334 6.3116149295238095 2.1461230355997136 -1 0 0
2161 13 77.27442479966965 11.095783198815433 1.6994045513070533 -1 0 0
1971 2 78.14050591516353 6.718786804903222 0.11375571372138128 -1 0 0
1977 10 78.84570390621008 6.534763268067656 2.2084699740713796 -1 0 0
1972 14 77.27409265187313 8.281219832462671 1.7620129965860816 -1 0 0
1978 16 80.68956204574327 7.877601217739774 0.9900316573678346 -1 0 0
1980 12 78.99348701056813 9.239198402308926 1.6627804393824552 -1 0 0
1986 4 82.60751809719085 7.01510543071305 0.21401193360049617 -1 0 0
1976 9 80.61597107187704 6.032728076839525 2.1392017368193725 -1 0 0
1979 11 78.95216913905988 9.180405482805812 1.638987383193651 -1 0 0
1985 3 81.8277111131342 9.68860974040636 1.6334141463759062 -1 0 0
2168 9 80.61597107187706 11.496109803693457 2.1392017368192877 -1 0 0
1987 15 85.24442270973304 6.311614929523708 2.146123035599831 -1 0 0
2173 13 83.58299462103967 11.095783198815532 1.6994045513070517 -1 0 0
1983 2 84.4490757365337 6.718786804903329 0.11375571372134147 -1 0 0
1989 10 85.15427372757985 6.534763268067469 2.2084699740714906 -1 0 0
1984 14 83.58266247324318 8.281219832462794 1.7620129965859943 -1 0 0
1990 16 86.99813186711332 7.877601217739618 0.9900316573678586 -1 0 0
1992 12 85.30205683193813 9.239198402308975 1.6627804393825438 -1 0 0
1998 4 88.91608791856099 7.01510543071289 0.21401193360066822 -1 0 0
1988 9 86.92454089324711 6.032728076839507 2.139201736819267 -1 0 0
1991 11 85.26073896042986 9.180405482805904 1.6389873831937536 -1 0 0
1997 3 88.13628093450433 9.688609740406255 1.6334141463759873 -1 0 0
2180 9 86.9245408932471 11.496109803693393 2.1392017368191976 -1 0 0
1999 15 91.55299253110309 6.311614929523578 2.1461230355997216 -1 0 0
2185 13 89.89156444240967 11.095783198815381 1.699404551307119 -1 0 0
1995 2 90.75764555790354 6.718786804903315 0.11375571372135491 -1 0 0
2001 10 91.46284354895003 6.534763268067701 2.208469974071401 -1 0 0
1996 14 89.89123229461318 8.281219832462632 1.7620129965861215 -1 0 0
2002 16 93.30670168848327 7.877601217739795 0.9900316573678005 -1 0 0
2004 12 91.61062665330809 9.23919840230898 1.6627804393825127 -1 0 0
2000 9 93.23311071461701 6.032728076839516 2.1392017368194023 -1 0 0
2003 11 91.56930878179988 9.180405482805892 1.6389873831936832 -1 0 0
2009 3 94.44485075587421 9.688609740406342 1.6334141463758687 -1 0 0
2192 9 93.23311071461703 11.496109803693441 2.1392017368193064 -1 0 0
2011 15 97.86156235247313 6.311614929523863 2.1461230355999636 -1 0 0
2021 3 100.75342057724431 9.688609740406264 1.6334141463759142 -1 0 0
2010 4 95.22465773993085 7.015105430713068 0.21401193360047827 -1 0 0
2197 13 96.20013426377965 11.095783198815539 1.69940455130701 -1 0 0
2007 2 97.06621537927376 6.718786804903341 0.11375571372144475 -1 0 0
2013 10 97.77141337031992 6.534763268067579 2.208469974071604 -1 0 0
2008 14 96.19980211598316 8.281219832462819 1.7620129965859335 -1 0 0
2014 16 99.61527150985337 7.877601217739681 0.9900316573678813 -1 0 0
2016 12 97.9191964746782 9.239198402308965 1.662780439382519 -1 0 0
2012 9 99.54168053598715 6.032728076839609 2.139201736819214 -1 0 0
2015 11 97.87787860316996 9.180405482805885 1.638987383193726 -1 0 0
2204 9 99.54168053598713 11.496109803693441 2.1392017368191723 -1 0 0
2215 15 3.233015031922492 11.774996656377235 2.1461230356001315 0 0 0
2211 2 2.437668058723711 12.18216853175737 0.1137557137215085 0 0 0
2217 10 3.14286604976983 11.998144994921423 2.2084699740716887 0 0 0
2214 4 0.5961104193810427 12.478487157566938 0.2140119336006049 0 0 0
2212 14 1.5712547954331708 13.744601559316683 1.7620129965861187 0 0 0
2220 12 3.2906491541280927 14.702580129163087 1.6627804393826282 0 0 0
2218 16 4.986724189303356 13.340982944593566 0.990031657367766 0 0 0
2401 13 1.5715869432297414 16.55916492566943 1.6994045513071208 0 0 0
2407 15 3.23301503192242 17.238378383231268 2.146123035600084 0 0 0
2219 11 3.2493312826198064 14.643787209660012 1.638987383193803 0 0 0
2408 9 4.913133215437152 16.959491530547343 2.139201736819181 0 0 0
2227 15 9.541584853292841 11.774996656377242 2.1461230355998495 0 0 0
2223 2 8.746237880093576 12.182168531757265 0.11375571372140823 0 0 0
2229 10 9.451435871140081 11.99814499492155 2.208469974071454 0 0 0
2226 4 6.9046802407510945 12.478487157566832 0.21401193360068752 0 0 0
2224 14 7.879824616803203 13.744601559316573 1.7620129965861708 0 0 0
2232 12 9.599218975498042 14.702580129162998 1.6627804393825978 0 0 0
2230 16 11.295294010673283 13.340982944593712 0.9900316573677699 0 0 0
2413 13 7.88015676459976 16.55916492566932 1.6994045513071534 0 0 0
2419 15 9.541584853292699 17.238378383231268 2.1461230356000134 0 0 0
2225 3 6.124873256694325 15.151991467260219 1.6334141463759564 0 0 0
2231 11 9.557901103989723 14.643787209659898 1.6389873831937662 0 0 0
2420 9 11.22170303680707 16.959491530547396 2.1392017368193406 0 0 0
2239 15 15.850154674662717 11.77499665637746 2.1461230355998677 0 0 0
2235 2 15.054807701463577 12.182168531757283 0.11375571372132652 0 0 0
2241 10 15.760005692510019 11.998144994921471 2.2084699740714067 0 0 0
2238 4 13.213250062120965 12.478487157566969 0.2140119336006212 0 0 0
2236 14 14.188394438173134 13.744601559316704 1.762012996586103 0 0 0
2244 12 15.90778879686815 14.702580129163016 1.6627804393824954 0 0 0
2242 16 17.603863832043288 13.340982944593634 0.9900316573678265 0 0 0
2425 13 14.188726585969707 16.55916492566945 1.6994045513070593 0 0 0
2431 15 15.850154674662528 17.238378383231492 2.146123035600014 0 0 0
2237 3 12.433443078064244 15.151991467260302 1.633414146375923 0 0 0
2243 11 15.86647092535987 14.643787209659932 1.6389873831936972 0 0 0
2432 9 17.53027285817714 16.959491530547425 2.1392017368192207 0 0 0
2251 15 22.158724496032765 11.774996656377304 2.146123035599691 0 0 0
2247 2 21.36337752283348 12.182168531757231 0.11375571372122714 0 0 0
2253 10 22.0685755138801 11.998144994921521 2.2084699740712517 0 0 0
2250 4 19.52181988349099 12.478487157566875 0.21401193360072968 0 0 0
2248 14 20.496964259543155 13.744601559316601 1.7620129965862317 0 0 0
2256 12 22.216358618238 14.70258012916297 1.6627804393825258 0 0 0