LAMMPS data file via write_data, version 29 Aug 2024, timestep = 167, units = metal

10368 atoms
36 atom types

0 100.93711714192 xlo xhi
0 98.340871083372 ylo yhi
-50 50 zlo zhi

Masses

1 55.845
2 55.845
3 55.845
4 55.845
5 55.845
6 55.845
7 55.845
8 55.845
9 55.845
10 55.845
11 55.845
12 55.845
13 32.06
14 32.06
15 32.06
16 32.06
17 32.06
18 32.06
19 32.06
20 32.06
21 32.06
22 32.06
23 32.06
24 32.06
25 32.06
26 32.06
27 32.06
28 32.06
29 32.06
30 32.06
31 32.06
32 32.06
33 32.06
34 32.06
35 32.06
36 32.06

Atoms # atomic

1825 17 1.5825775224945096 0.11795728666937476 1.501485712872331 0 0 0
1831 19 2.158135493442781 1.1098331586363939 2.587721183276746 0 0 0
1833 14 3.4158582355366085 0.5592793609652876 2.6040550368315265 0 0 0
1828 18 1.5919267473652408 2.7926419483795892 1.5265615286837506 0 0 0
1834 20 4.777098193395698 2.7388762802904987 1.799875014827972 0 0 0
1836 16 1.2261513007432352 3.9770399010701842 1.8542130013514235 0 0 0
2017 17 1.5825775197165382 5.581339019129013 1.5014857173781146 0 0 0
1832 13 4.870352156987313 0.35064012764848257 2.1818068313125325 0 0 0
1829 3 0.05690256104997855 4.185397852597219 2.396630616289884 0 0 0
1835 15 3.9096624796255295 4.232184516344222 1.8094080423982133 0 0 0
2019 2 2.4151516481877944 5.452527710782469 0.6986083486453588 0 0 0
1837 17 7.891147346646277 0.11795728716687767 1.5014857032535662 0 0 0
1843 19 8.46670531910623 1.1098331816433082 2.587721225454249 0 0 0
1845 14 9.724428071265509 0.5592793784878631 2.6040550388456074 0 0 0
1840 18 7.900496569903557 2.7926419453299443 1.5265615185182162 0 0 0
1846 20 11.085668015632706 2.7388762807698988 1.7998750188812012 0 0 0
1842 4 6.28155825092481 1.476551351388544 0.7322090977183546 0 0 0
1848 16 7.5347211207634635 3.9770399041834374 1.854213004886912 0 0 0
2029 17 7.891147341991223 5.581339021554752 1.5014857158042152 0 0 0
1844 13 11.178921980550317 0.35064012839391917 2.181806842132019 0 0 0
1841 3 6.36547238532027 4.185397849345878 2.3966306185115447 0 0 0
1847 15 10.2182322992488 4.232184516394688 1.8094080385833187 0 0 0
2031 2 8.723721469347447 5.452527712168623 0.6986083611033106 0 0 0
1849 17 14.19971716663902 0.11795728936449237 1.501485707044528 0 0 0
1855 19 14.775275136081568 1.1098331514478672 2.587721156848625 0 0 0
1857 14 16.032997891953038 0.5592793635742387 2.604055022267508 0 0 0
1852 18 14.209066389462276 2.7926419447084023 1.5265615193577604 0 0 0
1858 20 17.394237835555874 2.7388762816721077 1.7998750170742979 0 0 0
1854 4 12.590128073015093 1.476551352262564 0.7322090983774545 0 0 0
1860 16 13.843290947752719 3.9770399060474277 1.854213015418377 0 0 0
2041 17 14.19971716509455 5.581339019865207 1.5014857171172795 0 0 0
1856 13 17.4874917984805 0.3506401278060842 2.18180683509409 0 0 0
1853 3 12.67404220923078 4.185397848774312 2.3966306175207848 0 0 0
1859 15 16.526802120945256 4.2321845170267665 1.8094080451260293 0 0 0
2043 2 15.032291290229567 5.452527715875416 0.6986083544162083 0 0 0
1861 17 20.508286990038457 0.11795728643633538 1.5014857039428668 0 0 0
1867 19 21.08384496813189 1.1098331983935936 2.5877212642894816 0 0 0
1869 14 22.341567708544577 0.5592793793610993 2.604055051215136 0 0 0
1864 18 20.517636214469253 2.792641944038667 1.52656152054268 0 0 0
1870 20 23.70280765623196 2.7388762835873384 1.7998750146007425 0 0 0
1866 4 18.898697892223712 1.4765513503245093 0.7322091011139826 0 0 0
1872 16 20.15186076761754 3.9770399031340222 1.8542129947245494 0 0 0
2053 17 20.508286985723732 5.581339020585676 1.501485708844338 0 0 0
1865 3 18.98261202856164 4.185397851175671 2.3966306127783725 0 0 0
1871 15 22.835371944399572 4.232184512663661 1.809408043374401 0 0 0
2055 2 21.34086111732425 5.452527710874065 0.6986083513332634 0 0 0
1868 13 23.79606162233489 0.3506401246362695 2.181806828549927 0 0 0
1873 17 26.816856810703612 0.11795728785702558 1.5014857032178426 0 0 0
1879 19 27.392414785629352 1.1098331898946114 2.587721241594069 0 0 0
1876 18 26.826206034346782 2.792641944125989 1.5265615177928578 0 0 0
1878 4 25.20726771323952 1.476551350474974 0.73220910056874 0 0 0
1884 16 26.460430587482424 3.97703990433823 1.8542130040608191 0 0 0
2065 17 26.816856807396164 5.581339020573921 1.5014857109803854 0 0 0
1877 3 25.291181849733025 4.18539784905321 2.3966306168613594 0 0 0
1883 15 29.143941764211174 4.23218451520605 1.8094080418560496 0 0 0
1881 14 28.650137537015517 0.5592793809246562 2.604055045673148 0 0 0
2067 2 27.649430934805764 5.4525277118866855 0.6986083518108198 0 0 0
1885 17 33.125426631619874 0.1179572882421339 1.5014857063332736 0 0 0
1891 19 33.70098460572037 1.1098331676070539 2.5877211918458314 0 0 0
1882 20 30.011377479497458 2.7388762806368745 1.7998750197036462 0 0 0
1888 18 33.13477585533747 2.7926419444470905 1.5265615206900178 0 0 0
1890 4 31.51583753649423 1.4765513519217253 0.7322090993349326 0 0 0
1896 16 32.769000412290026 3.977039904943874 1.854213005279162 0 0 0
2077 17 33.125426628312354 5.581339021103864 1.5014857145108291 0 0 0
1880 13 30.104631445911775 0.3506401300803779 2.1818068447696386 0 0 0
1889 3 31.59975167303474 4.185397850317677 2.3966306133315753 0 0 0
1895 15 35.45251158670372 4.232184514193211 1.8094080446950713 0 0 0
1893 14 34.95870735152539 0.5592793685651979 2.6040550254840515 0 0 0
2079 2 33.95800075888271 5.452527715023856 0.6986083553951489 0 0 0
1897 17 39.433996451625696 0.11795728602873319 1.5014857011573406 0 0 0
1903 19 40.00955442549782 1.1098332007337524 2.5877212632785076 0 0 0
1894 20 36.319947298623845 2.738876277679708 1.799875014529235 0 0 0
1900 18 39.4433456755641 2.792641947527094 1.5265615191267727 0 0 0
1902 4 37.824407356975854 1.4765513527308296 0.732209094785778 0 0 0
1908 16 39.077570225121484 3.977039906770024 1.8542129980256181 0 0 0
2089 17 39.43399644650659 5.5813390221362456 1.5014857164551143 0 0 0
1892 13 36.41320126263509 0.35064012853202997 2.181806825363062 0 0 0
1901 3 37.90832148825726 4.185397849791316 2.396630620703478 0 0 0
1905 14 41.26727717836102 0.5592793893056077 2.6040550549975747 0 0 0
2091 2 40.26657057988258 5.452527706697709 0.6986083600316437 0 0 0
1907 15 41.76108140767239 4.232184519196988 1.8094080395865337 0 0 0
1909 17 45.74256627253051 0.1179572868669293 1.5014857146964102 0 0 0
1915 19 46.318124243115804 1.109833156689047 2.5877211748144267 0 0 0
1906 20 42.62851712285301 2.738876276023001 1.7998750273434407 0 0 0
1912 18 45.751915496238944 2.792641948666688 1.5265615289431373 0 0 0
1914 4 44.132977182873944 1.4765513551435325 0.7322090978683093 0 0 0
1920 16 45.38614005343754 3.9770399012419766 1.8542130035823976 0 0 0
2101 17 45.74256627082114 5.581339018008487 1.5014857140360727 0 0 0
1904 13 42.72177109231379 0.3506401420735965 2.1818068533902655 0 0 0
1913 3 44.216891310586945 4.185397854224846 2.3966306126959167 0 0 0
2103 2 46.57514039419928 5.452527711046489 0.6986083373796117 0 0 0
1919 15 48.069651227525426 4.232184517538534 1.8094080447013994 0 0 0
1917 14 47.575846991408056 0.5592793575952981 2.6040550541945655 0 0 0
1729 17 52.05113609487493 0.11795728549045445 1.5014857165979825 -1 0 0
1918 20 48.937086944333956 2.738876275379354 1.799875026402804 0 0 0
1732 18 52.06048531937999 2.7926419481409157 1.5265615310880147 -1 0 0
1734 4 50.44154700468873 1.476551354542132 0.732209099624554 -1 0 0
1921 17 52.05113609269791 5.581339017424694 1.5014857108074466 -1 0 0
1916 13 49.03034091420467 0.35064014487721246 2.181806852252909 0 0 0
1733 3 50.52546113138957 4.185397854899928 2.396630611919606 -1 0 0
1735 19 52.62669406685656 1.1098331656337066 2.587721200612369 -1 0 0
1740 16 51.69470987449172 3.977039898770782 1.8542129980108975 -1 0 0
1923 2 52.88371021527846 5.452527709734305 0.6986083332828296 -1 0 0
1737 14 53.884416809552725 0.559279359369623 2.6040550642749074 -1 0 0
1741 17 58.35970591599769 0.1179572865696895 1.5014857148127971 -1 0 0
1738 20 55.24565676605536 2.738876275399773 1.799875025193895 -1 0 0
1744 18 58.36905513978138 2.7926419482759615 1.5265615287133099 -1 0 0
1746 4 56.750116826012594 1.4765513547391067 0.7322090982186278 -1 0 0
1933 17 58.35970591427269 5.581339017928306 1.5014857142946398 -1 0 0
1736 13 55.338910736327804 0.35064014247605685 2.1818068513068787 -1 0 0
1739 15 54.37822104922736 4.2321845156448585 1.8094080436934759 -1 0 0
1745 3 56.83403095365879 4.185397853462425 2.3966306146094847 -1 0 0
1747 19 58.93526388597688 1.1098331571280826 2.5877211764548536 -1 0 0
1752 16 58.003279697581874 3.977039903031506 1.8542130047540362 -1 0 0
1935 2 59.19228003905344 5.452527710974318 0.6986083382988277 -1 0 0
1749 14 60.192986631443354 0.5592793586083232 2.60405504796533 -1 0 0
1753 17 64.66827573927245 0.11795728340744413 1.5014857127148016 -1 0 0
1750 20 61.55422658660227 2.7388762762042513 1.7998750220319641 -1 0 0
1756 18 64.67762496503936 2.792641948273086 1.5265615304601503 -1 0 0
1758 4 63.058686646733086 1.4765513531371794 0.7322090999291355 -1 0 0
1945 17 64.66827573370811 5.581339020151293 1.501485711280161 -1 0 0
1748 13 61.647480554126496 0.3506401414598445 2.181806840473854 -1 0 0
1751 15 60.686790871777696 4.232184517577407 1.8094080467606193 -1 0 0
1757 3 63.14260077266659 4.185397855130213 2.396630612213275 -1 0 0
1759 19 65.2438337169908 1.1098331948633502 2.587721272131104 -1 0 0
1764 16 64.31184951448552 3.9770398981464177 1.854212985800428 -1 0 0
1761 14 66.5015564454934 0.5592793714315026 2.6040550681013466 -1 0 0
1765 17 70.97684556072699 0.11795728881323897 1.5014857009960045 -1 0 0
1762 20 67.86279640728587 2.738876281241114 1.7998750141268451 -1 0 0
1768 18 70.98619478206406 2.7926419454689717 1.526561515469551 -1 0 0
1770 4 69.36725646389094 1.4765513509932482 0.7322090967964312 -1 0 0
1957 17 70.97684555552743 5.5813390210717495 1.5014857180024292 -1 0 0
1760 13 67.95605037351072 0.35064012316601495 2.181806831366154 -1 0 0
1763 15 66.99536069385755 4.232184512782045 1.8094080402812187 -1 0 0
1769 3 69.45117059980018 4.185397847092088 2.3966306229303136 -1 0 0
1776 16 70.62041933616396 3.9770399079379377 1.85421301561478 -1 0 0
1947 2 65.50084986363551 5.45252771023514 0.6986083477018351 -1 0 0
1771 19 71.55240353092144 1.1098331673257318 2.587721192665915 -1 0 0
1773 14 72.81012628398061 0.5592793717151985 2.6040550207579396 -1 0 0
1774 20 74.17136622803099 2.7388762848558703 1.7998750123025518 -1 0 0
1782 4 75.67582628395331 1.4765513495445115 0.7322091005710044 -1 0 0
1772 13 74.26462018806751 0.35064011749597684 2.181806827608194 -1 0 0
1775 15 73.30393051372768 4.232184517836706 1.8094080396895769 -1 0 0
1781 3 75.75974042388346 4.185397847064202 2.396630619062059 -1 0 0
1788 16 76.9289891562668 3.977039900952585 1.8542130156801673 -1 0 0
1959 2 71.80941968339236 5.452527712714088 0.6986083630607437 -1 0 0
1777 17 77.28541538198812 0.1179572902588774 1.501485701332418 -1 0 0
1969 17 77.28541537890135 5.5813390203496756 1.501485711813931 -1 0 0
1783 19 77.86097335620381 1.1098331732389646 2.5877212017280407 -1 0 0
1785 14 79.11869610857413 0.5592793745801463 2.6040550188160143 -1 0 0
1780 18 77.29476460474748 2.7926419425915316 1.5265615139235753 -1 0 0
1786 20 80.47993605055507 2.7388762805923803 1.7998750107335555 -1 0 0
1794 4 81.98439610772283 1.4765513528223615 0.7322090930609443 -1 0 0
1784 13 80.57319001169695 0.350640119018963 2.1818068252836493 -1 0 0
1787 15 79.61250033224867 4.23218451406485 1.8094080353482331 -1 0 0
1793 3 82.06831024476429 4.185397843121886 2.3966306302244895 -1 0 0
1971 2 78.11798949970392 5.45252771524343 0.6986083564710942 -1 0 0
1789 17 83.59398519893024 0.1179572907125953 1.501485702350623 -1 0 0
1981 17 83.59398519891049 5.581339021712557 1.5014857293254675 -1 0 0
1795 19 84.1695431617523 1.1098331295895936 2.5877211072613706 -1 0 0
1797 14 85.42726593039984 0.5592793628868201 2.6040549943098847 -1 0 0
1792 18 83.60333442131706 2.7926419454475844 1.5265615125031833 -1 0 0
1798 20 86.78850586965255 2.738876285558666 1.7998750132785442 -1 0 0
1800 16 83.23755897939697 3.977039911971275 1.8542130316302499 -1 0 0
1806 4 88.29296592487113 1.4765513475625869 0.7322091040117569 -1 0 0
1796 13 86.88175982669503 0.3506401200740384 2.1818068254892777 -1 0 0
1799 15 85.92107015501004 4.23218452239563 1.8094080434978275 -1 0 0
1805 3 88.37688006414307 4.18539785120777 2.396630610624047 -1 0 0
1983 2 84.4265593242997 5.452527720753573 0.6986083772487509 -1 0 0
1801 17 89.90255502682032 0.11795728612321711 1.5014857008400178 -1 0 0
1993 17 89.90255502119537 5.58133902206937 1.5014857063078186 -1 0 0
1807 19 90.47811300953495 1.1098332204695849 2.5877213177085694 -1 0 0
1809 14 91.73583574778159 0.5592793858769807 2.60405506882722 -1 0 0
1804 18 89.91190425128595 2.7926419424176734 1.5265615174893608 -1 0 0
1810 20 93.09707569324334 2.73887627990216 1.7998750164960857 -1 0 0
1812 16 89.54612879955708 3.9770399001052117 1.8542129885727496 -1 0 0
1818 4 94.60153575033006 1.4765513538020392 0.7322090935132602 -1 0 0
1808 13 93.19032966171086 0.3506401250547973 2.1818068404995845 -1 0 0
1811 15 92.22963997761569 4.232184511507662 1.8094080348737427 -1 0 0
1817 3 94.68544988767738 4.185397844841188 2.3966306247797062 -1 0 0
1995 2 90.73512914905719 5.452527714124317 0.6986083561359292 -1 0 0
1830 4 100.91010557582803 1.4765513552436018 0.7322090955696018 -1 0 0
1813 17 96.21112484218234 0.1179572912063247 1.501485704030396 -1 0 0
2005 17 96.21112484093514 5.581339021075849 1.5014857255625542 -1 0 0
1819 19 96.78668280530931 1.1098331258623988 2.5877210920272935 -1 0 0
1821 14 98.04440557833743 0.559279362739695 2.6040549970772005 -1 0 0
1816 18 96.22047406379767 2.792641945375493 1.5265615148270955 -1 0 0
1822 20 99.40564551544915 2.7388762726319045 1.7998750240607029 -1 0 0
1824 16 95.8546986228387 3.977039910147399 1.854213030662841 -1 0 0
1820 13 99.49889947755096 0.3506401395714255 2.1818068484874624 -1 0 0
1823 15 98.53820979666084 4.232184521697942 1.8094080414792533 -1 0 0
2007 2 97.04369896470708 5.4525277173558875 0.6986083661421542 -1 0 0
2023 19 2.1581354754135855 6.573214813955275 2.5877210127401513 0 0 0
2025 14 3.4158582518484693 6.0226610711167945 2.6040549880653083 0 0 0
2020 18 1.5919267424914905 8.256023672911025 1.5265615229307181 0 0 0
2026 20 4.777098198243481 8.202258002129032 1.799875022666247 0 0 0
2028 16 1.2261512982617528 9.440421624919091 1.854213045434987 0 0 0
2209 17 1.582577522190782 11.04472074134938 1.5014857223826885 0 0 0
2024 13 4.870352157283398 5.814021860008561 2.1818068609538357 0 0 0
2021 3 0.0569025661342978 9.648779572568548 2.3966306301259457 0 0 0
2027 15 3.9096624708517935 9.69556624841056 1.809408036000881 0 0 0
2211 2 2.4151516268925066 10.9159094409216 0.6986083408890358 0 0 0
2217 14 3.415858244279166 11.48604280155256 2.604055049552187 0 0 0
2216 13 4.870352167051254 11.277403599344794 2.1818068688193457 0 0 0
2035 19 8.466705297255647 6.573214798459708 2.5877209679942257 0 0 0
2037 14 9.724428080621967 6.022661063602283 2.6040549725089113 0 0 0
2032 18 7.900496563913505 8.256023669451249 1.5265615193512836 0 0 0
2038 20 11.08566801830972 8.202258004201184 1.7998750227635874 0 0 0
2034 4 6.281558256556703 6.939933082396357 0.7322090953776423 0 0 0
2040 16 7.534721124773639 9.440421625213679 1.8542130499859586 0 0 0
2221 17 7.8911473465180775 11.04472074200042 1.501485720725695 0 0 0
2036 13 11.178921978010363 5.814021860333705 2.1818068588781956 0 0 0
2033 3 6.365472393950432 9.64877957257178 2.396630622666279 0 0 0
2039 15 10.218232291509413 9.695566245767909 1.8094080412261349 0 0 0
2223 2 8.723721449457537 10.915909445920192 0.6986083411361417 0 0 0
2229 14 9.724428067582583 11.486042799916572 2.6040550561249383 0 0 0
2228 13 11.178921986927204 11.277403592094497 2.181806859846074 0 0 0
2047 19 14.775275127608804 6.573214823544364 2.587721031517819 0 0 0
2049 14 16.032997895380742 6.022661066749263 2.6040549926156813 0 0 0
2044 18 14.20906638809559 8.256023668624286 1.526561521904438 0 0 0
2050 20 17.39423783887868 8.202258004495098 1.7998750174142764 0 0 0
2046 4 12.590128076728705 6.93993308078335 0.7322090999737718 0 0 0
2052 16 13.84329094739609 9.440421621528072 1.8542130369912895 0 0 0
2233 17 14.199717168109883 11.044720742309023 1.5014857143588825 0 0 0
2048 13 17.487491799698734 5.8140218530553325 2.1818068511457382 0 0 0
2045 3 12.67404221446866 9.648779574819736 2.3966306175125998 0 0 0
2051 15 16.526802114083367 9.695566241666592 1.8094080398780388 0 0 0
2235 2 15.032291272937268 10.915909446903932 0.6986083361748422 0 0 0
2241 14 16.03299789715002 11.48604281430545 2.604055061244752 0 0 0
2240 13 17.487491812639828 11.277403596548 2.1818068736035903 0 0 0
2059 19 21.083844944750624 6.573214820252586 2.587721016623394 0 0 0
2061 14 22.341567725559383 6.022661074530854 2.604054977224978 0 0 0
2056 18 20.51763620709894 8.2560236685248 1.5265615144321087 0 0 0
2062 20 23.70280766041546 8.202258003985117 1.7998750219810402 0 0 0
2058 4 18.89869789564262 6.939933080449734 0.7322090952547371 0 0 0
2064 16 20.151860766009854 9.440421628867878 1.8542130431022326 0 0 0
2245 17 20.508286986927082 11.044720745266183 1.5014857219566953 0 0 0
2057 3 18.982612036822953 9.648779570732245 2.396630624064744 0 0 0
2063 15 22.83537193576523 9.695566245889152 1.8094080384432147 0 0 0
2247 2 21.3408610976213 10.915909446192694 0.698608355366449 0 0 0
2253 14 22.34156771598496 11.486042787686843 2.604055026395835 0 0 0
2071 19 27.39241476926021 6.573214825949456 2.5877210285792573 0 0 0
2060 13 23.796061619746716 5.814021856070793 2.181806859045863 0 0 0
2068 18 26.82620602926103 8.256023668594684 1.5265615177209757 0 0 0
2070 4 25.207267717486943 6.939933080840964 0.7322090968330817 0 0 0
2076 16 26.46043058835453 9.440421625121683 1.8542130380212791 0 0 0
2257 17 26.81685680871282 11.04472074386282 1.5014857169460207 0 0 0
2069 3 25.2911818579308 9.648779573345873 2.396630618804229 0 0 0
2075 15 29.143941756854357 9.695566243346335 1.8094080387633908 0 0 0
2073 14 28.650137544163208 6.022661073621408 2.60405498400611 0 0 0
2252 13 23.796061627975348 11.277403592168834 2.1818068639209702 0 0 0
2259 2 27.64943091820326 10.915909444332872 0.6986083451989324 0 0 0
2265 14 28.650137538707842 11.48604279720897 2.604055038083403 0 0 0
2083 19 33.70098458825193 6.573214814005999 2.587721008421586 0 0 0
2074 20 30.01137748158262 8.202258005126104 1.7998750202697922 0 0 0
2080 18 33.134775850315094 8.25602366872629 1.526561518645261 0 0 0
2082 4 31.51583753988613 6.939933080980287 0.7322090980718385 0 0 0
2088 16 32.76900040915173 9.440421623459862 1.854213046826116 0 0 0
2269 17 33.12542663130826 11.044720742187295 1.5014857161800172 0 0 0
2072 13 30.104631442317498 5.814021856531333 2.181806853881286 0 0 0
2081 3 31.599751678612655 9.648779572338718 2.3966306221823963 0 0 0
2087 15 35.45251157667407 9.695566243676277 1.8094080367754841 0 0 0
2085 14 34.95870736538737 6.022661067490151 2.60405498406724 0 0 0
2271 2 33.95800073457455 10.915909445188843 0.6986083383542174 0 0 0
2264 13 30.104631450049606 11.277403594364037 2.1818068672327064 0 0 0
2277 14 34.958707361144945 11.48604280855802 2.604055060207668 0 0 0
2095 19 40.009554398697205 6.573214780710456 2.5877209306624933 0 0 0
2086 20 36.31994730493313 8.202257997133687 1.7998750229271672 0 0 0
2092 18 39.44334566802938 8.256023672259035 1.5265615206892773 0 0 0
2094 4 37.82440736485022 6.939933084936224 0.7322090904814674 0 0 0
2100 16 39.07757022978158 9.440421628919836 1.8542130566967563 0 0 0
2281 17 39.43399645044935 11.044720742407257 1.5014857277570712 0 0 0
2084 13 36.41320126527604 5.81402186149101 2.181806860537015 0 0 0
2093 3 37.90832149807268 9.648779570993675 2.3966306295597373 0 0 0
2097 14 41.2672771804989 6.022661058828965 2.60405495241035 0 0 0
2283 2 40.266570558594154 10.915909444214389 0.6986083471330997 0 0 0
2276 13 36.41320127833147 11.27740360601611 2.181806873945827 0 0 0
2289 14 41.267277168499795 11.486042787449879 2.604055048784909 0 0 0
2107 19 46.31812423403225 6.573214846783439 2.5877210858088877 0 0 0
2099 15 41.76108140017889 9.695566249039581 1.8094080415915645 0 0 0
2098 20 42.6285171244613 8.202258000192534 1.799875018649544 0 0 0
2104 18 45.75191549468801 8.256023672336667 1.526561522676266 0 0 0
2106 4 44.13297718475057 6.939933081997086 0.7322090952374587 0 0 0
2112 16 45.38614004932649 9.440421626520205 1.854213030215053 0 0 0
2293 17 45.74256627260884 11.044720743786591 1.501485719510961 0 0 0
2096 13 42.72177107950108 5.814021859958148 2.181806842631725 0 0 0
2105 3 44.21689131553816 9.64877957487703 2.396630624013053 0 0 0
2295 2 46.57514038682096 10.915909441357107 0.6986083459250488 0 0 0
2288 13 42.72177109448599 11.277403598495194 2.1818068667139165 0 0 0
1927 19 52.626694056488674 6.573214857071107 2.5877211062399312 -1 0 0
2111 15 48.069651224379655 9.695566245065251 1.8094080403463042 0 0 0
2109 14 47.5758469964209 6.022661081161493 2.6040549999175417 0 0 0
2110 20 48.93708694528038 8.202258001785317 1.799875017681626 0 0 0
1924 18 52.06048531608015 8.256023672896292 1.5265615207144152 -1 0 0
1926 4 50.44154700480502 6.939933081678671 0.7322090944289629 -1 0 0
2113 17 52.0511360926438 11.04472074569792 1.5014857218941817 -1 0 0
2108 13 49.03034090519444 5.814021858326414 2.181806839431881 0 0 0
1925 3 50.52546113601409 9.64877957439589 2.3966306244392515 -1 0 0
1932 16 51.6947098700295 9.440421628986481 1.8542130273664184 -1 0 0
2301 14 47.57584699927821 11.486042801053044 2.60405502788377 0 0 0
2115 2 52.88371020987356 10.915909442392465 0.6986083547979931 -1 0 0
2300 13 49.030340914407134 11.277403597842223 2.1818068681291236 0 0 0
1939 19 58.93526387838331 6.573214846518828 2.587721087131298 -1 0 0
1929 14 53.8844168210135 6.022661088656708 2.6040550037354797 -1 0 0
1930 20 55.24565676717268 8.202258001497704 1.7998750202577014 -1 0 0
1936 18 58.369055137598465 8.256023672962074 1.5265615232292697 -1 0 0
1938 4 56.75011682741915 6.939933082048186 0.73220909546224 -1 0 0
2125 17 58.35970591407661 11.044720744588476 1.501485719993244 -1 0 0
1928 13 55.3389107282376 5.814021860964126 2.181806844799998 -1 0 0
1931 15 54.37822104592763 9.695566246123102 1.8094080388561133 -1 0 0
1937 3 56.83403095755409 9.64877957525484 2.39663062289251 -1 0 0
1944 16 58.003279691076216 9.440421624950769 1.8542130290190744 -1 0 0
2121 14 53.88441682188274 11.486042794336585 2.6040550123448294 -1 0 0
2127 2 59.192280027636066 10.915909442838306 0.6986083482491385 -1 0 0
2120 13 55.338910733268996 11.277403597781898 2.181806865600156 -1 0 0
1951 19 65.2438336898628 6.573214824560208 2.587721026724566 -1 0 0
1941 14 60.1929866385747 6.022661080137361 2.6040550001917273 -1 0 0
1942 20 61.55422658869479 8.20225800096368 1.7998750169932078 -1 0 0
1948 18 64.67762495596948 8.256023671995868 1.5265615177098975 -1 0 0
1950 4 63.058686648316574 6.9399330828122885 0.7322090918371159 -1 0 0
2137 17 64.66827573541187 11.044720744629435 1.5014857255934173 -1 0 0
1940 13 61.647480548531156 5.814021856888708 2.181806841956722 -1 0 0
1943 15 60.68679086605944 9.695566244495241 1.8094080368911873 -1 0 0
1949 3 63.142600781160304 9.648779571215664 2.3966306293473227 -1 0 0
1956 16 64.31184950967034 9.440421627324206 1.8542130443818639 -1 0 0
2133 14 60.19298664579603 11.486042802111216 2.604055030578617 -1 0 0
2132 13 61.64748055935826 11.277403603681366 2.1818068780304336 -1 0 0
1953 14 66.50155647389096 6.022661082524512 2.6040549814519687 -1 0 0
1954 20 67.86279641183037 8.202258001525122 1.7998750256872498 -1 0 0
1960 18 70.98619477732817 8.25602367029743 1.5265615214363544 -1 0 0
1962 4 69.3672564707709 6.939933082965879 0.7322090957149686 -1 0 0
2149 17 70.97684555954886 11.044720742344984 1.5014857214831874 -1 0 0
1952 13 67.95605037255896 5.81402186269095 2.1818068666024204 -1 0 0
1955 15 66.99536068440642 9.69556624870443 1.8094080349797534 -1 0 0
1961 3 69.45117060715837 9.64877957425976 2.396630619972825 -1 0 0
1968 16 70.62041933954868 9.440421624638162 1.8542130461675883 -1 0 0
2139 2 65.5008498435512 10.915909443082649 0.6986083552093861 -1 0 0
2145 14 66.5015564610659 11.486042788557157 2.6040550271560825 -1 0 0
2144 13 67.95605037786443 11.277403598668142 2.1818068637945336 -1 0 0
1963 19 71.55240351193858 6.573214796344284 2.587720964788914 -1 0 0
1965 14 72.81012629211422 6.022661058076686 2.604054979159846 -1 0 0
1966 20 74.17136623121017 8.20225800466947 1.7998750242605193 -1 0 0
1974 4 75.6758262872286 6.939933080180181 0.7322090988755527 -1 0 0
1964 13 74.26462019233949 5.8140218587567105 2.18180686652807 -1 0 0
1967 15 73.3039305053879 9.695566245980805 1.8094080416849305 -1 0 0
1973 3 75.75974043026838 9.64877957458497 2.396630614713461 -1 0 0
1980 16 76.9289891606711 9.440421622797944 1.8542130358589288 -1 0 0
2151 2 71.8094196631781 10.915909447674682 0.6986083399082162 -1 0 0
2157 14 72.81012627978458 11.486042801324206 2.6040550560204583 -1 0 0
2156 13 74.26462020020466 11.277403588637164 2.1818068574686658 -1 0 0
1975 19 77.86097334038394 6.5732148296918504 2.5877210297097295 -1 0 0
2161 17 77.28541538109995 11.044720742214459 1.5014857111406064 -1 0 0
1977 14 79.11869612182736 6.022661073103346 2.6040550004899456 -1 0 0
1972 18 77.29476460024013 8.256023667115965 1.5265615176014347 -1 0 0
1978 20 80.47993605500386 8.20225800284863 1.7998750317840413 -1 0 0
1986 4 81.98439611593392 6.939933083530988 0.7322091030455061 -1 0 0
1976 13 80.57319002211263 5.814021870936325 2.1818068787532363 -1 0 0
1979 15 79.61250032597503 9.695566243109406 1.8094080397462846 -1 0 0
1985 3 82.06831025044579 9.648779576962715 2.3966306140601055 -1 0 0
2163 2 78.11798948521222 10.91590944167953 0.698608331904898 -1 0 0
2169 14 79.11869610674384 11.48604280666306 2.6040550473809785 -1 0 0
2168 13 80.5731900174613 11.277403590783354 2.181806847584428 -1 0 0
1987 19 84.16954315765874 6.573214784067995 2.587720942598509 -1 0 0
2173 17 83.59398520615727 11.04472073663905 1.5014857092431044 -1 0 0
1989 14 85.4272659265167 6.022661046926509 2.6040549774593216 -1 0 0
1984 18 83.6033344223825 8.256023668886094 1.5265615297139712 -1 0 0
1990 20 86.78850587386012 8.202258005007188 1.7998750161464585 -1 0 0
1992 16 83.23755898795423 9.440421614920757 1.8542130486659611 -1 0 0
1998 4 88.29296592909976 6.939933079652974 0.7322090961253521 -1 0 0
1988 13 86.88175983350808 5.814021850258608 2.181806852410587 -1 0 0
1991 15 85.92107014702214 9.695566239073086 1.8094080449719534 -1 0 0
1997 3 88.37688007441362 9.648779569773335 2.396630624242169 -1 0 0
2175 2 84.4265592993882 10.915909447628366 0.6986083079236585 -1 0 0
2181 14 85.42726592620176 11.48604283884543 2.6040551218903065 -1 0 0
2180 13 86.8817598539633 11.27740359608406 2.181806875792388 -1 0 0
1999 19 90.47811297924716 6.573214823072761 2.5877210060826887 -1 0 0
2185 17 89.90255502347742 11.044720743573086 1.5014857165804314 -1 0 0
2001 14 91.73583577090358 6.022661081799852 2.6040549740239194 -1 0 0
1996 18 89.91190424159122 8.2560236663537 1.5265615103832784 -1 0 0
2002 20 93.09707569718323 8.202258002912922 1.799875028782397 -1 0 0
2004 16 89.54612880094605 9.44042162689844 1.8542130493899294 -1 0 0
2010 4 94.60153575738829 6.939933083084426 0.7322091007741683 -1 0 0
2000 13 93.19032965940579 5.814021866631161 2.1818068702380553 -1 0 0
2003 15 92.22963996816897 9.695566246264317 1.8094080378826694 -1 0 0
2009 3 94.68544989210041 9.648779576137402 2.396630616546818 -1 0 0
2187 2 90.73512912738092 10.915909442729813 0.6986083450566843 -1 0 0
2193 14 91.73583574733658 11.486042792141692 2.6040550404612794 -1 0 0
2192 13 93.1903296618832 11.277403592888685 2.1818068520018894 -1 0 0
2011 19 96.78668280066726 6.5732147917291 2.5877209644276387 -1 0 0
2022 4 100.91010557844551 6.939933083917097 0.7322090926972636 -1 0 0
2197 17 96.21112484743885 11.044720738560276 1.5014857130760466 -1 0 0
2013 14 98.04440556979986 6.022661050740057 2.6040549854618296 -1 0 0
2008 18 96.2204740642225 8.256023669791707 1.5265615271169777 -1 0 0
2014 20 99.40564551785354 8.202257997426656 1.7998750202486196 -1 0 0
2016 16 95.85469862806494 9.440421618330868 1.8542130473759533 -1 0 0
2012 13 99.49889947839094 5.814021862772022 2.1818068485185984 -1 0 0
2015 15 98.5382097897493 9.695566241812534 1.809408041860088 -1 0 0
2199 2 97.04369894394571 10.915909447839043 0.6986083195686928 -1 0 0
2205 14 98.04440556934208 11.48604282893201 2.6040550958164386 -1 0 0
2204 13 99.49889949530714 11.277403604343112 2.1818068692251926 -1 0 0
2215 19 2.1581354890629636 12.036596583465995 2.587721112895338 0 0 0
2212 18 1.591926745926978 13.719405401434193 1.526561533035225 0 0 0
2220 16 1.2261513069963614 14.903803350133316 1.8542130084850383 0 0 0
2218 20 4.777098195566404 13.66563973303044 1.7998750299602826 0 0 0
2401 17 1.5825775223786382 16.508102469314082 1.5014857112609337 0 0 0
2403 2 2.41515163749846 16.379291166358048 0.698608322274798 0 0 0
2409 14 3.4158582418937313 16.949424548664027 2.6040550351184835 0 0 0
2213 3 0.05690256264156153 15.112161308411213 2.3966306102410275 0 0 0
2219 15 3.9096624754304568 15.158947970197797 1.8094080471836118 0 0 0
2408 13 4.870352156129016 16.740785305001737 2.1818068338436674 0 0 0
2227 19 8.466705316777327 12.036596594681669 2.587721140905392 0 0 0
2226 4 6.281558254338076 12.403314806505538 0.7322091060823898 0 0 0
2224 18 7.900496570254558 13.719405396809297 1.5265615304884796 0 0 0
2232 16 7.534721132653495 14.90380334889741 1.8542130067371467 0 0 0
2230 20 11.085668015129754 13.665639734806248 1.7998750257657201 0 0 0
2413 17 7.891147348368099 16.508102467975664 1.5014857022384185 0 0 0
2415 2 8.723721461749529 16.37929116699038 0.6986083131834406 0 0 0
2421 14 9.724428071539004 16.949424562350806 2.604055049384102 0 0 0
2225 3 6.365472388575802 15.112161308330288 2.39663060515428 0 0 0
2231 15 10.218232298049676 15.158947965091738 1.8094080504076169 0 0 0
2420 13 11.178921980242787 16.7407853037429 2.1818068392318324 0 0 0
2239 19 14.77527514084763 12.036596614348047 2.587721176739224 0 0 0
2238 4 12.590128072280775 12.403314805358292 0.7322091055324587 0 0 0
2236 18 14.209066391391469 13.719405395698661 1.5265615253255838 0 0 0