LAMMPS data file via write_data, version 29 Aug 2024, timestep = 0, units = metal

3456 atoms
12 atom types

0 100.93711714192 xlo xhi
0 98.340871083372 ylo yhi
0 17.693546086293 zlo zhi

Masses

1 32.06
2 32.06
3 32.06
4 55.845
5 32.06
6 32.06
7 32.06
8 32.06
9 55.845
10 55.845
11 55.845
12 32.06

Atoms # atomic

1827 2 1.577142455343001 0.9105636211420034 0 0 0 0
1825 9 0 0 1.3688442052049998 0 0 0
1831 11 3.154284910685 0 1.3688442052049998 0 0 0
1833 6 4.731427366028001 0.9105636211420034 0 0 0 0
1837 9 6.30856982137 0 1.3688442052049998 0 0 0
1839 2 7.885712276713001 0.9105636211420034 0 0 0 0
1843 11 9.462854732055 0 1.3688442052049998 0 0 0
1845 6 11.039997187398 0.9105636211420034 0 0 0 0
1849 9 12.61713964274 0 1.3688442052049998 0 0 0
1851 2 14.194282098083008 0.9105636211420034 0 0 0 0
1855 11 15.771424553425007 0 1.3688442052049998 0 0 0
1857 6 17.348567008768 0.9105636211420034 0 0 0 0
1861 9 18.92570946411 0 1.3688442052049998 0 0 0
1863 2 20.502851919453008 0.9105636211420034 0 0 0 0
1867 11 22.079994374795007 0 1.3688442052049998 0 0 0
1869 6 23.657136830138 0.9105636211420034 0 0 0 0
1873 9 25.23427928548 0 1.3688442052049998 0 0 0
1875 2 26.811421740823008 0.9105636211420034 0 0 0 0
1879 11 28.388564196165007 0 1.3688442052049998 0 0 0
1881 6 29.965706651508 0.9105636211420034 0 0 0 0
1885 9 31.54284910685 0 1.3688442052049998 0 0 0
1887 2 33.11999156219301 0.9105636211420034 0 0 0 0
1891 11 34.69713401753501 0 1.3688442052049998 0 0 0
1893 6 36.274276472878 0.9105636211420034 0 0 0 0
1897 9 37.85141892822 0 1.3688442052049998 0 0 0
1899 2 39.42856138356301 0.9105636211420034 0 0 0 0
1903 11 41.005703838905006 0 1.3688442052049998 0 0 0
1905 6 42.582846294248 0.9105636211420034 0 0 0 0
1909 9 44.15998874959 0 1.3688442052049998 0 0 0
1911 2 45.73713120493301 0.9105636211420034 0 0 0 0
1915 11 47.314273660275006 0 1.3688442052049998 0 0 0
1917 6 48.891416115618 0.9105636211420034 0 0 0 0
1729 9 50.46855857096 0 1.3688442052049998 -1 0 0
1731 2 52.045701026303 0.9105636211420034 0 -1 0 0
1735 11 53.622843481645 0 1.3688442052049998 -1 0 0
1737 6 55.199985936988 0.9105636211420034 0 -1 0 0
1741 9 56.77712839233 0 1.3688442052049998 -1 0 0
1743 2 58.354270847673 0.9105636211420034 0 -1 0 0
1747 11 59.931413303015 0 1.3688442052049998 -1 0 0
1749 6 61.508555758358 0.9105636211420034 0 -1 0 0
1753 9 63.0856982137 0 1.3688442052049998 -1 0 0
1755 2 64.66284066904299 0.9105636211420034 0 -1 0 0
1761 6 67.817125579728 0.9105636211420034 0 -1 0 0
1759 11 66.23998312438499 0 1.3688442052049998 -1 0 0
1765 9 69.39426803507 0 1.3688442052049998 -1 0 0
1767 2 70.971410490413 0.9105636211420034 0 -1 0 0
1771 11 72.548552945755 0 1.3688442052049998 -1 0 0
1773 6 74.125695401098 0.9105636211420034 0 -1 0 0
1777 9 75.70283785644 0 1.3688442052049998 -1 0 0
1779 2 77.27998031178299 0.9105636211420034 0 -1 0 0
1783 11 78.85712276712499 0 1.3688442052049998 -1 0 0
1785 6 80.434265222468 0.9105636211420034 0 -1 0 0
1789 9 82.01140767781 0 1.3688442052049998 -1 0 0
1791 2 83.588550133153 0.9105636211420034 0 -1 0 0
1795 11 85.165692588495 0 1.3688442052049998 -1 0 0
1797 6 86.742835043838 0.9105636211420034 0 -1 0 0
1801 9 88.31997749918 0 1.3688442052049998 -1 0 0
1803 2 89.89711995452299 0.9105636211420034 0 -1 0 0
1807 11 91.47426240986499 0 1.3688442052049998 -1 0 0
1809 6 93.051404865208 0.9105636211420034 0 -1 0 0
1813 9 94.62854732055 0 1.3688442052049998 -1 0 0
1815 2 96.205689775893 0.9105636211420034 0 -1 0 0
1819 11 97.782832231235 0 1.3688442052049998 -1 0 0
1821 6 99.359974686578 0.9105636211420034 0 -1 0 0
1828 10 1.577142455341999 2.731690863427005 1.3688442052049998 0 0 0
1834 12 4.731427366026999 2.731690863427005 1.3688442052049998 0 0 0
1840 10 7.885712276711999 2.731690863427005 1.3688442052049998 0 0 0
1846 12 11.039997187396999 2.731690863427005 1.3688442052049998 0 0 0
1852 10 14.194282098081999 2.731690863427005 1.3688442052049998 0 0 0
1858 12 17.348567008767006 2.731690863427005 1.3688442052049998 0 0 0
1864 10 20.502851919452 2.731690863427005 1.3688442052049998 0 0 0
1870 12 23.657136830137006 2.731690863427005 1.3688442052049998 0 0 0
1876 10 26.811421740822 2.731690863427005 1.3688442052049998 0 0 0
1882 12 29.965706651507006 2.731690863427005 1.3688442052049998 0 0 0
1888 10 33.119991562192 2.731690863427005 1.3688442052049998 0 0 0
1894 12 36.274276472877006 2.731690863427005 1.3688442052049998 0 0 0
1900 10 39.428561383562 2.731690863427005 1.3688442052049998 0 0 0
1906 12 42.582846294247005 2.731690863427005 1.3688442052049998 0 0 0
1912 10 45.737131204932 2.731690863427005 1.3688442052049998 0 0 0
1918 12 48.891416115617005 2.731690863427005 1.3688442052049998 0 0 0
1732 10 52.045701026302 2.731690863427005 1.3688442052049998 -1 0 0
1738 12 55.199985936987 2.731690863427005 1.3688442052049998 -1 0 0
1744 10 58.354270847672 2.731690863427005 1.3688442052049998 -1 0 0
1750 12 61.508555758357 2.731690863427005 1.3688442052049998 -1 0 0
1756 10 64.662840669042 2.731690863427005 1.3688442052049998 -1 0 0
1762 12 67.81712557972699 2.731690863427005 1.3688442052049998 -1 0 0
1768 10 70.971410490412 2.731690863427005 1.3688442052049998 -1 0 0
1774 12 74.125695401097 2.731690863427005 1.3688442052049998 -1 0 0
1780 10 77.279980311782 2.731690863427005 1.3688442052049998 -1 0 0
1786 12 80.43426522246699 2.731690863427005 1.3688442052049998 -1 0 0
1792 10 83.588550133152 2.731690863427005 1.3688442052049998 -1 0 0
1798 12 86.742835043837 2.731690863427005 1.3688442052049998 -1 0 0
1804 10 89.897119954522 2.731690863427005 1.3688442052049998 -1 0 0
1810 12 93.05140486520699 2.731690863427005 1.3688442052049998 -1 0 0
1816 10 96.205689775892 2.731690863427005 1.3688442052049998 -1 0 0
1822 12 99.359974686577 2.731690863427005 1.3688442052049998 -1 0 0
1830 4 0 3.6422544845690012 0 0 0 0
1836 8 3.154284910685 3.6422544845690012 0 0 0 0
1842 4 6.30856982137 3.6422544845690012 0 0 0 0
1848 8 9.462854732055 3.6422544845690012 0 0 0 0
1854 4 12.61713964274 3.6422544845690012 0 0 0 0
1860 8 15.771424553425007 3.6422544845690012 0 0 0 0
1866 4 18.92570946411 3.6422544845690012 0 0 0 0
1872 8 22.079994374795007 3.6422544845690012 0 0 0 0
1878 4 25.23427928548 3.6422544845690012 0 0 0 0
1884 8 28.388564196165007 3.6422544845690012 0 0 0 0
1890 4 31.54284910685 3.6422544845690012 0 0 0 0
1896 8 34.69713401753501 3.6422544845690012 0 0 0 0
1902 4 37.85141892822 3.6422544845690012 0 0 0 0
1908 8 41.005703838905006 3.6422544845690012 0 0 0 0
1914 4 44.15998874959 3.6422544845690012 0 0 0 0
1920 8 47.314273660275006 3.6422544845690012 0 0 0 0
1734 4 50.46855857096 3.6422544845690012 0 -1 0 0
1740 8 53.622843481645 3.6422544845690012 0 -1 0 0
1746 4 56.77712839233 3.6422544845690012 0 -1 0 0
1752 8 59.931413303015 3.6422544845690012 0 -1 0 0
1758 4 63.0856982137 3.6422544845690012 0 -1 0 0
1764 8 66.23998312438499 3.6422544845690012 0 -1 0 0
1770 4 69.39426803507 3.6422544845690012 0 -1 0 0
1776 8 72.548552945755 3.6422544845690012 0 -1 0 0
1782 4 75.70283785644 3.6422544845690012 0 -1 0 0
1788 8 78.85712276712499 3.6422544845690012 0 -1 0 0
1794 4 82.01140767781 3.6422544845690012 0 -1 0 0
1800 8 85.165692588495 3.6422544845690012 0 -1 0 0
1806 4 88.31997749918 3.6422544845690012 0 -1 0 0
1812 8 91.47426240986499 3.6422544845690012 0 -1 0 0
1818 4 94.62854732055 3.6422544845690012 0 -1 0 0
1824 8 97.782832231235 3.6422544845690012 0 -1 0 0
2019 2 1.577142455343001 6.373945347996006 0 0 0 0
2017 9 0 5.463381726854003 1.3688442052049998 0 0 0
2023 11 3.154284910685 5.463381726854003 1.3688442052049998 0 0 0
2025 6 4.731427366028001 6.373945347996006 0 0 0 0
2029 9 6.30856982137 5.463381726854003 1.3688442052049998 0 0 0
2031 2 7.885712276713001 6.373945347996006 0 0 0 0
2035 11 9.462854732055 5.463381726854003 1.3688442052049998 0 0 0
2037 6 11.039997187398 6.373945347996006 0 0 0 0
2041 9 12.61713964274 5.463381726854003 1.3688442052049998 0 0 0
2043 2 14.194282098083008 6.373945347996006 0 0 0 0
2047 11 15.771424553425007 5.463381726854003 1.3688442052049998 0 0 0
2049 6 17.348567008768 6.373945347996006 0 0 0 0
2053 9 18.92570946411 5.463381726854003 1.3688442052049998 0 0 0
2055 2 20.502851919453008 6.373945347996006 0 0 0 0
2059 11 22.079994374795007 5.463381726854003 1.3688442052049998 0 0 0
2061 6 23.657136830138 6.373945347996006 0 0 0 0
2065 9 25.23427928548 5.463381726854003 1.3688442052049998 0 0 0
2067 2 26.811421740823008 6.373945347996006 0 0 0 0
2071 11 28.388564196165007 5.463381726854003 1.3688442052049998 0 0 0
2073 6 29.965706651508 6.373945347996006 0 0 0 0
2077 9 31.54284910685 5.463381726854003 1.3688442052049998 0 0 0
2079 2 33.11999156219301 6.373945347996006 0 0 0 0
2083 11 34.69713401753501 5.463381726854003 1.3688442052049998 0 0 0
2085 6 36.274276472878 6.373945347996006 0 0 0 0
2089 9 37.85141892822 5.463381726854003 1.3688442052049998 0 0 0
2091 2 39.42856138356301 6.373945347996006 0 0 0 0
2095 11 41.005703838905006 5.463381726854003 1.3688442052049998 0 0 0
2097 6 42.582846294248 6.373945347996006 0 0 0 0
2101 9 44.15998874959 5.463381726854003 1.3688442052049998 0 0 0
2103 2 45.73713120493301 6.373945347996006 0 0 0 0
2107 11 47.314273660275006 5.463381726854003 1.3688442052049998 0 0 0
2109 6 48.891416115618 6.373945347996006 0 0 0 0
1921 9 50.46855857096 5.463381726854003 1.3688442052049998 -1 0 0
1923 2 52.045701026303 6.373945347996006 0 -1 0 0
1927 11 53.622843481645 5.463381726854003 1.3688442052049998 -1 0 0
1929 6 55.199985936988 6.373945347996006 0 -1 0 0
1933 9 56.77712839233 5.463381726854003 1.3688442052049998 -1 0 0
1935 2 58.354270847673 6.373945347996006 0 -1 0 0
1939 11 59.931413303015 5.463381726854003 1.3688442052049998 -1 0 0
1941 6 61.508555758358 6.373945347996006 0 -1 0 0
1945 9 63.0856982137 5.463381726854003 1.3688442052049998 -1 0 0
1947 2 64.66284066904299 6.373945347996006 0 -1 0 0
1953 6 67.817125579728 6.373945347996006 0 -1 0 0
1951 11 66.23998312438499 5.463381726854003 1.3688442052049998 -1 0 0
1957 9 69.39426803507 5.463381726854003 1.3688442052049998 -1 0 0
1959 2 70.971410490413 6.373945347996006 0 -1 0 0
1963 11 72.548552945755 5.463381726854003 1.3688442052049998 -1 0 0
1965 6 74.125695401098 6.373945347996006 0 -1 0 0
1969 9 75.70283785644 5.463381726854003 1.3688442052049998 -1 0 0
1971 2 77.27998031178299 6.373945347996006 0 -1 0 0
1975 11 78.85712276712499 5.463381726854003 1.3688442052049998 -1 0 0
1977 6 80.434265222468 6.373945347996006 0 -1 0 0
1981 9 82.01140767781 5.463381726854003 1.3688442052049998 -1 0 0
1983 2 83.588550133153 6.373945347996006 0 -1 0 0
1987 11 85.165692588495 5.463381726854003 1.3688442052049998 -1 0 0
1989 6 86.742835043838 6.373945347996006 0 -1 0 0
1993 9 88.31997749918 5.463381726854003 1.3688442052049998 -1 0 0
1995 2 89.89711995452299 6.373945347996006 0 -1 0 0
1999 11 91.47426240986499 5.463381726854003 1.3688442052049998 -1 0 0
2001 6 93.051404865208 6.373945347996006 0 -1 0 0
2005 9 94.62854732055 5.463381726854003 1.3688442052049998 -1 0 0
2007 2 96.205689775893 6.373945347996006 0 -1 0 0
2011 11 97.782832231235 5.463381726854003 1.3688442052049998 -1 0 0
2013 6 99.359974686578 6.373945347996006 0 -1 0 0
2020 10 1.577142455341999 8.195072590281 1.3688442052049998 0 0 0
2026 12 4.731427366026999 8.195072590281 1.3688442052049998 0 0 0
2032 10 7.885712276711999 8.195072590281 1.3688442052049998 0 0 0
2038 12 11.039997187396999 8.195072590281 1.3688442052049998 0 0 0
2044 10 14.194282098081999 8.195072590281 1.3688442052049998 0 0 0
2050 12 17.348567008767006 8.195072590281 1.3688442052049998 0 0 0
2056 10 20.502851919452 8.195072590281 1.3688442052049998 0 0 0
2062 12 23.657136830137006 8.195072590281 1.3688442052049998 0 0 0
2068 10 26.811421740822 8.195072590281 1.3688442052049998 0 0 0
2074 12 29.965706651507006 8.195072590281 1.3688442052049998 0 0 0
2080 10 33.119991562192 8.195072590281 1.3688442052049998 0 0 0
2086 12 36.274276472877006 8.195072590281 1.3688442052049998 0 0 0
2092 10 39.428561383562 8.195072590281 1.3688442052049998 0 0 0
2098 12 42.582846294247005 8.195072590281 1.3688442052049998 0 0 0
2104 10 45.737131204932 8.195072590281 1.3688442052049998 0 0 0
2110 12 48.891416115617005 8.195072590281 1.3688442052049998 0 0 0
1924 10 52.045701026302 8.195072590281 1.3688442052049998 -1 0 0
1930 12 55.199985936987 8.195072590281 1.3688442052049998 -1 0 0
1936 10 58.354270847672 8.195072590281 1.3688442052049998 -1 0 0
1942 12 61.508555758357 8.195072590281 1.3688442052049998 -1 0 0
1948 10 64.662840669042 8.195072590281 1.3688442052049998 -1 0 0
1954 12 67.81712557972699 8.195072590281 1.3688442052049998 -1 0 0
1960 10 70.971410490412 8.195072590281 1.3688442052049998 -1 0 0
1966 12 74.125695401097 8.195072590281 1.3688442052049998 -1 0 0
1972 10 77.279980311782 8.195072590281 1.3688442052049998 -1 0 0
1978 12 80.43426522246699 8.195072590281 1.3688442052049998 -1 0 0
1984 10 83.588550133152 8.195072590281 1.3688442052049998 -1 0 0
1990 12 86.742835043837 8.195072590281 1.3688442052049998 -1 0 0
1996 10 89.897119954522 8.195072590281 1.3688442052049998 -1 0 0
2002 12 93.05140486520699 8.195072590281 1.3688442052049998 -1 0 0
2008 10 96.205689775892 8.195072590281 1.3688442052049998 -1 0 0
2014 12 99.359974686577 8.195072590281 1.3688442052049998 -1 0 0
2022 4 0 9.105636211423004 0 0 0 0
2028 8 3.154284910685 9.105636211423004 0 0 0 0
2034 4 6.30856982137 9.105636211423004 0 0 0 0
2040 8 9.462854732055 9.105636211423004 0 0 0 0
2046 4 12.61713964274 9.105636211423004 0 0 0 0
2052 8 15.771424553425007 9.105636211423004 0 0 0 0
2058 4 18.92570946411 9.105636211423004 0 0 0 0
2064 8 22.079994374795007 9.105636211423004 0 0 0 0
2070 4 25.23427928548 9.105636211423004 0 0 0 0
2076 8 28.388564196165007 9.105636211423004 0 0 0 0
2082 4 31.54284910685 9.105636211423004 0 0 0 0
2088 8 34.69713401753501 9.105636211423004 0 0 0 0
2094 4 37.85141892822 9.105636211423004 0 0 0 0
2100 8 41.005703838905006 9.105636211423004 0 0 0 0
2106 4 44.15998874959 9.105636211423004 0 0 0 0
2112 8 47.314273660275006 9.105636211423004 0 0 0 0
1926 4 50.46855857096 9.105636211423004 0 -1 0 0
1932 8 53.622843481645 9.105636211423004 0 -1 0 0
1938 4 56.77712839233 9.105636211423004 0 -1 0 0
1944 8 59.931413303015 9.105636211423004 0 -1 0 0
1950 4 63.0856982137 9.105636211423004 0 -1 0 0
1956 8 66.23998312438499 9.105636211423004 0 -1 0 0
1962 4 69.39426803507 9.105636211423004 0 -1 0 0
1968 8 72.548552945755 9.105636211423004 0 -1 0 0
1974 4 75.70283785644 9.105636211423004 0 -1 0 0
1980 8 78.85712276712499 9.105636211423004 0 -1 0 0
1986 4 82.01140767781 9.105636211423004 0 -1 0 0
1992 8 85.165692588495 9.105636211423004 0 -1 0 0
1998 4 88.31997749918 9.105636211423004 0 -1 0 0
2004 8 91.47426240986499 9.105636211423004 0 -1 0 0
2010 4 94.62854732055 9.105636211423004 0 -1 0 0
2016 8 97.782832231235 9.105636211423004 0 -1 0 0
2209 9 0 10.926763453708006 1.3688442052049998 0 0 0
2215 11 3.154284910685 10.926763453708006 1.3688442052049998 0 0 0
2221 9 6.30856982137 10.926763453708006 1.3688442052049998 0 0 0
2227 11 9.462854732055 10.926763453708006 1.3688442052049998 0 0 0
2233 9 12.61713964274 10.926763453708006 1.3688442052049998 0 0 0
2239 11 15.771424553425007 10.926763453708006 1.3688442052049998 0 0 0
2245 9 18.92570946411 10.926763453708006 1.3688442052049998 0 0 0
2251 11 22.079994374795007 10.926763453708006 1.3688442052049998 0 0 0
2257 9 25.23427928548 10.926763453708006 1.3688442052049998 0 0 0
2263 11 28.388564196165007 10.926763453708006 1.3688442052049998 0 0 0
2269 9 31.54284910685 10.926763453708006 1.3688442052049998 0 0 0
2275 11 34.69713401753501 10.926763453708006 1.3688442052049998 0 0 0
2281 9 37.85141892822 10.926763453708006 1.3688442052049998 0 0 0
2287 11 41.005703838905006 10.926763453708006 1.3688442052049998 0 0 0
2293 9 44.15998874959 10.926763453708006 1.3688442052049998 0 0 0
2299 11 47.314273660275006 10.926763453708006 1.3688442052049998 0 0 0
2113 9 50.46855857096 10.926763453708006 1.3688442052049998 -1 0 0
2119 11 53.622843481645 10.926763453708006 1.3688442052049998 -1 0 0
2125 9 56.77712839233 10.926763453708006 1.3688442052049998 -1 0 0
2131 11 59.931413303015 10.926763453708006 1.3688442052049998 -1 0 0
2137 9 63.0856982137 10.926763453708006 1.3688442052049998 -1 0 0
2143 11 66.23998312438499 10.926763453708006 1.3688442052049998 -1 0 0
2149 9 69.39426803507 10.926763453708006 1.3688442052049998 -1 0 0
2155 11 72.548552945755 10.926763453708006 1.3688442052049998 -1 0 0
2161 9 75.70283785644 10.926763453708006 1.3688442052049998 -1 0 0
2167 11 78.85712276712499 10.926763453708006 1.3688442052049998 -1 0 0
2173 9 82.01140767781 10.926763453708006 1.3688442052049998 -1 0 0
2179 11 85.165692588495 10.926763453708006 1.3688442052049998 -1 0 0
2185 9 88.31997749918 10.926763453708006 1.3688442052049998 -1 0 0
2191 11 91.47426240986499 10.926763453708006 1.3688442052049998 -1 0 0
2197 9 94.62854732055 10.926763453708006 1.3688442052049998 -1 0 0
2203 11 97.782832231235 10.926763453708006 1.3688442052049998 -1 0 0
2211 2 1.577142455343001 11.837327074850002 0 0 0 0
2217 6 4.731427366028001 11.837327074850002 0 0 0 0
2223 2 7.885712276713001 11.837327074850002 0 0 0 0
2229 6 11.039997187398 11.837327074850002 0 0 0 0
2235 2 14.194282098083008 11.837327074850002 0 0 0 0
2241 6 17.348567008768 11.837327074850002 0 0 0 0
2247 2 20.502851919453008 11.837327074850002 0 0 0 0
2253 6 23.657136830138 11.837327074850002 0 0 0 0
2259 2 26.811421740823008 11.837327074850002 0 0 0 0
2265 6 29.965706651508 11.837327074850002 0 0 0 0
2271 2 33.11999156219301 11.837327074850002 0 0 0 0
2277 6 36.274276472878 11.837327074850002 0 0 0 0
2283 2 39.42856138356301 11.837327074850002 0 0 0 0
2289 6 42.582846294248 11.837327074850002 0 0 0 0
2295 2 45.73713120493301 11.837327074850002 0 0 0 0
2301 6 48.891416115618 11.837327074850002 0 0 0 0
2115 2 52.045701026303 11.837327074850002 0 -1 0 0
2121 6 55.199985936988 11.837327074850002 0 -1 0 0
2127 2 58.354270847673 11.837327074850002 0 -1 0 0
2133 6 61.508555758358 11.837327074850002 0 -1 0 0
2139 2 64.66284066904299 11.837327074850002 0 -1 0 0
2145 6 67.817125579728 11.837327074850002 0 -1 0 0
2151 2 70.971410490413 11.837327074850002 0 -1 0 0
2157 6 74.125695401098 11.837327074850002 0 -1 0 0
2163 2 77.27998031178299 11.837327074850002 0 -1 0 0
2169 6 80.434265222468 11.837327074850002 0 -1 0 0
2175 2 83.588550133153 11.837327074850002 0 -1 0 0
2181 6 86.742835043838 11.837327074850002 0 -1 0 0
2187 2 89.89711995452299 11.837327074850002 0 -1 0 0
2193 6 93.051404865208 11.837327074850002 0 -1 0 0
2199 2 96.205689775893 11.837327074850002 0 -1 0 0
2205 6 99.359974686578 11.837327074850002 0 -1 0 0
2214 4 0 14.569017938277 0 0 0 0
2212 10 1.577142455341999 13.658454317135003 1.3688442052049998 0 0 0
2220 8 3.154284910685 14.569017938277 0 0 0 0
2218 12 4.731427366026999 13.658454317135003 1.3688442052049998 0 0 0
2226 4 6.30856982137 14.569017938277 0 0 0 0
2224 10 7.885712276711999 13.658454317135003 1.3688442052049998 0 0 0
2232 8 9.462854732055 14.569017938277 0 0 0 0
2230 12 11.039997187396999 13.658454317135003 1.3688442052049998 0 0 0
2238 4 12.61713964274 14.569017938277 0 0 0 0
2236 10 14.194282098081999 13.658454317135003 1.3688442052049998 0 0 0
2244 8 15.771424553425007 14.569017938277 0 0 0 0
2242 12 17.348567008767006 13.658454317135003 1.3688442052049998 0 0 0
2250 4 18.92570946411 14.569017938277 0 0 0 0
2248 10 20.502851919452 13.658454317135003 1.3688442052049998 0 0 0
2256 8 22.079994374795007 14.569017938277 0 0 0 0
2254 12 23.657136830137006 13.658454317135003 1.3688442052049998 0 0 0
2262 4 25.23427928548 14.569017938277 0 0 0 0
2260 10 26.811421740822 13.658454317135003 1.3688442052049998 0 0 0
2268 8 28.388564196165007 14.569017938277 0 0 0 0
2266 12 29.965706651507006 13.658454317135003 1.3688442052049998 0 0 0
2274 4 31.54284910685 14.569017938277 0 0 0 0
2280 8 34.69713401753501 14.569017938277 0 0 0 0
2272 10 33.119991562192 13.658454317135003 1.3688442052049998 0 0 0
2278 12 36.274276472877006 13.658454317135003 1.3688442052049998 0 0 0
2286 4 37.85141892822 14.569017938277 0 0 0 0
2284 10 39.428561383562 13.658454317135003 1.3688442052049998 0 0 0
2292 8 41.005703838905006 14.569017938277 0 0 0 0
2290 12 42.582846294247005 13.658454317135003 1.3688442052049998 0 0 0
2298 4 44.15998874959 14.569017938277 0 0 0 0
2296 10 45.737131204932 13.658454317135003 1.3688442052049998 0 0 0
2304 8 47.314273660275006 14.569017938277 0 0 0 0
2302 12 48.891416115617005 13.658454317135003 1.3688442052049998 0 0 0
2118 4 50.46855857096 14.569017938277 0 -1 0 0
2116 10 52.045701026302 13.658454317135003 1.3688442052049998 -1 0 0
2124 8 53.622843481645 14.569017938277 0 -1 0 0
2122 12 55.199985936987 13.658454317135003 1.3688442052049998 -1 0 0
2130 4 56.77712839233 14.569017938277 0 -1 0 0
2128 10 58.354270847672 13.658454317135003 1.3688442052049998 -1 0 0
2136 8 59.931413303015 14.569017938277 0 -1 0 0
2134 12 61.508555758357 13.658454317135003 1.3688442052049998 -1 0 0
2142 4 63.0856982137 14.569017938277 0 -1 0 0
2140 10 64.662840669042 13.658454317135003 1.3688442052049998 -1 0 0
2148 8 66.23998312438499 14.569017938277 0 -1 0 0
2146 12 67.81712557972699 13.658454317135003 1.3688442052049998 -1 0 0
2154 4 69.39426803507 14.569017938277 0 -1 0 0
2152 10 70.971410490412 13.658454317135003 1.3688442052049998 -1 0 0
2160 8 72.548552945755 14.569017938277 0 -1 0 0
2158 12 74.125695401097 13.658454317135003 1.3688442052049998 -1 0 0
2166 4 75.70283785644 14.569017938277 0 -1 0 0
2164 10 77.279980311782 13.658454317135003 1.3688442052049998 -1 0 0
2172 8 78.85712276712499 14.569017938277 0 -1 0 0
2170 12 80.43426522246699 13.658454317135003 1.3688442052049998 -1 0 0
2178 4 82.01140767781 14.569017938277 0 -1 0 0
2176 10 83.588550133152 13.658454317135003 1.3688442052049998 -1 0 0
2184 8 85.165692588495 14.569017938277 0 -1 0 0
2182 12 86.742835043837 13.658454317135003 1.3688442052049998 -1 0 0
2190 4 88.31997749918 14.569017938277 0 -1 0 0
2188 10 89.897119954522 13.658454317135003 1.3688442052049998 -1 0 0
2196 8 91.47426240986499 14.569017938277 0 -1 0 0
2194 12 93.05140486520699 13.658454317135003 1.3688442052049998 -1 0 0
2202 4 94.62854732055 14.569017938277 0 -1 0 0
2200 10 96.205689775892 13.658454317135003 1.3688442052049998 -1 0 0
2208 8 97.782832231235 14.569017938277 0 -1 0 0
2206 12 99.359974686577 13.658454317135003 1.3688442052049998 -1 0 0
2401 9 0 16.39014518056201 1.3688442052049998 0 0 0
2407 11 3.154284910685 16.39014518056201 1.3688442052049998 0 0 0
2413 9 6.30856982137 16.39014518056201 1.3688442052049998 0 0 0
2419 11 9.462854732055 16.39014518056201 1.3688442052049998 0 0 0
2425 9 12.61713964274 16.39014518056201 1.3688442052049998 0 0 0
2431 11 15.771424553425007 16.39014518056201 1.3688442052049998 0 0 0
2437 9 18.92570946411 16.39014518056201 1.3688442052049998 0 0 0
2443 11 22.079994374795007 16.39014518056201 1.3688442052049998 0 0 0
2449 9 25.23427928548 16.39014518056201 1.3688442052049998 0 0 0
2455 11 28.388564196165007 16.39014518056201 1.3688442052049998 0 0 0
2461 9 31.54284910685 16.39014518056201 1.3688442052049998 0 0 0
2467 11 34.69713401753501 16.39014518056201 1.3688442052049998 0 0 0
2473 9 37.85141892822 16.39014518056201 1.3688442052049998 0 0 0
2479 11 41.005703838905006 16.39014518056201 1.3688442052049998 0 0 0
2485 9 44.15998874959 16.39014518056201 1.3688442052049998 0 0 0
2491 11 47.314273660275006 16.39014518056201 1.3688442052049998 0 0 0
2305 9 50.46855857096 16.39014518056201 1.3688442052049998 -1 0 0
2311 11 53.622843481645 16.39014518056201 1.3688442052049998 -1 0 0
2317 9 56.77712839233 16.39014518056201 1.3688442052049998 -1 0 0
2323 11 59.931413303015 16.39014518056201 1.3688442052049998 -1 0 0
2329 9 63.0856982137 16.39014518056201 1.3688442052049998 -1 0 0
2335 11 66.23998312438499 16.39014518056201 1.3688442052049998 -1 0 0
2341 9 69.39426803507 16.39014518056201 1.3688442052049998 -1 0 0
2347 11 72.548552945755 16.39014518056201 1.3688442052049998 -1 0 0
2353 9 75.70283785644 16.39014518056201 1.3688442052049998 -1 0 0
2359 11 78.85712276712499 16.39014518056201 1.3688442052049998 -1 0 0
2365 9 82.01140767781 16.39014518056201 1.3688442052049998 -1 0 0
2371 11 85.165692588495 16.39014518056201 1.3688442052049998 -1 0 0
2377 9 88.31997749918 16.39014518056201 1.3688442052049998 -1 0 0
2383 11 91.47426240986499 16.39014518056201 1.3688442052049998 -1 0 0
2389 9 94.62854732055 16.39014518056201 1.3688442052049998 -1 0 0
2395 11 97.782832231235 16.39014518056201 1.3688442052049998 -1 0 0
2403 2 1.577142455343001 17.300708801703998 0 0 0 0
2409 6 4.731427366028001 17.300708801703998 0 0 0 0
2415 2 7.885712276713001 17.300708801703998 0 0 0 0
2421 6 11.039997187398 17.300708801703998 0 0 0 0
2427 2 14.194282098083008 17.300708801703998 0 0 0 0
2433 6 17.348567008768 17.300708801703998 0 0 0 0
2439 2 20.502851919453008 17.300708801703998 0 0 0 0
2445 6 23.657136830138 17.300708801703998 0 0 0 0
2451 2 26.811421740823008 17.300708801703998 0 0 0 0
2457 6 29.965706651508 17.300708801703998 0 0 0 0
2463 2 33.11999156219301 17.300708801703998 0 0 0 0
2469 6 36.274276472878 17.300708801703998 0 0 0 0
2475 2 39.42856138356301 17.300708801703998 0 0 0 0
2481 6 42.582846294248 17.300708801703998 0 0 0 0
2487 2 45.73713120493301 17.300708801703998 0 0 0 0
2493 6 48.891416115618 17.300708801703998 0 0 0 0
2307 2 52.045701026303 17.300708801703998 0 -1 0 0
2313 6 55.199985936988 17.300708801703998 0 -1 0 0
2319 2 58.354270847673 17.300708801703998 0 -1 0 0
2325 6 61.508555758358 17.300708801703998 0 -1 0 0
2331 2 64.66284066904299 17.300708801703998 0 -1 0 0
2337 6 67.817125579728 17.300708801703998 0 -1 0 0
2343 2 70.971410490413 17.300708801703998 0 -1 0 0
2349 6 74.125695401098 17.300708801703998 0 -1 0 0
2355 2 77.27998031178299 17.300708801703998 0 -1 0 0
2361 6 80.434265222468 17.300708801703998 0 -1 0 0
2367 2 83.588550133153 17.300708801703998 0 -1 0 0
2373 6 86.742835043838 17.300708801703998 0 -1 0 0
2379 2 89.89711995452299 17.300708801703998 0 -1 0 0
2385 6 93.051404865208 17.300708801703998 0 -1 0 0
2391 2 96.205689775893 17.300708801703998 0 -1 0 0
2397 6 99.359974686578 17.300708801703998 0 -1 0 0
2404 10 1.577142455341999 19.121836043989 1.3688442052049998 0 0 0
2410 12 4.731427366026999 19.121836043989 1.3688442052049998 0 0 0
2416 10 7.885712276711999 19.121836043989 1.3688442052049998 0 0 0
2422 12 11.039997187396999 19.121836043989 1.3688442052049998 0 0 0
2428 10 14.194282098081999 19.121836043989 1.3688442052049998 0 0 0
2434 12 17.348567008767006 19.121836043989 1.3688442052049998 0 0 0
2440 10 20.502851919452 19.121836043989 1.3688442052049998 0 0 0
2446 12 23.657136830137006 19.121836043989 1.3688442052049998 0 0 0
2452 10 26.811421740822 19.121836043989 1.3688442052049998 0 0 0
2458 12 29.965706651507006 19.121836043989 1.3688442052049998 0 0 0
2464 10 33.119991562192 19.121836043989 1.3688442052049998 0 0 0
2470 12 36.274276472877006 19.121836043989 1.3688442052049998 0 0 0
2476 10 39.428561383562 19.121836043989 1.3688442052049998 0 0 0
2482 12 42.582846294247005 19.121836043989 1.3688442052049998 0 0 0
2488 10 45.737131204932 19.121836043989 1.3688442052049998 0 0 0
2494 12 48.891416115617005 19.121836043989 1.3688442052049998 0 0 0
2308 10 52.045701026302 19.121836043989 1.3688442052049998 -1 0 0
2314 12 55.199985936987 19.121836043989 1.3688442052049998 -1 0 0
2320 10 58.354270847672 19.121836043989 1.3688442052049998 -1 0 0
2326 12 61.508555758357 19.121836043989 1.3688442052049998 -1 0 0
2332 10 64.662840669042 19.121836043989 1.3688442052049998 -1 0 0
2338 12 67.81712557972699 19.121836043989 1.3688442052049998 -1 0 0
2344 10 70.971410490412 19.121836043989 1.3688442052049998 -1 0 0
2350 12 74.125695401097 19.121836043989 1.3688442052049998 -1 0 0
2356 10 77.279980311782 19.121836043989 1.3688442052049998 -1 0 0
2362 12 80.43426522246699 19.121836043989 1.3688442052049998 -1 0 0
2368 10 83.588550133152 19.121836043989 1.3688442052049998 -1 0 0
2374 12 86.742835043837 19.121836043989 1.3688442052049998 -1 0 0
2380 10 89.897119954522 19.121836043989 1.3688442052049998 -1 0 0
2386 12 93.05140486520699 19.121836043989 1.3688442052049998 -1 0 0
2392 10 96.205689775892 19.121836043989 1.3688442052049998 -1 0 0
2398 12 99.359974686577 19.121836043989 1.3688442052049998 -1 0 0
2406 4 0 20.032399665131003 0 0 0 0
2412 8 3.154284910685 20.032399665131003 0 0 0 0
2418 4 6.30856982137 20.032399665131003 0 0 0 0
2424 8 9.462854732055 20.032399665131003 0 0 0 0
2430 4 12.61713964274 20.032399665131003 0 0 0 0
2436 8 15.771424553425007 20.032399665131003 0 0 0 0
2442 4 18.92570946411 20.032399665131003 0 0 0 0
2448 8 22.079994374795007 20.032399665131003 0 0 0 0
2454 4 25.23427928548 20.032399665131003 0 0 0 0
2460 8 28.388564196165007 20.032399665131003 0 0 0 0
2466 4 31.54284910685 20.032399665131003 0 0 0 0
2472 8 34.69713401753501 20.032399665131003 0 0 0 0
2478 4 37.85141892822 20.032399665131003 0 0 0 0
2484 8 41.005703838905006 20.032399665131003 0 0 0 0
2490 4 44.15998874959 20.032399665131003 0 0 0 0
2496 8 47.314273660275006 20.032399665131003 0 0 0 0
2310 4 50.46855857096 20.032399665131003 0 -1 0 0
2316 8 53.622843481645 20.032399665131003 0 -1 0 0
2322 4 56.77712839233 20.032399665131003 0 -1 0 0
2328 8 59.931413303015 20.032399665131003 0 -1 0 0
2334 4 63.0856982137 20.032399665131003 0 -1 0 0
2340 8 66.23998312438499 20.032399665131003 0 -1 0 0
2346 4 69.39426803507 20.032399665131003 0 -1 0 0
2352 8 72.548552945755 20.032399665131003 0 -1 0 0
2358 4 75.70283785644 20.032399665131003 0 -1 0 0
2364 8 78.85712276712499 20.032399665131003 0 -1 0 0
2370 4 82.01140767781 20.032399665131003 0 -1 0 0
2376 8 85.165692588495 20.032399665131003 0 -1 0 0
2382 4 88.31997749918 20.032399665131003 0 -1 0 0
2388 8 91.47426240986499 20.032399665131003 0 -1 0 0
2394 4 94.62854732055 20.032399665131003 0 -1 0 0
2400 8 97.782832231235 20.032399665131003 0 -1 0 0
2595 2 1.577142455343001 22.764090528558008 0 0 0 0
2593 9 0 21.853526907416004 1.3688442052049998 0 0 0