LAMMPS data file via write_data, version 29 Aug 2024, timestep = 0, units = metal

3762 atoms
3 atom types

0 101.2836 xlo xhi
0 101.00419643321 ylo yhi
0 106 zlo zhi

Masses

1 97.90721000000001
2 32.06
3 32.06

Atoms # atomic

1884 1 0 0 1.6073999999999984 0 0 0
1890 1 3.069199999999995 0 1.6073999999999984 0 0 0
1896 1 6.138399999999997 0 1.6073999999999984 0 0 0
1902 1 9.2076 0 1.6073999999999984 0 0 0
1908 1 12.276799999999994 0 1.6073999999999984 0 0 0
1914 1 15.34599999999999 0 1.6073999999999984 0 0 0
1920 1 18.4152 0 1.6073999999999984 0 0 0
1926 1 21.484399999999994 0 1.6073999999999984 0 0 0
1932 1 24.553600000000003 0 1.6073999999999984 0 0 0
1938 1 27.622799999999998 0 1.6073999999999984 0 0 0
1944 1 30.691999999999993 0 1.6073999999999984 0 0 0
1950 1 33.7612 0 1.6073999999999984 0 0 0
1956 1 36.8304 0 1.6073999999999984 0 0 0
1962 1 39.89959999999999 0 1.6073999999999984 0 0 0
1968 1 42.9688 0 1.6073999999999984 0 0 0
1974 1 46.038 0 1.6073999999999984 0 0 0
1980 1 49.10719999999999 0 1.6073999999999984 0 0 0
1788 1 52.1764 0 1.6073999999999984 -1 0 0
1794 1 55.2456 0 1.6073999999999984 -1 0 0
1800 1 58.314800000000005 0 1.6073999999999984 -1 0 0
1806 1 61.384 0 1.6073999999999984 -1 0 0
1812 1 64.45320000000001 0 1.6073999999999984 -1 0 0
1818 1 67.5224 0 1.6073999999999984 -1 0 0
1824 1 70.5916 0 1.6073999999999984 -1 0 0
1830 1 73.6608 0 1.6073999999999984 -1 0 0
1836 1 76.73 0 1.6073999999999984 -1 0 0
1842 1 79.7992 0 1.6073999999999984 -1 0 0
1848 1 82.86840000000001 0 1.6073999999999984 -1 0 0
1854 1 85.9376 0 1.6073999999999984 -1 0 0
1860 1 89.0068 0 1.6073999999999984 -1 0 0
1866 1 92.076 0 1.6073999999999984 -1 0 0
1872 1 95.1452 0 1.6073999999999984 -1 0 0
1878 1 98.21440000000001 0 1.6073999999999984 -1 0 0
1880 3 0 1.7720034461970045 0 0 0 0
2087 1 1.5345999999999975 2.658005169295002 1.6073999999999984 0 0 0
1886 3 3.069199999999995 1.7720034461970045 0 0 0 0
2093 1 4.6038 2.658005169295002 1.6073999999999984 0 0 0
1892 3 6.138399999999997 1.7720034461970045 0 0 0 0
2099 1 7.672999999999995 2.658005169295002 1.6073999999999984 0 0 0
1898 3 9.2076 1.7720034461970045 0 0 0 0
2105 1 10.742199999999997 2.658005169295002 1.6073999999999984 0 0 0
1904 3 12.276799999999994 1.7720034461970045 0 0 0 0
2111 1 13.811399999999992 2.658005169295002 1.6073999999999984 0 0 0
1910 3 15.34599999999999 1.7720034461970045 0 0 0 0
2117 1 16.8806 2.658005169295002 1.6073999999999984 0 0 0
1916 3 18.4152 1.7720034461970045 0 0 0 0
2123 1 19.949799999999996 2.658005169295002 1.6073999999999984 0 0 0
1922 3 21.484399999999994 1.7720034461970045 0 0 0 0
2129 1 23.01899999999999 2.658005169295002 1.6073999999999984 0 0 0
1928 3 24.553600000000003 1.7720034461970045 0 0 0 0
2135 1 26.0882 2.658005169295002 1.6073999999999984 0 0 0
1934 3 27.622799999999998 1.7720034461970045 0 0 0 0
2141 1 29.157399999999996 2.658005169295002 1.6073999999999984 0 0 0
1940 3 30.691999999999993 1.7720034461970045 0 0 0 0
2147 1 32.22659999999999 2.658005169295002 1.6073999999999984 0 0 0
1946 3 33.7612 1.7720034461970045 0 0 0 0
2153 1 35.2958 2.658005169295002 1.6073999999999984 0 0 0
1952 3 36.8304 1.7720034461970045 0 0 0 0
2159 1 38.364999999999995 2.658005169295002 1.6073999999999984 0 0 0
1958 3 39.89959999999999 1.7720034461970045 0 0 0 0
2165 1 41.43419999999999 2.658005169295002 1.6073999999999984 0 0 0
1964 3 42.9688 1.7720034461970045 0 0 0 0
2171 1 44.5034 2.658005169295002 1.6073999999999984 0 0 0
1970 3 46.038 1.7720034461970045 0 0 0 0
2177 1 47.572599999999994 2.658005169295002 1.6073999999999984 0 0 0
1976 3 49.10719999999999 1.7720034461970045 0 0 0 0
1784 3 52.1764 1.7720034461970045 0 -1 0 0
1985 1 50.6418 2.658005169295002 1.6073999999999984 -1 0 0
1991 1 53.711000000000006 2.658005169295002 1.6073999999999984 -1 0 0
1790 3 55.2456 1.7720034461970045 0 -1 0 0
1997 1 56.7802 2.658005169295002 1.6073999999999984 -1 0 0
1796 3 58.314800000000005 1.7720034461970045 0 -1 0 0
2003 1 59.8494 2.658005169295002 1.6073999999999984 -1 0 0
1802 3 61.384 1.7720034461970045 0 -1 0 0
1808 3 64.45320000000001 1.7720034461970045 0 -1 0 0
2009 1 62.918600000000005 2.658005169295002 1.6073999999999984 -1 0 0
2015 1 65.98780000000001 2.658005169295002 1.6073999999999984 -1 0 0
1814 3 67.5224 1.7720034461970045 0 -1 0 0
2021 1 69.057 2.658005169295002 1.6073999999999984 -1 0 0
1820 3 70.5916 1.7720034461970045 0 -1 0 0
2027 1 72.12620000000001 2.658005169295002 1.6073999999999984 -1 0 0
1826 3 73.6608 1.7720034461970045 0 -1 0 0
1832 3 76.73 1.7720034461970045 0 -1 0 0
2033 1 75.1954 2.658005169295002 1.6073999999999984 -1 0 0
2039 1 78.2646 2.658005169295002 1.6073999999999984 -1 0 0
1838 3 79.7992 1.7720034461970045 0 -1 0 0
2045 1 81.3338 2.658005169295002 1.6073999999999984 -1 0 0
1844 3 82.86840000000001 1.7720034461970045 0 -1 0 0
2051 1 84.403 2.658005169295002 1.6073999999999984 -1 0 0
1850 3 85.9376 1.7720034461970045 0 -1 0 0
1856 3 89.0068 1.7720034461970045 0 -1 0 0
2057 1 87.4722 2.658005169295002 1.6073999999999984 -1 0 0
2063 1 90.54140000000001 2.658005169295002 1.6073999999999984 -1 0 0
1862 3 92.076 1.7720034461970045 0 -1 0 0
2069 1 93.6106 2.658005169295002 1.6073999999999984 -1 0 0
1868 3 95.1452 1.7720034461970045 0 -1 0 0
2075 1 96.6798 2.658005169295002 1.6073999999999984 -1 0 0
1874 3 98.21440000000001 1.7720034461970045 0 -1 0 0
2081 1 99.749 2.658005169295002 1.6073999999999984 -1 0 0
2083 3 1.5345999999999975 4.4300086154919995 0 0 0 0
2089 3 4.6038 4.4300086154919995 0 0 0 0
2095 3 7.672999999999995 4.4300086154919995 0 0 0 0
2101 3 10.742199999999997 4.4300086154919995 0 0 0 0
2107 3 13.811399999999992 4.4300086154919995 0 0 0 0
2113 3 16.8806 4.4300086154919995 0 0 0 0
2119 3 19.949799999999996 4.4300086154919995 0 0 0 0
2125 3 23.01899999999999 4.4300086154919995 0 0 0 0
2131 3 26.0882 4.4300086154919995 0 0 0 0
2137 3 29.157399999999996 4.4300086154919995 0 0 0 0
2143 3 32.22659999999999 4.4300086154919995 0 0 0 0
2149 3 35.2958 4.4300086154919995 0 0 0 0
2155 3 38.364999999999995 4.4300086154919995 0 0 0 0
2161 3 41.43419999999999 4.4300086154919995 0 0 0 0
2167 3 44.5034 4.4300086154919995 0 0 0 0
2173 3 47.572599999999994 4.4300086154919995 0 0 0 0
1981 3 50.6418 4.4300086154919995 0 -1 0 0
1987 3 53.711000000000006 4.4300086154919995 0 -1 0 0
1993 3 56.7802 4.4300086154919995 0 -1 0 0
1999 3 59.8494 4.4300086154919995 0 -1 0 0
2005 3 62.918600000000005 4.4300086154919995 0 -1 0 0
2011 3 65.98780000000001 4.4300086154919995 0 -1 0 0
2017 3 69.057 4.4300086154919995 0 -1 0 0
2023 3 72.12620000000001 4.4300086154919995 0 -1 0 0
2029 3 75.1954 4.4300086154919995 0 -1 0 0
2035 3 78.2646 4.4300086154919995 0 -1 0 0
2041 3 81.3338 4.4300086154919995 0 -1 0 0
2047 3 84.403 4.4300086154919995 0 -1 0 0
2053 3 87.4722 4.4300086154919995 0 -1 0 0
2059 3 90.54140000000001 4.4300086154919995 0 -1 0 0
2065 3 93.6106 4.4300086154919995 0 -1 0 0
2071 3 96.6798 4.4300086154919995 0 -1 0 0
2077 3 99.749 4.4300086154919995 0 -1 0 0
2082 1 0 5.316010338590004 1.6073999999999984 0 0 0
2088 1 3.069199999999995 5.316010338590004 1.6073999999999984 0 0 0
2094 1 6.138399999999997 5.316010338590004 1.6073999999999984 0 0 0
2100 1 9.2076 5.316010338590004 1.6073999999999984 0 0 0
2106 1 12.276799999999994 5.316010338590004 1.6073999999999984 0 0 0
2112 1 15.34599999999999 5.316010338590004 1.6073999999999984 0 0 0
2118 1 18.4152 5.316010338590004 1.6073999999999984 0 0 0
2124 1 21.484399999999994 5.316010338590004 1.6073999999999984 0 0 0
2130 1 24.553600000000003 5.316010338590004 1.6073999999999984 0 0 0
2136 1 27.622799999999998 5.316010338590004 1.6073999999999984 0 0 0
2142 1 30.691999999999993 5.316010338590004 1.6073999999999984 0 0 0
2148 1 33.7612 5.316010338590004 1.6073999999999984 0 0 0
2154 1 36.8304 5.316010338590004 1.6073999999999984 0 0 0
2160 1 39.89959999999999 5.316010338590004 1.6073999999999984 0 0 0
2166 1 42.9688 5.316010338590004 1.6073999999999984 0 0 0
2172 1 46.038 5.316010338590004 1.6073999999999984 0 0 0
2178 1 49.10719999999999 5.316010338590004 1.6073999999999984 0 0 0
1986 1 52.1764 5.316010338590004 1.6073999999999984 -1 0 0
1992 1 55.2456 5.316010338590004 1.6073999999999984 -1 0 0
1998 1 58.314800000000005 5.316010338590004 1.6073999999999984 -1 0 0
2004 1 61.384 5.316010338590004 1.6073999999999984 -1 0 0
2010 1 64.45320000000001 5.316010338590004 1.6073999999999984 -1 0 0
2016 1 67.5224 5.316010338590004 1.6073999999999984 -1 0 0
2022 1 70.5916 5.316010338590004 1.6073999999999984 -1 0 0
2028 1 73.6608 5.316010338590004 1.6073999999999984 -1 0 0
2034 1 76.73 5.316010338590004 1.6073999999999984 -1 0 0
2040 1 79.7992 5.316010338590004 1.6073999999999984 -1 0 0
2046 1 82.86840000000001 5.316010338590004 1.6073999999999984 -1 0 0
2052 1 85.9376 5.316010338590004 1.6073999999999984 -1 0 0
2058 1 89.0068 5.316010338590004 1.6073999999999984 -1 0 0
2064 1 92.076 5.316010338590004 1.6073999999999984 -1 0 0
2070 1 95.1452 5.316010338590004 1.6073999999999984 -1 0 0
2076 1 98.21440000000001 5.316010338590004 1.6073999999999984 -1 0 0
2078 3 0 7.088013784787002 0 0 0 0
2285 1 1.5345999999999975 7.9740155078849995 1.6073999999999984 0 0 0
2084 3 3.069199999999995 7.088013784787002 0 0 0 0
2291 1 4.6038 7.9740155078849995 1.6073999999999984 0 0 0
2090 3 6.138399999999997 7.088013784787002 0 0 0 0
2297 1 7.672999999999995 7.9740155078849995 1.6073999999999984 0 0 0
2096 3 9.2076 7.088013784787002 0 0 0 0
2303 1 10.742199999999997 7.9740155078849995 1.6073999999999984 0 0 0
2102 3 12.276799999999994 7.088013784787002 0 0 0 0
2309 1 13.811399999999992 7.9740155078849995 1.6073999999999984 0 0 0
2108 3 15.34599999999999 7.088013784787002 0 0 0 0
2315 1 16.8806 7.9740155078849995 1.6073999999999984 0 0 0
2114 3 18.4152 7.088013784787002 0 0 0 0
2321 1 19.949799999999996 7.9740155078849995 1.6073999999999984 0 0 0
2120 3 21.484399999999994 7.088013784787002 0 0 0 0
2327 1 23.01899999999999 7.9740155078849995 1.6073999999999984 0 0 0
2126 3 24.553600000000003 7.088013784787002 0 0 0 0
2333 1 26.0882 7.9740155078849995 1.6073999999999984 0 0 0
2132 3 27.622799999999998 7.088013784787002 0 0 0 0
2339 1 29.157399999999996 7.9740155078849995 1.6073999999999984 0 0 0
2138 3 30.691999999999993 7.088013784787002 0 0 0 0
2345 1 32.22659999999999 7.9740155078849995 1.6073999999999984 0 0 0
2144 3 33.7612 7.088013784787002 0 0 0 0
2351 1 35.2958 7.9740155078849995 1.6073999999999984 0 0 0
2150 3 36.8304 7.088013784787002 0 0 0 0
2357 1 38.364999999999995 7.9740155078849995 1.6073999999999984 0 0 0
2156 3 39.89959999999999 7.088013784787002 0 0 0 0
2363 1 41.43419999999999 7.9740155078849995 1.6073999999999984 0 0 0
2162 3 42.9688 7.088013784787002 0 0 0 0
2369 1 44.5034 7.9740155078849995 1.6073999999999984 0 0 0
2168 3 46.038 7.088013784787002 0 0 0 0
2375 1 47.572599999999994 7.9740155078849995 1.6073999999999984 0 0 0
2174 3 49.10719999999999 7.088013784787002 0 0 0 0
1982 3 52.1764 7.088013784787002 0 -1 0 0
2183 1 50.6418 7.9740155078849995 1.6073999999999984 -1 0 0
2189 1 53.711000000000006 7.9740155078849995 1.6073999999999984 -1 0 0
1988 3 55.2456 7.088013784787002 0 -1 0 0
2195 1 56.7802 7.9740155078849995 1.6073999999999984 -1 0 0
1994 3 58.314800000000005 7.088013784787002 0 -1 0 0
2201 1 59.8494 7.9740155078849995 1.6073999999999984 -1 0 0
2000 3 61.384 7.088013784787002 0 -1 0 0
2006 3 64.45320000000001 7.088013784787002 0 -1 0 0
2207 1 62.918600000000005 7.9740155078849995 1.6073999999999984 -1 0 0
2213 1 65.98780000000001 7.9740155078849995 1.6073999999999984 -1 0 0
2012 3 67.5224 7.088013784787002 0 -1 0 0
2219 1 69.057 7.9740155078849995 1.6073999999999984 -1 0 0
2018 3 70.5916 7.088013784787002 0 -1 0 0
2225 1 72.12620000000001 7.9740155078849995 1.6073999999999984 -1 0 0
2024 3 73.6608 7.088013784787002 0 -1 0 0
2030 3 76.73 7.088013784787002 0 -1 0 0
2231 1 75.1954 7.9740155078849995 1.6073999999999984 -1 0 0
2237 1 78.2646 7.9740155078849995 1.6073999999999984 -1 0 0
2036 3 79.7992 7.088013784787002 0 -1 0 0
2243 1 81.3338 7.9740155078849995 1.6073999999999984 -1 0 0
2042 3 82.86840000000001 7.088013784787002 0 -1 0 0
2249 1 84.403 7.9740155078849995 1.6073999999999984 -1 0 0
2048 3 85.9376 7.088013784787002 0 -1 0 0
2054 3 89.0068 7.088013784787002 0 -1 0 0
2255 1 87.4722 7.9740155078849995 1.6073999999999984 -1 0 0
2261 1 90.54140000000001 7.9740155078849995 1.6073999999999984 -1 0 0
2060 3 92.076 7.088013784787002 0 -1 0 0
2267 1 93.6106 7.9740155078849995 1.6073999999999984 -1 0 0
2066 3 95.1452 7.088013784787002 0 -1 0 0
2273 1 96.6798 7.9740155078849995 1.6073999999999984 -1 0 0
2072 3 98.21440000000001 7.088013784787002 0 -1 0 0
2279 1 99.749 7.9740155078849995 1.6073999999999984 -1 0 0
2281 3 1.5345999999999975 9.746018954082004 0 0 0 0
2287 3 4.6038 9.746018954082004 0 0 0 0
2293 3 7.672999999999995 9.746018954082004 0 0 0 0
2299 3 10.742199999999997 9.746018954082004 0 0 0 0
2305 3 13.811399999999992 9.746018954082004 0 0 0 0
2311 3 16.8806 9.746018954082004 0 0 0 0
2317 3 19.949799999999996 9.746018954082004 0 0 0 0
2323 3 23.01899999999999 9.746018954082004 0 0 0 0
2329 3 26.0882 9.746018954082004 0 0 0 0
2335 3 29.157399999999996 9.746018954082004 0 0 0 0
2341 3 32.22659999999999 9.746018954082004 0 0 0 0
2347 3 35.2958 9.746018954082004 0 0 0 0
2353 3 38.364999999999995 9.746018954082004 0 0 0 0
2359 3 41.43419999999999 9.746018954082004 0 0 0 0
2365 3 44.5034 9.746018954082004 0 0 0 0
2371 3 47.572599999999994 9.746018954082004 0 0 0 0
2179 3 50.6418 9.746018954082004 0 -1 0 0
2185 3 53.711000000000006 9.746018954082004 0 -1 0 0
2191 3 56.7802 9.746018954082004 0 -1 0 0
2197 3 59.8494 9.746018954082004 0 -1 0 0
2203 3 62.918600000000005 9.746018954082004 0 -1 0 0
2209 3 65.98780000000001 9.746018954082004 0 -1 0 0
2215 3 69.057 9.746018954082004 0 -1 0 0
2221 3 72.12620000000001 9.746018954082004 0 -1 0 0
2227 3 75.1954 9.746018954082004 0 -1 0 0
2233 3 78.2646 9.746018954082004 0 -1 0 0
2239 3 81.3338 9.746018954082004 0 -1 0 0
2245 3 84.403 9.746018954082004 0 -1 0 0
2251 3 87.4722 9.746018954082004 0 -1 0 0
2257 3 90.54140000000001 9.746018954082004 0 -1 0 0
2263 3 93.6106 9.746018954082004 0 -1 0 0
2269 3 96.6798 9.746018954082004 0 -1 0 0
2275 3 99.749 9.746018954082004 0 -1 0 0
2280 1 0 10.632020677180002 1.6073999999999984 0 0 0
2286 1 3.069199999999995 10.632020677180002 1.6073999999999984 0 0 0
2292 1 6.138399999999997 10.632020677180002 1.6073999999999984 0 0 0
2298 1 9.2076 10.632020677180002 1.6073999999999984 0 0 0
2304 1 12.276799999999994 10.632020677180002 1.6073999999999984 0 0 0
2310 1 15.34599999999999 10.632020677180002 1.6073999999999984 0 0 0
2316 1 18.4152 10.632020677180002 1.6073999999999984 0 0 0
2322 1 21.484399999999994 10.632020677180002 1.6073999999999984 0 0 0
2328 1 24.553600000000003 10.632020677180002 1.6073999999999984 0 0 0
2334 1 27.622799999999998 10.632020677180002 1.6073999999999984 0 0 0
2340 1 30.691999999999993 10.632020677180002 1.6073999999999984 0 0 0
2346 1 33.7612 10.632020677180002 1.6073999999999984 0 0 0
2352 1 36.8304 10.632020677180002 1.6073999999999984 0 0 0
2358 1 39.89959999999999 10.632020677180002 1.6073999999999984 0 0 0
2364 1 42.9688 10.632020677180002 1.6073999999999984 0 0 0
2370 1 46.038 10.632020677180002 1.6073999999999984 0 0 0
2376 1 49.10719999999999 10.632020677180002 1.6073999999999984 0 0 0
2184 1 52.1764 10.632020677180002 1.6073999999999984 -1 0 0
2190 1 55.2456 10.632020677180002 1.6073999999999984 -1 0 0
2196 1 58.314800000000005 10.632020677180002 1.6073999999999984 -1 0 0
2202 1 61.384 10.632020677180002 1.6073999999999984 -1 0 0
2208 1 64.45320000000001 10.632020677180002 1.6073999999999984 -1 0 0
2214 1 67.5224 10.632020677180002 1.6073999999999984 -1 0 0
2220 1 70.5916 10.632020677180002 1.6073999999999984 -1 0 0
2226 1 73.6608 10.632020677180002 1.6073999999999984 -1 0 0
2232 1 76.73 10.632020677180002 1.6073999999999984 -1 0 0
2238 1 79.7992 10.632020677180002 1.6073999999999984 -1 0 0
2244 1 82.86840000000001 10.632020677180002 1.6073999999999984 -1 0 0
2250 1 85.9376 10.632020677180002 1.6073999999999984 -1 0 0
2256 1 89.0068 10.632020677180002 1.6073999999999984 -1 0 0
2262 1 92.076 10.632020677180002 1.6073999999999984 -1 0 0
2268 1 95.1452 10.632020677180002 1.6073999999999984 -1 0 0
2274 1 98.21440000000001 10.632020677180002 1.6073999999999984 -1 0 0
2276 3 0 12.404024123376999 0 0 0 0
2483 1 1.5345999999999975 13.290025846475004 1.6073999999999984 0 0 0
2282 3 3.069199999999995 12.404024123376999 0 0 0 0
2489 1 4.6038 13.290025846475004 1.6073999999999984 0 0 0
2288 3 6.138399999999997 12.404024123376999 0 0 0 0
2495 1 7.672999999999995 13.290025846475004 1.6073999999999984 0 0 0
2294 3 9.2076 12.404024123376999 0 0 0 0
2501 1 10.742199999999997 13.290025846475004 1.6073999999999984 0 0 0
2300 3 12.276799999999994 12.404024123376999 0 0 0 0
2507 1 13.811399999999992 13.290025846475004 1.6073999999999984 0 0 0
2306 3 15.34599999999999 12.404024123376999 0 0 0 0
2513 1 16.8806 13.290025846475004 1.6073999999999984 0 0 0
2312 3 18.4152 12.404024123376999 0 0 0 0
2519 1 19.949799999999996 13.290025846475004 1.6073999999999984 0 0 0
2318 3 21.484399999999994 12.404024123376999 0 0 0 0
2525 1 23.01899999999999 13.290025846475004 1.6073999999999984 0 0 0
2324 3 24.553600000000003 12.404024123376999 0 0 0 0
2531 1 26.0882 13.290025846475004 1.6073999999999984 0 0 0
2330 3 27.622799999999998 12.404024123376999 0 0 0 0
2537 1 29.157399999999996 13.290025846475004 1.6073999999999984 0 0 0
2336 3 30.691999999999993 12.404024123376999 0 0 0 0
2543 1 32.22659999999999 13.290025846475004 1.6073999999999984 0 0 0
2342 3 33.7612 12.404024123376999 0 0 0 0
2549 1 35.2958 13.290025846475004 1.6073999999999984 0 0 0
2348 3 36.8304 12.404024123376999 0 0 0 0
2555 1 38.364999999999995 13.290025846475004 1.6073999999999984 0 0 0
2354 3 39.89959999999999 12.404024123376999 0 0 0 0
2561 1 41.43419999999999 13.290025846475004 1.6073999999999984 0 0 0
2360 3 42.9688 12.404024123376999 0 0 0 0
2567 1 44.5034 13.290025846475004 1.6073999999999984 0 0 0
2366 3 46.038 12.404024123376999 0 0 0 0
2573 1 47.572599999999994 13.290025846475004 1.6073999999999984 0 0 0
2372 3 49.10719999999999 12.404024123376999 0 0 0 0
2180 3 52.1764 12.404024123376999 0 -1 0 0
2381 1 50.6418 13.290025846475004 1.6073999999999984 -1 0 0
2387 1 53.711000000000006 13.290025846475004 1.6073999999999984 -1 0 0
2186 3 55.2456 12.404024123376999 0 -1 0 0
2393 1 56.7802 13.290025846475004 1.6073999999999984 -1 0 0
2192 3 58.314800000000005 12.404024123376999 0 -1 0 0
2399 1 59.8494 13.290025846475004 1.6073999999999984 -1 0 0
2198 3 61.384 12.404024123376999 0 -1 0 0
2204 3 64.45320000000001 12.404024123376999 0 -1 0 0
2405 1 62.918600000000005 13.290025846475004 1.6073999999999984 -1 0 0
2411 1 65.98780000000001 13.290025846475004 1.6073999999999984 -1 0 0
2210 3 67.5224 12.404024123376999 0 -1 0 0
2417 1 69.057 13.290025846475004 1.6073999999999984 -1 0 0
2216 3 70.5916 12.404024123376999 0 -1 0 0
2423 1 72.12620000000001 13.290025846475004 1.6073999999999984 -1 0 0
2222 3 73.6608 12.404024123376999 0 -1 0 0
2228 3 76.73 12.404024123376999 0 -1 0 0
2429 1 75.1954 13.290025846475004 1.6073999999999984 -1 0 0
2435 1 78.2646 13.290025846475004 1.6073999999999984 -1 0 0
2234 3 79.7992 12.404024123376999 0 -1 0 0
2441 1 81.3338 13.290025846475004 1.6073999999999984 -1 0 0
2240 3 82.86840000000001 12.404024123376999 0 -1 0 0
2447 1 84.403 13.290025846475004 1.6073999999999984 -1 0 0
2246 3 85.9376 12.404024123376999 0 -1 0 0
2252 3 89.0068 12.404024123376999 0 -1 0 0
2453 1 87.4722 13.290025846475004 1.6073999999999984 -1 0 0
2459 1 90.54140000000001 13.290025846475004 1.6073999999999984 -1 0 0
2258 3 92.076 12.404024123376999 0 -1 0 0
2465 1 93.6106 13.290025846475004 1.6073999999999984 -1 0 0
2264 3 95.1452 12.404024123376999 0 -1 0 0
2471 1 96.6798 13.290025846475004 1.6073999999999984 -1 0 0
2270 3 98.21440000000001 12.404024123376999 0 -1 0 0
2477 1 99.749 13.290025846475004 1.6073999999999984 -1 0 0
2479 3 1.5345999999999975 15.062029292672001 0 0 0 0
2485 3 4.6038 15.062029292672001 0 0 0 0
2491 3 7.672999999999995 15.062029292672001 0 0 0 0
2497 3 10.742199999999997 15.062029292672001 0 0 0 0
2503 3 13.811399999999992 15.062029292672001 0 0 0 0
2509 3 16.8806 15.062029292672001 0 0 0 0
2515 3 19.949799999999996 15.062029292672001 0 0 0 0
2521 3 23.01899999999999 15.062029292672001 0 0 0 0
2527 3 26.0882 15.062029292672001 0 0 0 0
2533 3 29.157399999999996 15.062029292672001 0 0 0 0
2539 3 32.22659999999999 15.062029292672001 0 0 0 0
2545 3 35.2958 15.062029292672001 0 0 0 0
2551 3 38.364999999999995 15.062029292672001 0 0 0 0
2557 3 41.43419999999999 15.062029292672001 0 0 0 0
2563 3 44.5034 15.062029292672001 0 0 0 0
2569 3 47.572599999999994 15.062029292672001 0 0 0 0
2377 3 50.6418 15.062029292672001 0 -1 0 0
2383 3 53.711000000000006 15.062029292672001 0 -1 0 0
2389 3 56.7802 15.062029292672001 0 -1 0 0
2395 3 59.8494 15.062029292672001 0 -1 0 0
2401 3 62.918600000000005 15.062029292672001 0 -1 0 0
2407 3 65.98780000000001 15.062029292672001 0 -1 0 0
2413 3 69.057 15.062029292672001 0 -1 0 0
2419 3 72.12620000000001 15.062029292672001 0 -1 0 0
2425 3 75.1954 15.062029292672001 0 -1 0 0
2431 3 78.2646 15.062029292672001 0 -1 0 0
2437 3 81.3338 15.062029292672001 0 -1 0 0
2443 3 84.403 15.062029292672001 0 -1 0 0
2449 3 87.4722 15.062029292672001 0 -1 0 0
2455 3 90.54140000000001 15.062029292672001 0 -1 0 0
2461 3 93.6106 15.062029292672001 0 -1 0 0
2467 3 96.6798 15.062029292672001 0 -1 0 0
2473 3 99.749 15.062029292672001 0 -1 0 0
2478 1 0 15.948031015770006 1.6073999999999984 0 0 0
2484 1 3.069199999999995 15.948031015770006 1.6073999999999984 0 0 0
2490 1 6.138399999999997 15.948031015770006 1.6073999999999984 0 0 0
2496 1 9.2076 15.948031015770006 1.6073999999999984 0 0 0
2502 1 12.276799999999994 15.948031015770006 1.6073999999999984 0 0 0
2508 1 15.34599999999999 15.948031015770006 1.6073999999999984 0 0 0
2514 1 18.4152 15.948031015770006 1.6073999999999984 0 0 0
2520 1 21.484399999999994 15.948031015770006 1.6073999999999984 0 0 0
2526 1 24.553600000000003 15.948031015770006 1.6073999999999984 0 0 0
2532 1 27.622799999999998 15.948031015770006 1.6073999999999984 0 0 0
2538 1 30.691999999999993 15.948031015770006 1.6073999999999984 0 0 0
2544 1 33.7612 15.948031015770006 1.6073999999999984 0 0 0
2550 1 36.8304 15.948031015770006 1.6073999999999984 0 0 0
2556 1 39.89959999999999 15.948031015770006 1.6073999999999984 0 0 0
2562 1 42.9688 15.948031015770006 1.6073999999999984 0 0 0
2568 1 46.038 15.948031015770006 1.6073999999999984 0 0 0
2574 1 49.10719999999999 15.948031015770006 1.6073999999999984 0 0 0
2382 1 52.1764 15.948031015770006 1.6073999999999984 -1 0 0
2388 1 55.2456 15.948031015770006 1.6073999999999984 -1 0 0
2394 1 58.314800000000005 15.948031015770006 1.6073999999999984 -1 0 0
2400 1 61.384 15.948031015770006 1.6073999999999984 -1 0 0
2406 1 64.45320000000001 15.948031015770006 1.6073999999999984 -1 0 0
2412 1 67.5224 15.948031015770006 1.6073999999999984 -1 0 0
2418 1 70.5916 15.948031015770006 1.6073999999999984 -1 0 0
2424 1 73.6608 15.948031015770006 1.6073999999999984 -1 0 0
2430 1 76.73 15.948031015770006 1.6073999999999984 -1 0 0
2436 1 79.7992 15.948031015770006 1.6073999999999984 -1 0 0
2442 1 82.86840000000001 15.948031015770006 1.6073999999999984 -1 0 0
2448 1 85.9376 15.948031015770006 1.6073999999999984 -1 0 0
2454 1 89.0068 15.948031015770006 1.6073999999999984 -1 0 0
2460 1 92.076 15.948031015770006 1.6073999999999984 -1 0 0
2466 1 95.1452 15.948031015770006 1.6073999999999984 -1 0 0
2472 1 98.21440000000001 15.948031015770006 1.6073999999999984 -1 0 0
2474 3 0 17.720034461966996 0 0 0 0
2681 1 1.5345999999999975 18.606036185065 1.6073999999999984 0 0 0
2480 3 3.069199999999995 17.720034461966996 0 0 0 0
2687 1 4.6038 18.606036185065 1.6073999999999984 0 0 0
2486 3 6.138399999999997 17.720034461966996 0 0 0 0
2693 1 7.672999999999995 18.606036185065 1.6073999999999984 0 0 0
2492 3 9.2076 17.720034461966996 0 0 0 0
2699 1 10.742199999999997 18.606036185065 1.6073999999999984 0 0 0
2498 3 12.276799999999994 17.720034461966996 0 0 0 0
2705 1 13.811399999999992 18.606036185065 1.6073999999999984 0 0 0
2504 3 15.34599999999999 17.720034461966996 0 0 0 0
2711 1 16.8806 18.606036185065 1.6073999999999984 0 0 0
2510 3 18.4152 17.720034461966996 0 0 0 0
2717 1 19.949799999999996 18.606036185065 1.6073999999999984 0 0 0
2516 3 21.484399999999994 17.720034461966996 0 0 0 0
2723 1 23.01899999999999 18.606036185065 1.6073999999999984 0 0 0
2522 3 24.553600000000003 17.720034461966996 0 0 0 0
2729 1 26.0882 18.606036185065 1.6073999999999984 0 0 0
2528 3 27.622799999999998 17.720034461966996 0 0 0 0
2735 1 29.157399999999996 18.606036185065 1.6073999999999984 0 0 0
2534 3 30.691999999999993 17.720034461966996 0 0 0 0
2741 1 32.22659999999999 18.606036185065 1.6073999999999984 0 0 0
2540 3 33.7612 17.720034461966996 0 0 0 0
2747 1 35.2958 18.606036185065 1.6073999999999984 0 0 0
2546 3 36.8304 17.720034461966996 0 0 0 0
2753 1 38.364999999999995 18.606036185065 1.6073999999999984 0 0 0
2552 3 39.89959999999999 17.720034461966996 0 0 0 0
2759 1 41.43419999999999 18.606036185065 1.6073999999999984 0 0 0
2558 3 42.9688 17.720034461966996 0 0 0 0
2765 1 44.5034 18.606036185065 1.6073999999999984 0 0 0
2564 3 46.038 17.720034461966996 0 0 0 0
2771 1 47.572599999999994 18.606036185065 1.6073999999999984 0 0 0
2570 3 49.10719999999999 17.720034461966996 0 0 0 0
2378 3 52.1764 17.720034461966996 0 -1 0 0
2579 1 50.6418 18.606036185065 1.6073999999999984 -1 0 0
2585 1 53.711000000000006 18.606036185065 1.6073999999999984 -1 0 0
2384 3 55.2456 17.720034461966996 0 -1 0 0
2591 1 56.7802 18.606036185065 1.6073999999999984 -1 0 0
2390 3 58.314800000000005 17.720034461966996 0 -1 0 0
2597 1 59.8494 18.606036185065 1.6073999999999984 -1 0 0
2396 3 61.384 17.720034461966996 0 -1 0 0
2402 3 64.45320000000001 17.720034461966996 0 -1 0 0
2603 1 62.918600000000005 18.606036185065 1.6073999999999984 -1 0 0
2609 1 65.98780000000001 18.606036185065 1.6073999999999984 -1 0 0
2408 3 67.5224 17.720034461966996 0 -1 0 0
2615 1 69.057 18.606036185065 1.6073999999999984 -1 0 0
2414 3 70.5916 17.720034461966996 0 -1 0 0
2621 1 72.12620000000001 18.606036185065 1.6073999999999984 -1 0 0
2420 3 73.6608 17.720034461966996 0 -1 0 0
2426 3 76.73 17.720034461966996 0 -1 0 0
2627 1 75.1954 18.606036185065 1.6073999999999984 -1 0 0
2633 1 78.2646 18.606036185065 1.6073999999999984 -1 0 0
2432 3 79.7992 17.720034461966996 0 -1 0 0
2639 1 81.3338 18.606036185065 1.6073999999999984 -1 0 0
2438 3 82.86840000000001 17.720034461966996 0 -1 0 0
2645 1 84.403 18.606036185065 1.6073999999999984 -1 0 0
2444 3 85.9376 17.720034461966996 0 -1 0 0
2450 3 89.0068 17.720034461966996 0 -1 0 0
2651 1 87.4722 18.606036185065 1.6073999999999984 -1 0 0
2657 1 90.54140000000001 18.606036185065 1.6073999999999984 -1 0 0
2456 3 92.076 17.720034461966996 0 -1 0 0
2663 1 93.6106 18.606036185065 1.6073999999999984 -1 0 0
2462 3 95.1452 17.720034461966996 0 -1 0 0
2669 1 96.6798 18.606036185065 1.6073999999999984 -1 0 0
2468 3 98.21440000000001 17.720034461966996 0 -1 0 0
2675 1 99.749 18.606036185065 1.6073999999999984 -1 0 0
2677 3 1.5345999999999975 20.378039631262006 0 0 0 0
2683 3 4.6038 20.378039631262006 0 0 0 0
2689 3 7.672999999999995 20.378039631262006 0 0 0 0
2695 3 10.742199999999997 20.378039631262006 0 0 0 0
2701 3 13.811399999999992 20.378039631262006 0 0 0 0
2707 3 16.8806 20.378039631262006 0 0 0 0
2713 3 19.949799999999996 20.378039631262006 0 0 0 0
2719 3 23.01899999999999 20.378039631262006 0 0 0 0
2725 3 26.0882 20.378039631262006 0 0 0 0
2731 3 29.157399999999996 20.378039631262006 0 0 0 0
2737 3 32.22659999999999 20.378039631262006 0 0 0 0
2743 3 35.2958 20.378039631262006 0 0 0 0
2749 3 38.364999999999995 20.378039631262006 0 0 0 0
2755 3 41.43419999999999 20.378039631262006 0 0 0 0
2761 3 44.5034 20.378039631262006 0 0 0 0
2767 3 47.572599999999994 20.378039631262006 0 0 0 0
2575 3 50.6418 20.378039631262006 0 -1 0 0
2581 3 53.711000000000006 20.378039631262006 0 -1 0 0
2587 3 56.7802 20.378039631262006 0 -1 0 0
2593 3 59.8494 20.378039631262006 0 -1 0 0
2599 3 62.918600000000005 20.378039631262006 0 -1 0 0
2605 3 65.98780000000001 20.378039631262006 0 -1 0 0
2611 3 69.057 20.378039631262006 0 -1 0 0
2617 3 72.12620000000001 20.378039631262006 0 -1 0 0
2623 3 75.1954 20.378039631262006 0 -1 0 0
2629 3 78.2646 20.378039631262006 0 -1 0 0
2635 3 81.3338 20.378039631262006 0 -1 0 0
2641 3 84.403 20.378039631262006 0 -1 0 0
2647 3 87.4722 20.378039631262006 0 -1 0 0
2653 3 90.54140000000001 20.378039631262006 0 -1 0 0
2659 3 93.6106 20.378039631262006 0 -1 0 0
2665 3 96.6798 20.378039631262006 0 -1 0 0
2671 3 99.749 20.378039631262006 0 -1 0 0
2676 1 0 21.264041354359996 1.6073999999999984 0 0 0
2682 1 3.069199999999995 21.264041354359996 1.6073999999999984 0 0 0
2688 1 6.138399999999997 21.264041354359996 1.6073999999999984 0 0 0
2694 1 9.2076 21.264041354359996 1.6073999999999984 0 0 0
2700 1 12.276799999999994 21.264041354359996 1.6073999999999984 0 0 0
2706 1 15.34599999999999 21.264041354359996 1.6073999999999984 0 0 0
2712 1 18.4152 21.264041354359996 1.6073999999999984 0 0 0
2718 1 21.484399999999994 21.264041354359996 1.6073999999999984 0 0 0
2724 1 24.553600000000003 21.264041354359996 1.6073999999999984 0 0 0
2730 1 27.622799999999998 21.264041354359996 1.6073999999999984 0 0 0
2736 1 30.691999999999993 21.264041354359996 1.6073999999999984 0 0 0
2742 1 33.7612 21.264041354359996 1.6073999999999984 0 0 0
2748 1 36.8304 21.264041354359996 1.6073999999999984 0 0 0
2754 1 39.89959999999999 21.264041354359996 1.6073999999999984 0 0 0
2760 1 42.9688 21.264041354359996 1.6073999999999984 0 0 0
2766 1 46.038 21.264041354359996 1.6073999999999984 0 0 0
2772 1 49.10719999999999 21.264041354359996 1.6073999999999984 0 0 0
2580 1 52.1764 21.264041354359996 1.6073999999999984 -1 0 0
2586 1 55.2456 21.264041354359996 1.6073999999999984 -1 0 0