LAMMPS data file via write_data, version 29 Aug 2024, timestep = 1, units = metal

11286 atoms
9 atom types

0 101.2836 xlo xhi
0 101.00419643321 ylo yhi
-50 120.24074160569455 zlo zhi

Masses

1 97.90721000000001
2 97.90721000000001
3 97.90721000000001
4 32.06
5 32.06
6 32.06
7 32.06
8 32.06
9 32.06

Atoms # atomic

1886 5 3.0691981430263513 1.7720034807353104 0.0008052122250458665 0 0 0
2083 5 1.5345981430263524 4.430008650030309 0.0008052122250464561 0 0 0
2089 5 4.603798143026355 4.430008650030309 0.0008052122250467021 0 0 0
1892 5 6.138398143026352 1.7720034807353104 0.0008052122250458659 0 0 0
1898 5 9.207598143026354 1.7720034807353104 0.0008052122250458664 0 0 0
2095 5 7.6729981430263505 4.430008650030309 0.0008052122250467018 0 0 0
2101 5 10.742198143026352 4.430008650030309 0.0008052122250470136 0 0 0
1904 5 12.27679814302635 1.7720034807353107 0.0008052122250464405 0 0 0
1910 5 15.345998143026346 1.7720034807353104 0.000805212225045309 0 0 0
2107 5 13.811398143026349 4.430008650030309 0.0008052122250467402 0 0 0
2113 5 16.880598143026354 4.430008650030309 0.0008052122250461394 0 0 0
1916 5 18.415198143026352 1.7720034807353104 0.0008052122250458797 0 0 0
1922 5 21.48439814302635 1.7720034807353104 0.0008052122250458801 0 0 0
2119 5 19.949798143026353 4.430008650030309 0.0008052122250472966 0 0 0
2125 5 23.018998143026348 4.430008650030309 0.0008052122250461398 0 0 0
1928 5 24.553598143026356 1.7720034807353104 0.0008052122250453087 0 0 0
1934 5 27.622798143026355 1.7720034807353107 0.0008052122250464403 0 0 0
2131 5 26.088198143026354 4.430008650030309 0.0008052122250467396 0 0 0
2137 5 29.157398143026352 4.430008650030309 0.0008052122250472968 0 0 0
1940 5 30.69199814302635 1.7720034807353104 0.0008052122250458799 0 0 0
1946 5 33.761198143026355 1.7720034807353104 0.0008052122250453096 0 0 0
2143 5 32.22659814302635 4.430008650030309 0.0008052122250461398 0 0 0
2149 5 35.29579814302635 4.430008650030309 0.0008052122250467403 0 0 0
1952 5 36.83039814302635 1.7720034807353107 0.0008052122250464403 0 0 0
1958 5 39.899598143026346 1.7720034807353104 0.0008052122250458799 0 0 0
2155 5 38.36499814302635 4.430008650030309 0.0008052122250472969 0 0 0
2161 5 41.43419814302635 4.430008650030309 0.0008052122250461395 0 0 0
1964 5 42.968798143026355 1.7720034807353104 0.0008052122250453092 0 0 0
1970 5 46.03799814302635 1.7720034807353107 0.0008052122250464405 0 0 0
2167 5 44.50339814302635 4.430008650030309 0.0008052122250467402 0 0 0
2173 5 47.57259814302635 4.430008650030309 0.0008052122250467397 0 0 0
1976 5 49.10719814302635 1.7720034807353104 0.0008052122250453089 0 0 0
1784 5 52.176398143026354 1.7720034807353102 0.0008052122250453064 -1 0 0
1981 5 50.64179814302636 4.430008650030309 0.0008052122250458561 -1 0 0
1790 5 55.245598143026356 1.7720034807353104 0.0008052122250458662 -1 0 0
1796 5 58.31479814302636 1.7720034807353104 0.0008052122250458664 -1 0 0
1987 5 53.71099814302636 4.430008650030309 0.0008052122250467022 -1 0 0
1993 5 56.780198143026354 4.430008650030309 0.0008052122250467019 -1 0 0
1802 5 61.38399814302635 1.7720034807353104 0.0008052122250455899 -1 0 0
1808 5 64.45319814302637 1.7720034807353104 0.0008052122250455897 -1 0 0
1999 5 59.849398143026356 4.430008650030309 0.0008052122250467297 -1 0 0
2005 5 62.91859814302636 4.430008650030309 0.000805212225046128 -1 0 0
1814 5 67.52239814302636 1.7720034807353107 0.0008052122250464402 -1 0 0
1820 5 70.59159814302636 1.7720034807353107 0.0008052122250458662 -1 0 0
2011 5 65.98779814302637 4.430008650030309 0.0008052122250470126 -1 0 0
2017 5 69.05699814302636 4.430008650030309 0.0008052122250467397 -1 0 0
1826 5 73.66079814302635 1.7720034807353104 0.0008052122250459199 -1 0 0
1832 5 76.72999814302636 1.7720034807353104 0.0008052122250458797 -1 0 0
2023 5 72.12619814302636 4.430008650030309 0.0008052122250467416 -1 0 0
2029 5 75.19539814302637 4.430008650030309 0.0008052122250466999 -1 0 0
1838 5 79.79919814302636 1.7720034807353104 0.0008052122250458799 -1 0 0
1844 5 82.86839814302637 1.7720034807353104 0.0008052122250453092 -1 0 0
2035 5 78.26459814302636 4.430008650030309 0.0008052122250472966 -1 0 0
2041 5 81.33379814302636 4.430008650030309 0.0008052122250461397 -1 0 0
1850 5 85.93759814302636 1.7720034807353107 0.0008052122250464403 -1 0 0
1856 5 89.00679814302636 1.7720034807353107 0.0008052122250458661 -1 0 0
2047 5 84.40299814302637 4.430008650030309 0.00080521222504674 -1 0 0
2053 5 87.47219814302636 4.430008650030309 0.0008052122250467397 -1 0 0
1862 5 92.07599814302635 1.7720034807353104 0.0008052122250459203 -1 0 0
1868 5 95.14519814302636 1.77200348073531 0.0008052122250453198 -1 0 0
2059 5 90.54139814302636 4.430008650030309 0.0008052122250467416 -1 0 0
2065 5 93.61059814302637 4.430008650030309 0.0008052122250467006 -1 0 0
1880 5 101.28359814302637 1.7720034807353107 0.0008052122250458664 -1 0 0
1874 5 98.21439814302636 1.7720034807353104 0.0008052122250459199 -1 0 0
2071 5 96.67979814302636 4.430008650030309 0.0008052122250467003 -1 0 0
2077 5 99.74899814302636 4.430008650030309 0.0008052122250467416 -1 0 0
2084 5 3.0691981430263513 7.088013819325309 0.0008052122250461048 0 0 0
2281 5 1.5345981430263524 9.74601898862031 0.0008052122250461813 0 0 0
2287 5 4.603798143026355 9.74601898862031 0.0008052122250464545 0 0 0
2090 5 6.138398143026352 7.088013819325309 0.000805212225046104 0 0 0
2096 5 9.207598143026354 7.088013819325309 0.0008052122250461046 0 0 0
2293 5 7.6729981430263505 9.74601898862031 0.0008052122250464545 0 0 0
2299 5 10.742198143026352 9.74601898862031 0.0008052122250467419 0 0 0
2102 5 12.27679814302635 7.088013819325309 0.0008052122250466789 0 0 0
2108 5 15.345998143026346 7.088013819325309 0.0008052122250455511 0 0 0
2305 5 13.811398143026349 9.74601898862031 0.0008052122250464686 0 0 0
2311 5 16.880598143026354 9.74601898862031 0.0008052122250458972 0 0 0
2114 5 18.415198143026352 7.088013819325309 0.000805212225046118 0 0 0
2120 5 21.48439814302635 7.088013819325309 0.0008052122250461184 0 0 0
2317 5 19.949798143026353 9.74601898862031 0.0008052122250470287 0 0 0
2323 5 23.018998143026348 9.74601898862031 0.0008052122250458973 0 0 0
2126 5 24.553598143026356 7.088013819325309 0.0008052122250455506 0 0 0
2132 5 27.622798143026355 7.088013819325309 0.0008052122250466785 0 0 0
2329 5 26.088198143026354 9.74601898862031 0.0008052122250464679 0 0 0
2335 5 29.157398143026352 9.74601898862031 0.0008052122250470287 0 0 0
2138 5 30.69199814302635 7.088013819325309 0.000805212225046118 0 0 0
2144 5 33.761198143026355 7.088013819325309 0.0008052122250455512 0 0 0
2341 5 32.22659814302635 9.74601898862031 0.0008052122250458975 0 0 0
2347 5 35.29579814302635 9.74601898862031 0.0008052122250464684 0 0 0
2150 5 36.83039814302635 7.088013819325309 0.0008052122250466786 0 0 0
2156 5 39.899598143026346 7.088013819325309 0.000805212225046118 0 0 0
2353 5 38.36499814302635 9.74601898862031 0.0008052122250470287 0 0 0
2359 5 41.43419814302635 9.74601898862031 0.0008052122250458972 0 0 0
2162 5 42.968798143026355 7.088013819325309 0.0008052122250455508 0 0 0
2168 5 46.03799814302635 7.088013819325309 0.0008052122250466786 0 0 0
2365 5 44.50339814302635 9.74601898862031 0.0008052122250464683 0 0 0
2371 5 47.57259814302635 9.74601898862031 0.000805212225046468 0 0 0
2174 5 49.10719814302635 7.088013819325309 0.0008052122250455506 0 0 0
1982 5 52.176398143026354 7.088013819325309 0.0008052122250455445 -1 0 0
2179 5 50.64179814302636 9.74601898862031 0.0008052122250456103 -1 0 0
1988 5 55.245598143026356 7.088013819325309 0.0008052122250461043 -1 0 0
1994 5 58.31479814302636 7.088013819325309 0.0008052122250461045 -1 0 0
2185 5 53.71099814302636 9.74601898862031 0.0008052122250464547 -1 0 0
2191 5 56.780198143026354 9.74601898862031 0.0008052122250464547 -1 0 0
2000 5 61.38399814302635 7.088013819325309 0.000805212225045828 -1 0 0
2006 5 64.45319814302637 7.088013819325309 0.0008052122250458279 -1 0 0
2197 5 59.849398143026356 9.74601898862031 0.0008052122250464542 -1 0 0
2203 5 62.91859814302636 9.74601898862031 0.0008052122250459018 -1 0 0
2012 5 67.52239814302636 7.088013819325309 0.0008052122250466783 -1 0 0
2018 5 70.59159814302636 7.088013819325309 0.0008052122250461081 -1 0 0
2209 5 65.98779814302637 9.74601898862031 0.0008052122250467411 -1 0 0
2215 5 69.05699814302636 9.74601898862031 0.0008052122250464684 -1 0 0
2024 5 73.66079814302635 7.088013819325309 0.0008052122250461652 -1 0 0
2030 5 76.72999814302636 7.088013819325309 0.000805212225046118 -1 0 0
2221 5 72.12619814302636 9.74601898862031 0.0008052122250465114 -1 0 0
2227 5 75.19539814302637 9.74601898862031 0.000805212225046454 -1 0 0
2036 5 79.79919814302636 7.088013819325309 0.0008052122250461184 -1 0 0
2042 5 82.86839814302637 7.088013819325309 0.0008052122250455508 -1 0 0
2233 5 78.26459814302636 9.74601898862031 0.0008052122250470288 -1 0 0
2239 5 81.33379814302636 9.74601898862031 0.0008052122250458975 -1 0 0
2048 5 85.93759814302636 7.088013819325309 0.0008052122250466786 -1 0 0
2054 5 89.00679814302636 7.088013819325309 0.000805212225046108 -1 0 0
2245 5 84.40299814302637 9.74601898862031 0.0008052122250464684 -1 0 0
2251 5 87.47219814302636 9.74601898862031 0.0008052122250464684 -1 0 0
2060 5 92.07599814302635 7.088013819325309 0.0008052122250461655 -1 0 0
2066 5 95.14519814302636 7.088013819325308 0.0008052122250455583 -1 0 0
2257 5 90.54139814302636 9.74601898862031 0.0008052122250465117 -1 0 0
2263 5 93.61059814302637 9.74601898862031 0.0008052122250464547 -1 0 0
2078 5 101.28359814302637 7.088013819325309 0.0008052122250461081 -1 0 0
2072 5 98.21439814302636 7.088013819325309 0.000805212225046165 -1 0 0
2269 5 96.67979814302636 9.74601898862031 0.0008052122250464547 -1 0 0
2275 5 99.74899814302636 9.74601898862031 0.0008052122250465117 -1 0 0
2282 5 3.0691981430263513 12.404024157915309 0.0008052122250467021 0 0 0
2479 5 1.5345981430263524 15.06202932721031 0.0008052122250462212 0 0 0
2485 5 4.603798143026355 15.06202932721031 0.0008052122250464706 0 0 0
2480 5 3.0691981430263513 17.720034496505306 0.0008052122250463455 0 0 0
2288 5 6.138398143026352 12.404024157915309 0.0008052122250467295 0 0 0
2294 5 9.207598143026354 12.404024157915309 0.0008052122250467021 0 0 0
2491 5 7.6729981430263505 15.06202932721031 0.0008052122250464703 0 0 0
2497 5 10.742198143026352 15.06202932721031 0.0008052122250467788 0 0 0
2486 5 6.138398143026352 17.720034496505306 0.0008052122250463797 0 0 0
2492 5 9.207598143026354 17.720034496505306 0.0008052122250463452 0 0 0
2300 5 12.27679814302635 12.404024157915309 0.0008052122250472969 0 0 0
2306 5 15.345998143026346 12.404024157915309 0.0008052122250461398 0 0 0
2503 5 13.811398143026349 15.06202932721031 0.0008052122250465052 0 0 0
2509 5 16.880598143026354 15.06202932721031 0.0008052122250459012 0 0 0
2498 5 12.27679814302635 17.720034496505306 0.0008052122250469473 0 0 0
2504 5 15.345998143026346 17.720034496505306 0.0008052122250457692 0 0 0
2312 5 18.415198143026352 12.404024157915309 0.00080521222504674 0 0 0
2318 5 21.48439814302635 12.404024157915309 0.0008052122250467402 0 0 0
2515 5 19.949798143026353 15.06202932721031 0.0008052122250470616 0 0 0
2521 5 23.018998143026348 15.06202932721031 0.0008052122250459011 0 0 0
2510 5 18.415198143026352 17.720034496505306 0.0008052122250463901 0 0 0
2516 5 21.48439814302635 17.720034496505306 0.0008052122250463904 0 0 0
2324 5 24.553598143026356 12.404024157915309 0.0008052122250461395 0 0 0
2330 5 27.622798143026355 12.404024157915309 0.0008052122250472968 0 0 0
2527 5 26.088198143026354 15.06202932721031 0.0008052122250465046 0 0 0
2533 5 29.157398143026352 15.06202932721031 0.000805212225047062 0 0 0
2522 5 24.553598143026356 17.720034496505306 0.0008052122250457688 0 0 0
2528 5 27.622798143026355 17.720034496505306 0.0008052122250469468 0 0 0
2336 5 30.69199814302635 12.404024157915309 0.00080521222504674 0 0 0
2342 5 33.761198143026355 12.404024157915309 0.0008052122250461402 0 0 0
2539 5 32.22659814302635 15.06202932721031 0.0008052122250459014 0 0 0
2545 5 35.29579814302635 15.06202932721031 0.0008052122250465051 0 0 0
2534 5 30.69199814302635 17.720034496505306 0.0008052122250463903 0 0 0
2540 5 33.761198143026355 17.720034496505306 0.0008052122250457689 0 0 0
2348 5 36.83039814302635 12.404024157915309 0.0008052122250472971 0 0 0
2354 5 39.899598143026346 12.404024157915309 0.0008052122250467402 0 0 0
2551 5 38.36499814302635 15.06202932721031 0.0008052122250470621 0 0 0
2557 5 41.43419814302635 15.06202932721031 0.0008052122250459011 0 0 0
2546 5 36.83039814302635 17.720034496505306 0.0008052122250469469 0 0 0
2552 5 39.899598143026346 17.720034496505306 0.0008052122250463903 0 0 0
2360 5 42.968798143026355 12.404024157915309 0.0008052122250461395 0 0 0
2366 5 46.03799814302635 12.404024157915309 0.0008052122250472971 0 0 0
2563 5 44.50339814302635 15.06202932721031 0.0008052122250465051 0 0 0
2569 5 47.57259814302635 15.06202932721031 0.0008052122250465048 0 0 0
2558 5 42.968798143026355 17.720034496505306 0.0008052122250457688 0 0 0
2564 5 46.03799814302635 17.720034496505306 0.0008052122250469471 0 0 0
2372 5 49.10719814302635 12.404024157915309 0.0008052122250461397 0 0 0
2180 5 52.176398143026354 12.404024157915307 0.0008052122250461456 -1 0 0
2377 5 50.64179814302636 15.06202932721031 0.0008052122250456178 -1 0 0
2570 5 49.10719814302635 17.720034496505306 0.0008052122250457689 0 0 0
2378 5 52.176398143026354 17.720034496505306 0.0008052122250457883 -1 0 0
2186 5 55.245598143026356 12.404024157915309 0.0008052122250467295 -1 0 0
2192 5 58.31479814302636 12.404024157915309 0.0008052122250467021 -1 0 0
2383 5 53.71099814302636 15.06202932721031 0.0008052122250464706 -1 0 0
2389 5 56.780198143026354 15.06202932721031 0.0008052122250464703 -1 0 0
2384 5 55.245598143026356 17.720034496505306 0.00080521222504638 -1 0 0
2390 5 58.31479814302636 17.720034496505306 0.0008052122250463448 -1 0 0
2198 5 61.38399814302635 12.404024157915309 0.0008052122250464289 -1 0 0
2204 5 64.45319814302637 12.404024157915309 0.0008052122250464288 -1 0 0
2395 5 59.849398143026356 15.06202932721031 0.0008052122250464943 -1 0 0
2401 5 62.91859814302636 15.06202932721031 0.0008052122250459002 -1 0 0
2396 5 61.38399814302635 17.720034496505306 0.0008052122250460719 -1 0 0
2402 5 64.45319814302637 17.720034496505306 0.0008052122250460721 -1 0 0
2210 5 67.52239814302636 12.404024157915309 0.0008052122250472966 -1 0 0
2216 5 70.59159814302636 12.404024157915309 0.0008052122250467006 -1 0 0
2407 5 65.98779814302637 15.06202932721031 0.000805212225046778 -1 0 0
2413 5 69.05699814302636 15.06202932721031 0.0008052122250465048 -1 0 0
2408 5 67.52239814302636 17.720034496505306 0.0008052122250469469 -1 0 0
2414 5 70.59159814302636 17.720034496505306 0.0008052122250463299 -1 0 0
2222 5 73.66079814302635 12.404024157915309 0.0008052122250467415 -1 0 0
2228 5 76.72999814302636 12.404024157915309 0.0008052122250467396 -1 0 0
2419 5 72.12619814302636 15.06202932721031 0.0008052122250465032 -1 0 0
2425 5 75.19539814302637 15.06202932721031 0.0008052122250464615 -1 0 0
2420 5 73.66079814302635 17.720034496505306 0.00080521222504635 -1 0 0
2426 5 76.72999814302636 17.720034496505306 0.00080521222504639 -1 0 0
2234 5 79.79919814302636 12.404024157915309 0.00080521222504674 -1 0 0
2240 5 82.86839814302637 12.404024157915309 0.0008052122250461397 -1 0 0
2431 5 78.26459814302636 15.06202932721031 0.000805212225047062 -1 0 0
2437 5 81.33379814302636 15.06202932721031 0.0008052122250459014 -1 0 0
2432 5 79.79919814302636 17.720034496505306 0.0008052122250463901 -1 0 0
2438 5 82.86839814302637 17.720034496505306 0.0008052122250457693 -1 0 0
2246 5 85.93759814302636 12.404024157915309 0.0008052122250472968 -1 0 0
2252 5 89.00679814302636 12.404024157915309 0.0008052122250467002 -1 0 0
2443 5 84.40299814302637 15.06202932721031 0.0008052122250465048 -1 0 0
2449 5 87.47219814302636 15.06202932721031 0.0008052122250465051 -1 0 0
2444 5 85.93759814302636 17.720034496505306 0.0008052122250469469 -1 0 0
2450 5 89.00679814302636 17.720034496505306 0.0008052122250463294 -1 0 0
2258 5 92.07599814302635 12.404024157915309 0.0008052122250467418 -1 0 0
2264 5 95.14519814302636 12.404024157915307 0.0008052122250461831 -1 0 0
2455 5 90.54139814302636 15.06202932721031 0.0008052122250465033 -1 0 0
2461 5 93.61059814302637 15.06202932721031 0.0008052122250464624 -1 0 0
2456 5 92.07599814302635 17.720034496505306 0.0008052122250463505 -1 0 0
2462 5 95.14519814302636 17.720034496505306 0.0008052122250458336 -1 0 0
2276 5 101.28359814302637 12.404024157915309 0.0008052122250467003 -1 0 0
2474 5 101.28359814302637 17.720034496505306 0.0008052122250463294 -1 0 0
2270 5 98.21439814302636 12.404024157915309 0.0008052122250467416 -1 0 0
2467 5 96.67979814302636 15.06202932721031 0.0008052122250464619 -1 0 0
2473 5 99.74899814302636 15.06202932721031 0.0008052122250465032 -1 0 0
2468 5 98.21439814302636 17.720034496505306 0.0008052122250463503 -1 0 0
2677 5 1.5345981430263524 20.37803966580031 0.0008052122250456259 0 0 0
2683 5 4.603798143026355 20.37803966580031 0.0008052122250459063 0 0 0
2678 5 3.0691981430263513 23.03604483509531 0.0008052122250470728 0 0 0
2689 5 7.6729981430263505 20.37803966580031 0.000805212225045906 0 0 0
2695 5 10.742198143026352 20.378039665800312 0.0008052122250461836 0 0 0
2684 5 6.138398143026352 23.03604483509531 0.0008052122250471067 0 0 0
2690 5 9.207598143026354 23.03604483509531 0.0008052122250470727 0 0 0
2701 5 13.811398143026349 20.37803966580031 0.0008052122250459137 0 0 0
2707 5 16.880598143026354 20.37803966580031 0.0008052122250453458 0 0 0
2696 5 12.27679814302635 23.03604483509531 0.0008052122250476748 0 0 0
2702 5 15.345998143026346 23.03604483509531 0.0008052122250465035 0 0 0
2713 5 19.949798143026353 20.378039665800312 0.0008052122250464697 0 0 0
2719 5 23.018998143026348 20.37803966580031 0.0008052122250453458 0 0 0
2708 5 18.415198143026352 23.03604483509531 0.0008052122250471174 0 0 0
2714 5 21.48439814302635 23.03604483509531 0.0008052122250471176 0 0 0
2725 5 26.088198143026354 20.37803966580031 0.0008052122250459127 0 0 0
2731 5 29.157398143026352 20.378039665800312 0.00080521222504647 0 0 0
2720 5 24.553598143026356 23.03604483509531 0.0008052122250465033 0 0 0
2726 5 27.622798143026355 23.03604483509531 0.0008052122250476742 0 0 0
2737 5 32.22659814302635 20.37803966580031 0.0008052122250453464 0 0 0
2743 5 35.29579814302635 20.37803966580031 0.0008052122250459131 0 0 0
2732 5 30.69199814302635 23.03604483509531 0.0008052122250471176 0 0 0
2738 5 33.761198143026355 23.03604483509531 0.0008052122250465036 0 0 0
2749 5 38.36499814302635 20.378039665800312 0.0008052122250464702 0 0 0
2755 5 41.43419814302635 20.37803966580031 0.0008052122250453458 0 0 0
2744 5 36.83039814302635 23.03604483509531 0.0008052122250476744 0 0 0
2750 5 39.899598143026346 23.03604483509531 0.0008052122250471174 0 0 0
2761 5 44.50339814302635 20.37803966580031 0.0008052122250459131 0 0 0
2767 5 47.57259814302635 20.37803966580031 0.0008052122250459131 0 0 0
2756 5 42.968798143026355 23.03604483509531 0.0008052122250465035 0 0 0
2762 5 46.03799814302635 23.03604483509531 0.0008052122250476744 0 0 0
2575 5 50.64179814302636 20.37803966580031 0.0008052122250450591 -1 0 0
2768 5 49.10719814302635 23.03604483509531 0.0008052122250465033 0 0 0
2576 5 52.176398143026354 23.03604483509531 0.000805212225046516 -1 0 0
2581 5 53.71099814302636 20.37803966580031 0.0008052122250459065 -1 0 0
2587 5 56.780198143026354 20.37803966580031 0.0008052122250459062 -1 0 0
2582 5 55.245598143026356 23.03604483509531 0.000805212225047107 -1 0 0
2588 5 58.31479814302636 23.03604483509531 0.0008052122250470724 -1 0 0
2593 5 59.849398143026356 20.37803966580031 0.0008052122250458959 -1 0 0
2599 5 62.91859814302636 20.37803966580031 0.0008052122250453705 -1 0 0
2594 5 61.38399814302635 23.03604483509531 0.0008052122250467995 -1 0 0
2600 5 64.45319814302637 23.03604483509531 0.0008052122250467994 -1 0 0
2605 5 65.98779814302637 20.378039665800312 0.0008052122250461827 -1 0 0
2611 5 69.05699814302636 20.37803966580031 0.000805212225045913 -1 0 0
2606 5 67.52239814302636 23.03604483509531 0.0008052122250476742 -1 0 0
2612 5 70.59159814302636 23.03604483509531 0.0008052122250470639 -1 0 0
2617 5 72.12619814302636 20.37803966580031 0.0008052122250459615 -1 0 0
2623 5 75.19539814302637 20.378039665800312 0.0008052122250458992 -1 0 0
2618 5 73.66079814302635 23.03604483509531 0.0008052122250470875 -1 0 0
2624 5 76.72999814302636 23.03604483509531 0.0008052122250471174 -1 0 0
2629 5 78.26459814302636 20.378039665800312 0.00080521222504647 -1 0 0
2635 5 81.33379814302636 20.37803966580031 0.0008052122250453462 -1 0 0
2630 5 79.79919814302636 23.03604483509531 0.0008052122250471174 -1 0 0
2636 5 82.86839814302637 23.03604483509531 0.0008052122250465035 -1 0 0
2641 5 84.40299814302637 20.37803966580031 0.000805212225045913 -1 0 0
2647 5 87.47219814302636 20.37803966580031 0.0008052122250459131 -1 0 0
2642 5 85.93759814302636 23.03604483509531 0.0008052122250476744 -1 0 0
2648 5 89.00679814302636 23.03604483509531 0.0008052122250470637 -1 0 0
2653 5 90.54139814302636 20.37803966580031 0.0008052122250459616 -1 0 0
2659 5 93.61059814302637 20.378039665800312 0.0008052122250458999 -1 0 0
2654 5 92.07599814302635 23.03604483509531 0.0008052122250470882 -1 0 0
2660 5 95.14519814302636 23.036044835095307 0.0008052122250465608 -1 0 0
2672 5 101.28359814302637 23.03604483509531 0.0008052122250470639 -1 0 0
2665 5 96.67979814302636 20.378039665800312 0.0008052122250458998 -1 0 0
2671 5 99.74899814302636 20.37803966580031 0.0008052122250459616 -1 0 0
2666 5 98.21439814302636 23.03604483509531 0.000805212225047088 -1 0 0
2875 5 1.5345981430263524 25.694050004390306 0.0008052122250461061 0 0 0
2881 5 4.603798143026355 25.694050004390306 0.0008052122250463451 0 0 0
2876 5 3.0691981430263513 28.352055173685308 0.0008052122250459066 0 0 0
2887 5 7.6729981430263505 25.694050004390306 0.0008052122250463448 0 0 0
2893 5 10.742198143026352 25.694050004390306 0.000805212225046664 0 0 0
2882 5 6.138398143026352 28.352055173685308 0.0008052122250458957 0 0 0
2888 5 9.207598143026354 28.352055173685308 0.0008052122250459065 0 0 0
2899 5 13.811398143026349 25.694050004390306 0.0008052122250463903 0 0 0
2905 5 16.880598143026354 25.694050004390306 0.0008052122250457688 0 0 0
2894 5 12.27679814302635 28.35205517368531 0.0008052122250464706 0 0 0
2900 5 15.345998143026346 28.352055173685308 0.0008052122250453462 0 0 0
2911 5 19.949798143026353 25.694050004390306 0.0008052122250469466 0 0 0
2917 5 23.018998143026348 25.694050004390306 0.0008052122250457692 0 0 0
2906 5 18.415198143026352 28.352055173685308 0.0008052122250459131 0 0 0
2912 5 21.48439814302635 28.352055173685308 0.0008052122250459135 0 0 0
2923 5 26.088198143026354 25.694050004390306 0.0008052122250463893 0 0 0
2929 5 29.157398143026352 25.694050004390306 0.0008052122250469468 0 0 0
2918 5 24.553598143026356 28.352055173685308 0.0008052122250453458 0 0 0
2924 5 27.622798143026355 28.35205517368531 0.00080521222504647 0 0 0
2935 5 32.22659814302635 25.694050004390306 0.0008052122250457692 0 0 0
2941 5 35.29579814302635 25.694050004390306 0.00080521222504639 0 0 0
2930 5 30.69199814302635 28.352055173685308 0.0008052122250459135 0 0 0
2936 5 33.761198143026355 28.352055173685308 0.0008052122250453462 0 0 0
2947 5 38.36499814302635 25.694050004390306 0.0008052122250469469 0 0 0
2953 5 41.43419814302635 25.694050004390306 0.0008052122250457688 0 0 0
2942 5 36.83039814302635 28.35205517368531 0.0008052122250464702 0 0 0
2948 5 39.899598143026346 28.352055173685308 0.0008052122250459131 0 0 0
2959 5 44.50339814302635 25.694050004390306 0.00080521222504639 0 0 0
2965 5 47.57259814302635 25.694050004390306 0.00080521222504639 0 0 0
2954 5 42.968798143026355 28.352055173685308 0.0008052122250453459 0 0 0
2960 5 46.03799814302635 28.35205517368531 0.0008052122250464702 0 0 0
2773 5 50.64179814302636 25.694050004390306 0.0008052122250454853 -1 0 0
2966 5 49.10719814302635 28.352055173685308 0.0008052122250453458 0 0 0
2774 5 52.176398143026354 28.352055173685308 0.0008052122250453497 -1 0 0
2779 5 53.71099814302636 25.694050004390306 0.0008052122250463454 -1 0 0
2785 5 56.780198143026354 25.694050004390306 0.0008052122250463449 -1 0 0
2780 5 55.245598143026356 28.352055173685308 0.000805212225045896 -1 0 0
2786 5 58.31479814302636 28.352055173685308 0.0008052122250459062 -1 0 0
2791 5 59.849398143026356 25.694050004390306 0.0008052122250463797 -1 0 0
2797 5 62.91859814302636 25.694050004390306 0.0008052122250457643 -1 0 0
2792 5 61.38399814302635 28.352055173685308 0.0008052122250456333 -1 0 0
2798 5 64.45319814302637 28.352055173685308 0.0008052122250456331 -1 0 0
2803 5 65.98779814302637 25.694050004390306 0.000805212225046663 -1 0 0
2809 5 69.05699814302636 25.694050004390306 0.00080521222504639 -1 0 0
2804 5 67.52239814302636 28.35205517368531 0.0008052122250464699 -1 0 0
2810 5 70.59159814302636 28.35205517368531 0.0008052122250458998 -1 0 0
2815 5 72.12619814302636 25.694050004390306 0.0008052122250463499 -1 0 0
2821 5 75.19539814302637 25.694050004390306 0.0008052122250463293 -1 0 0
2816 5 73.66079814302635 28.352055173685308 0.0008052122250459615 -1 0 0
2822 5 76.72999814302636 28.352055173685308 0.0008052122250459131 -1 0 0
2827 5 78.26459814302636 25.694050004390306 0.0008052122250469468 -1 0 0
2833 5 81.33379814302636 25.694050004390306 0.0008052122250457689 -1 0 0
2828 5 79.79919814302636 28.352055173685308 0.0008052122250459134 -1 0 0
2834 5 82.86839814302637 28.352055173685308 0.0008052122250453461 -1 0 0
2839 5 84.40299814302637 25.694050004390306 0.0008052122250463896 -1 0 0
2845 5 87.47219814302636 25.694050004390306 0.00080521222504639 -1 0 0
2840 5 85.93759814302636 28.35205517368531 0.0008052122250464703 -1 0 0
2846 5 89.00679814302636 28.35205517368531 0.0008052122250458995 -1 0 0
2851 5 90.54139814302636 25.694050004390306 0.0008052122250463502 -1 0 0
2857 5 93.61059814302637 25.694050004390306 0.0008052122250463302 -1 0 0
2852 5 92.07599814302635 28.352055173685308 0.0008052122250459621 -1 0 0
2858 5 95.14519814302636 28.352055173685308 0.0008052122250453568 -1 0 0
2870 5 101.28359814302637 28.35205517368531 0.0008052122250458993 -1 0 0
2863 5 96.67979814302636 25.694050004390306 0.0008052122250463297 -1 0 0
2869 5 99.74899814302636 25.694050004390306 0.0008052122250463502 -1 0 0
2864 5 98.21439814302636 28.352055173685308 0.0008052122250459616 -1 0 0
3073 5 1.5345981430263524 31.01006034298031 0.0008052122250468334 0 0 0
3079 5 4.603798143026355 31.01006034298031 0.0008052122250470725 0 0 0
3074 5 3.0691981430263513 33.668065512275305 0.0008052122250463455 0 0 0
3085 5 7.6729981430263505 31.01006034298031 0.0008052122250470724 0 0 0
3091 5 10.742198143026352 31.01006034298031 0.000805212225047391 0 0 0
3080 5 6.138398143026352 33.668065512275305 0.0008052122250463797 0 0 0
3086 5 9.207598143026354 33.668065512275305 0.0008052122250463454 0 0 0
3097 5 13.811398143026349 31.01006034298031 0.0008052122250471174 0 0 0
3103 5 16.880598143026354 31.01006034298031 0.0008052122250465032 0 0 0
3092 5 12.27679814302635 33.668065512275305 0.0008052122250469475 0 0 0
3098 5 15.345998143026346 33.668065512275305 0.0008052122250457693 0 0 0
3109 5 19.949798143026353 31.01006034298031 0.0008052122250476739 0 0 0
3115 5 23.018998143026348 31.01006034298031 0.0008052122250465033 0 0 0
3104 5 18.415198143026352 33.668065512275305 0.0008052122250463901 0 0 0
3110 5 21.48439814302635 33.668065512275305 0.0008052122250463906 0 0 0
3121 5 26.088198143026354 31.01006034298031 0.0008052122250471169 0 0 0
3127 5 29.157398143026352 31.01006034298031 0.0008052122250476742 0 0 0
3116 5 24.553598143026356 33.668065512275305 0.0008052122250457688 0 0 0
3122 5 27.622798143026355 33.668065512275305 0.0008052122250469468 0 0 0
3133 5 32.22659814302635 31.01006034298031 0.0008052122250465035 0 0 0
3139 5 35.29579814302635 31.01006034298031 0.0008052122250471174 0 0 0
3128 5 30.69199814302635 33.668065512275305 0.0008052122250463903 0 0 0
3134 5 33.761198143026355 33.668065512275305 0.0008052122250457692 0 0 0
3145 5 38.36499814302635 31.01006034298031 0.0008052122250476744 0 0 0
3151 5 41.43419814302635 31.01006034298031 0.0008052122250465032 0 0 0
3140 5 36.83039814302635 33.668065512275305 0.0008052122250469471 0 0 0
3146 5 39.899598143026346 33.668065512275305 0.0008052122250463903 0 0 0
3157 5 44.50339814302635 31.01006034298031 0.0008052122250471174 0 0 0
3163 5 47.57259814302635 31.01006034298031 0.0008052122250471173 0 0 0
3152 5 42.968798143026355 33.668065512275305 0.0008052122250457688 0 0 0
3158 5 46.03799814302635 33.668065512275305 0.0008052122250469471 0 0 0
2971 5 50.64179814302636 31.01006034298031 0.0008052122250462199 -1 0 0
3164 5 49.10719814302635 33.668065512275305 0.0008052122250457692 0 0 0
2972 5 52.176398143026354 33.668065512275305 0.0008052122250457883 -1 0 0
2977 5 53.71099814302636 31.01006034298031 0.0008052122250470725 -1 0 0
2983 5 56.780198143026354 31.01006034298031 0.0008052122250470722 -1 0 0
2978 5 55.245598143026356 33.668065512275305 0.00080521222504638 -1 0 0
2984 5 58.31479814302636 33.668065512275305 0.0008052122250463451 -1 0 0
2989 5 59.849398143026356 31.01006034298031 0.000805212225047107 -1 0 0
2995 5 62.91859814302636 31.01006034298031 0.0008052122250464917 -1 0 0
2990 5 61.38399814302635 33.668065512275305 0.0008052122250460721 -1 0 0
2996 5 64.45319814302637 33.668065512275305 0.0008052122250460722 -1 0 0
3001 5 65.98779814302637 31.01006034298031 0.0008052122250473903 -1 0 0
3007 5 69.05699814302636 31.01006034298031 0.0008052122250471169 -1 0 0
3002 5 67.52239814302636 33.668065512275305 0.0008052122250469469 -1 0 0
3008 5 70.59159814302636 33.668065512275305 0.0008052122250463299 -1 0 0
3013 5 72.12619814302636 31.01006034298031 0.0008052122250470879 -1 0 0
3019 5 75.19539814302637 31.01006034298031 0.0008052122250470636 -1 0 0