LAMMPS data file via write_data, version 29 Aug 2024, timestep = 1, units = metal

7524 atoms
6 atom types

0 101.2836 xlo xhi
0 101.00419643321 ylo yhi
-50 113.12037080284728 zlo zhi

Masses

1 97.90721000000001
2 97.90721000000001
3 32.06
4 32.06
5 32.06
6 32.06

Atoms # atomic

2087 1 1.5345989580099797 2.65800493004945 1.6076625622867047 0 0 0
1886 4 3.069198232591358 1.7720034790694692 0.0007663754658266136 0 0 0
2093 1 4.603798958009981 2.65800493004945 1.6076625622867047 0 0 0
2083 4 1.5345982325913592 4.430008648364467 0.0007663754658271748 0 0 0
2089 4 4.603798232591361 4.430008648364467 0.0007663754658274089 0 0 0
2088 1 3.0691989580099794 5.3160100993444495 1.6076625622867045 0 0 0
1892 4 6.138398232591359 1.772003479069469 0.000766375465826613 0 0 0
2099 1 7.6729989580099796 2.65800493004945 1.6076625622867047 0 0 0
1898 4 9.20759823259136 1.7720034790694692 0.0007663754658266133 0 0 0
2105 1 10.742198958009979 2.65800493004945 1.6076625622867047 0 0 0
2095 4 7.6729982325913575 4.430008648364467 0.0007663754658274086 0 0 0
2101 4 10.742198232591358 4.430008648364467 0.0007663754658277054 0 0 0
2094 1 6.13839895800998 5.3160100993444495 1.6076625622867045 0 0 0
2100 1 9.20759895800998 5.3160100993444495 1.6076625622867045 0 0 0
1904 4 12.276798232591357 1.7720034790694692 0.0007663754658271599 0 0 0
2111 1 13.811398958009976 2.65800493004945 1.6076625622867047 0 0 0
1910 4 15.345998232591352 1.772003479069469 0.000766375465826083 0 0 0
2117 1 16.88059895800998 2.65800493004945 1.6076625622867047 0 0 0
2107 4 13.811398232591355 4.430008648364467 0.0007663754658274451 0 0 0
2113 4 16.88059823259136 4.430008648364467 0.0007663754658268733 0 0 0
2106 1 12.276798958009977 5.3160100993444495 1.6076625622867045 0 0 0
2112 1 15.345998958009975 5.3160100993444495 1.6076625622867045 0 0 0
1916 4 18.41519823259136 1.772003479069469 0.0007663754658266263 0 0 0
2123 1 19.94979895800998 2.65800493004945 1.6076625622867047 0 0 0
1922 4 21.484398232591357 1.772003479069469 0.0007663754658266265 0 0 0
2129 1 23.018998958009977 2.65800493004945 1.6076625622867047 0 0 0
2119 4 19.94979823259136 4.430008648364468 0.0007663754658279747 0 0 0
2125 4 23.018998232591354 4.430008648364467 0.0007663754658268736 0 0 0
2118 1 18.41519895800998 5.3160100993444495 1.6076625622867045 0 0 0
2124 1 21.48439895800998 5.3160100993444495 1.6076625622867045 0 0 0
1928 4 24.553598232591362 1.772003479069469 0.0007663754658260829 0 0 0
2135 1 26.088198958009983 2.65800493004945 1.6076625622867047 0 0 0
1934 4 27.62279823259136 1.7720034790694692 0.0007663754658271596 0 0 0
2141 1 29.157398958009978 2.65800493004945 1.6076625622867047 0 0 0
2131 4 26.088198232591363 4.430008648364467 0.0007663754658274446 0 0 0
2137 4 29.15739823259136 4.430008648364468 0.000766375465827975 0 0 0
2130 1 24.55359895800998 5.3160100993444495 1.6076625622867045 0 0 0
2136 1 27.62279895800998 5.3160100993444495 1.6076625622867045 0 0 0
1940 4 30.691998232591356 1.772003479069469 0.0007663754658266263 0 0 0
2147 1 32.22659895800998 2.65800493004945 1.6076625622867047 0 0 0
1946 4 33.76119823259136 1.772003479069469 0.0007663754658260831 0 0 0
2153 1 35.29579895800998 2.65800493004945 1.6076625622867047 0 0 0
2143 4 32.22659823259136 4.430008648364467 0.0007663754658268736 0 0 0
2149 4 35.29579823259136 4.430008648364467 0.0007663754658274452 0 0 0
2142 1 30.69199895800998 5.3160100993444495 1.6076625622867045 0 0 0
2148 1 33.761198958009984 5.3160100993444495 1.6076625622867045 0 0 0
1952 4 36.83039823259136 1.7720034790694692 0.0007663754658271597 0 0 0
2159 1 38.36499895800998 2.65800493004945 1.6076625622867047 0 0 0
1958 4 39.89959823259135 1.772003479069469 0.0007663754658266263 0 0 0
2165 1 41.43419895800998 2.65800493004945 1.6076625622867047 0 0 0
2155 4 38.364998232591354 4.430008648364468 0.0007663754658279751 0 0 0
2161 4 41.434198232591356 4.430008648364467 0.0007663754658268735 0 0 0
2154 1 36.83039895800998 5.3160100993444495 1.6076625622867045 0 0 0
2160 1 39.899598958009975 5.3160100993444495 1.6076625622867045 0 0 0
1964 4 42.96879823259136 1.772003479069469 0.000766375465826083 0 0 0
2171 1 44.50339895800998 2.65800493004945 1.6076625622867047 0 0 0
1970 4 46.037998232591356 1.7720034790694692 0.0007663754658271597 0 0 0
2177 1 47.572598958009976 2.65800493004945 1.6076625622867047 0 0 0
2167 4 44.50339823259136 4.430008648364467 0.0007663754658274449 0 0 0
2173 4 47.57259823259135 4.430008648364467 0.0007663754658274448 0 0 0
2166 1 42.968798958009984 5.3160100993444495 1.6076625622867045 0 0 0
2172 1 46.03799895800998 5.3160100993444495 1.6076625622867045 0 0 0
1976 4 49.10719823259136 1.772003479069469 0.0007663754658260829 0 0 0
1784 4 52.17639823259136 1.7720034790694688 0.0007663754658260802 -1 0 0
1985 1 50.641798958009986 2.65800493004945 1.6076625622867047 -1 0 0
1981 4 50.64179823259136 4.430008648364467 0.0007663754658266035 -1 0 0
2178 1 49.10719895800998 5.3160100993444495 1.6076625622867045 0 0 0
1986 1 52.17639895800998 5.3160100993444495 1.6076625622867045 -1 0 0
1991 1 53.71099895800999 2.65800493004945 1.6076625622867047 -1 0 0
1790 4 55.24559823259136 1.772003479069469 0.0007663754658266133 -1 0 0
1997 1 56.78019895800998 2.65800493004945 1.6076625622867047 -1 0 0
1796 4 58.314798232591365 1.7720034790694692 0.0007663754658266133 -1 0 0
1987 4 53.710998232591365 4.430008648364467 0.0007663754658274091 -1 0 0
1993 4 56.78019823259137 4.430008648364467 0.0007663754658274088 -1 0 0
1992 1 55.245598958009985 5.3160100993444495 1.6076625622867045 -1 0 0
1998 1 58.31479895800999 5.3160100993444495 1.6076625622867045 -1 0 0
2003 1 59.849398958009985 2.65800493004945 1.6076625622867047 -1 0 0
1802 4 61.38399823259137 1.772003479069469 0.0007663754658263502 -1 0 0
1808 4 64.45319823259138 1.772003479069469 0.0007663754658263501 -1 0 0
2009 1 62.91859895800999 2.65800493004945 1.6076625622867047 -1 0 0
1999 4 59.84939823259136 4.430008648364467 0.000766375465827435 -1 0 0
2005 4 62.918598232591364 4.430008648364467 0.0007663754658268627 -1 0 0
2004 1 61.38399895800998 5.3160100993444495 1.6076625622867045 -1 0 0
2010 1 64.45319895800999 5.3160100993444495 1.6076625622867045 -1 0 0
2015 1 65.98779895800999 2.65800493004945 1.6076625622867047 -1 0 0
1814 4 67.52239823259137 1.7720034790694692 0.0007663754658271596 -1 0 0
2021 1 69.05699895800998 2.65800493004945 1.6076625622867047 -1 0 0
1820 4 70.59159823259137 1.7720034790694692 0.0007663754658266133 -1 0 0
2011 4 65.98779823259137 4.430008648364467 0.0007663754658277047 -1 0 0
2017 4 69.05699823259137 4.430008648364467 0.0007663754658274448 -1 0 0
2016 1 67.52239895800999 5.3160100993444495 1.6076625622867045 -1 0 0
2022 1 70.59159895800998 5.3160100993444495 1.6076625622867045 -1 0 0
2027 1 72.12619895801 2.65800493004945 1.6076625622867047 -1 0 0
1826 4 73.66079823259136 1.772003479069469 0.0007663754658266644 -1 0 0
1832 4 76.72999823259137 1.772003479069469 0.0007663754658266262 -1 0 0
2033 1 75.19539895800999 2.65800493004945 1.6076625622867047 -1 0 0
2023 4 72.12619823259138 4.430008648364467 0.0007663754658274463 -1 0 0
2029 4 75.19539823259137 4.430008648364467 0.0007663754658274067 -1 0 0
2028 1 73.66079895800998 5.3160100993444495 1.6076625622867045 -1 0 0
2034 1 76.72999895800999 5.3160100993444495 1.6076625622867045 -1 0 0
2039 1 78.26459895800998 2.65800493004945 1.6076625622867047 -1 0 0
1838 4 79.79919823259137 1.772003479069469 0.0007663754658266263 -1 0 0
2045 1 81.33379895800998 2.65800493004945 1.6076625622867047 -1 0 0
1844 4 82.86839823259137 1.772003479069469 0.0007663754658260831 -1 0 0
2035 4 78.26459823259137 4.430008648364468 0.0007663754658279747 -1 0 0
2041 4 81.33379823259136 4.430008648364467 0.0007663754658268735 -1 0 0
2040 1 79.79919895800998 5.3160100993444495 1.6076625622867045 -1 0 0
2046 1 82.86839895800999 5.3160100993444495 1.6076625622867045 -1 0 0
2051 1 84.40299895800999 2.65800493004945 1.6076625622867047 -1 0 0
1850 4 85.93759823259137 1.7720034790694692 0.0007663754658271597 -1 0 0
1856 4 89.00679823259136 1.7720034790694692 0.0007663754658266132 -1 0 0
2057 1 87.47219895800998 2.65800493004945 1.6076625622867047 -1 0 0
2047 4 84.40299823259137 4.430008648364467 0.0007663754658274448 -1 0 0
2053 4 87.47219823259137 4.430008648364467 0.0007663754658274448 -1 0 0
2052 1 85.93759895800999 5.3160100993444495 1.6076625622867045 -1 0 0
2058 1 89.00679895800998 5.3160100993444495 1.6076625622867045 -1 0 0
2063 1 90.54139895800999 2.65800493004945 1.6076625622867047 -1 0 0
1862 4 92.07599823259136 1.772003479069469 0.0007663754658266647 -1 0 0
2069 1 93.61059895800999 2.65800493004945 1.6076625622867047 -1 0 0
1868 4 95.14519823259137 1.7720034790694688 0.0007663754658260932 -1 0 0
2059 4 90.54139823259138 4.430008648364467 0.0007663754658274466 -1 0 0
2065 4 93.61059823259137 4.430008648364467 0.0007663754658274075 -1 0 0
2064 1 92.07599895800998 5.3160100993444495 1.6076625622867045 -1 0 0
2070 1 95.14519895800998 5.3160100993444495 1.6076625622867045 -1 0 0
1880 4 101.28359823259137 1.7720034790694692 0.0007663754658266132 -1 0 0
2082 1 101.28359895800999 5.3160100993444495 1.6076625622867045 -1 0 0
2075 1 96.67979895800998 2.65800493004945 1.6076625622867047 -1 0 0
1874 4 98.21439823259138 1.772003479069469 0.0007663754658266646 -1 0 0
2081 1 99.74899895800998 2.65800493004945 1.6076625622867047 -1 0 0
2071 4 96.67979823259137 4.430008648364467 0.0007663754658274072 -1 0 0
2077 4 99.74899823259136 4.430008648364467 0.0007663754658274462 -1 0 0
2076 1 98.21439895801 5.3160100993444495 1.6076625622867045 -1 0 0
2285 1 1.5345989580099797 7.97401526863945 1.607662562286705 0 0 0
2084 4 3.069198232591358 7.088013817659467 0.0007663754658268406 0 0 0
2291 1 4.603798958009981 7.97401526863945 1.607662562286705 0 0 0
2281 4 1.5345982325913592 9.74601898695447 0.0007663754658269131 0 0 0
2287 4 4.603798232591361 9.74601898695447 0.0007663754658271734 0 0 0
2286 1 3.0691989580099794 10.63202043793445 1.6076625622867047 0 0 0
2090 4 6.138398232591359 7.088013817659467 0.0007663754658268398 0 0 0
2297 1 7.672998958009979 7.97401526863945 1.607662562286705 0 0 0
2096 4 9.20759823259136 7.088013817659467 0.0007663754658268404 0 0 0
2303 1 10.742198958009979 7.97401526863945 1.607662562286705 0 0 0
2293 4 7.6729982325913575 9.74601898695447 0.0007663754658271734 0 0 0
2299 4 10.742198232591358 9.74601898695447 0.000766375465827447 0 0 0
2292 1 6.13839895800998 10.63202043793445 1.6076625622867047 0 0 0
2298 1 9.20759895800998 10.63202043793445 1.6076625622867047 0 0 0
2102 4 12.276798232591357 7.088013817659467 0.000766375465827387 0 0 0
2309 1 13.811398958009976 7.97401526863945 1.607662562286705 0 0 0
2108 4 15.345998232591352 7.088013817659467 0.0007663754658263134 0 0 0
2315 1 16.88059895800998 7.97401526863945 1.607662562286705 0 0 0
2305 4 13.811398232591355 9.74601898695447 0.0007663754658271866 0 0 0
2311 4 16.88059823259136 9.74601898695447 0.000766375465826643 0 0 0
2304 1 12.276798958009977 10.63202043793445 1.6076625622867047 0 0 0
2310 1 15.345998958009975 10.63202043793445 1.6076625622867047 0 0 0
2114 4 18.41519823259136 7.088013817659467 0.000766375465826853 0 0 0
2321 1 19.94979895800998 7.97401526863945 1.607662562286705 0 0 0
2120 4 21.484398232591357 7.088013817659467 0.0007663754658268535 0 0 0
2327 1 23.018998958009977 7.97401526863945 1.607662562286705 0 0 0
2317 4 19.94979823259136 9.74601898695447 0.0007663754658277197 0 0 0
2323 4 23.018998232591354 9.74601898695447 0.0007663754658266431 0 0 0
2316 1 18.41519895800998 10.63202043793445 1.6076625622867047 0 0 0
2322 1 21.48439895800998 10.63202043793445 1.6076625622867047 0 0 0
2126 4 24.553598232591362 7.088013817659467 0.0007663754658263131 0 0 0
2333 1 26.088198958009983 7.97401526863945 1.607662562286705 0 0 0
2132 4 27.62279823259136 7.088013817659467 0.0007663754658273866 0 0 0
2339 1 29.157398958009978 7.97401526863945 1.607662562286705 0 0 0
2329 4 26.088198232591363 9.74601898695447 0.000766375465827186 0 0 0
2335 4 29.15739823259136 9.74601898695447 0.0007663754658277198 0 0 0
2328 1 24.55359895800998 10.63202043793445 1.6076625622867047 0 0 0
2334 1 27.62279895800998 10.63202043793445 1.6076625622867047 0 0 0
2138 4 30.691998232591356 7.088013817659467 0.0007663754658268533 0 0 0
2345 1 32.22659895800998 7.97401526863945 1.607662562286705 0 0 0
2144 4 33.76119823259136 7.088013817659467 0.0007663754658263134 0 0 0
2351 1 35.29579895800998 7.97401526863945 1.607662562286705 0 0 0
2341 4 32.22659823259136 9.74601898695447 0.0007663754658266431 0 0 0
2347 4 35.29579823259136 9.74601898695447 0.0007663754658271867 0 0 0
2340 1 30.69199895800998 10.63202043793445 1.6076625622867047 0 0 0
2346 1 33.761198958009984 10.63202043793445 1.6076625622867047 0 0 0
2150 4 36.83039823259136 7.088013817659467 0.0007663754658273867 0 0 0
2357 1 38.36499895800998 7.97401526863945 1.607662562286705 0 0 0
2156 4 39.89959823259135 7.088013817659467 0.0007663754658268531 0 0 0
2363 1 41.43419895800998 7.97401526863945 1.607662562286705 0 0 0
2353 4 38.364998232591354 9.74601898695447 0.0007663754658277197 0 0 0
2359 4 41.434198232591356 9.74601898695447 0.000766375465826643 0 0 0
2352 1 36.83039895800998 10.63202043793445 1.6076625622867047 0 0 0
2358 1 39.899598958009975 10.63202043793445 1.6076625622867047 0 0 0
2162 4 42.96879823259136 7.088013817659467 0.0007663754658263131 0 0 0
2369 1 44.50339895800998 7.97401526863945 1.607662562286705 0 0 0
2168 4 46.037998232591356 7.088013817659467 0.0007663754658273866 0 0 0
2375 1 47.572598958009976 7.97401526863945 1.607662562286705 0 0 0
2365 4 44.50339823259136 9.74601898695447 0.0007663754658271863 0 0 0
2371 4 47.57259823259135 9.74601898695447 0.0007663754658271863 0 0 0
2364 1 42.968798958009984 10.63202043793445 1.6076625622867047 0 0 0
2370 1 46.03799895800998 10.63202043793445 1.6076625622867047 0 0 0
2174 4 49.10719823259136 7.088013817659467 0.0007663754658263131 0 0 0
1982 4 52.17639823259136 7.088013817659467 0.0007663754658263071 -1 0 0
2183 1 50.641798958009986 7.97401526863945 1.607662562286705 -1 0 0
2179 4 50.64179823259136 9.74601898695447 0.0007663754658263698 -1 0 0
2376 1 49.10719895800998 10.63202043793445 1.6076625622867047 0 0 0
2184 1 52.17639895800998 10.63202043793445 1.6076625622867047 -1 0 0
2189 1 53.71099895800999 7.97401526863945 1.607662562286705 -1 0 0
1988 4 55.24559823259136 7.088013817659467 0.0007663754658268402 -1 0 0
2195 1 56.78019895800998 7.97401526863945 1.607662562286705 -1 0 0
1994 4 58.314798232591365 7.088013817659467 0.00076637546582684 -1 0 0
2185 4 53.710998232591365 9.74601898695447 0.0007663754658271735 -1 0 0
2191 4 56.78019823259137 9.74601898695447 0.0007663754658271734 -1 0 0
2190 1 55.245598958009985 10.63202043793445 1.6076625622867047 -1 0 0
2196 1 58.31479895800999 10.63202043793445 1.6076625622867047 -1 0 0
2201 1 59.849398958009985 7.97401526863945 1.607662562286705 -1 0 0
2000 4 61.38399823259137 7.088013817659467 0.0007663754658265771 -1 0 0
2006 4 64.45319823259138 7.088013817659467 0.0007663754658265769 -1 0 0
2207 1 62.91859895800999 7.97401526863945 1.607662562286705 -1 0 0
2197 4 59.84939823259136 9.74601898695447 0.0007663754658271731 -1 0 0
2203 4 62.918598232591364 9.74601898695447 0.0007663754658266471 -1 0 0
2202 1 61.38399895800998 10.63202043793445 1.6076625622867047 -1 0 0
2208 1 64.45319895800999 10.63202043793445 1.6076625622867047 -1 0 0
2213 1 65.98779895800999 7.97401526863945 1.607662562286705 -1 0 0
2012 4 67.52239823259137 7.088013817659467 0.0007663754658273865 -1 0 0
2219 1 69.05699895800998 7.97401526863945 1.607662562286705 -1 0 0
2018 4 70.59159823259137 7.088013817659467 0.0007663754658268434 -1 0 0
2209 4 65.98779823259137 9.74601898695447 0.0007663754658274462 -1 0 0
2215 4 69.05699823259137 9.74601898695447 0.0007663754658271863 -1 0 0
2214 1 67.52239895800999 10.63202043793445 1.6076625622867047 -1 0 0
2220 1 70.59159895800998 10.63202043793445 1.6076625622867047 -1 0 0
2225 1 72.12619895801 7.97401526863945 1.607662562286705 -1 0 0
2024 4 73.66079823259136 7.088013817659467 0.0007663754658268979 -1 0 0
2030 4 76.72999823259137 7.088013817659467 0.0007663754658268531 -1 0 0
2231 1 75.19539895800999 7.97401526863945 1.607662562286705 -1 0 0
2221 4 72.12619823259138 9.74601898695447 0.0007663754658272277 -1 0 0
2227 4 75.19539823259137 9.74601898695447 0.0007663754658271731 -1 0 0
2226 1 73.66079895800998 10.63202043793445 1.6076625622867047 -1 0 0
2232 1 76.72999895800999 10.63202043793445 1.6076625622867047 -1 0 0
2237 1 78.26459895800998 7.97401526863945 1.607662562286705 -1 0 0
2036 4 79.79919823259137 7.088013817659467 0.0007663754658268533 -1 0 0
2243 1 81.33379895800998 7.97401526863945 1.607662562286705 -1 0 0
2042 4 82.86839823259137 7.088013817659467 0.0007663754658263134 -1 0 0
2233 4 78.26459823259137 9.74601898695447 0.0007663754658277197 -1 0 0
2239 4 81.33379823259136 9.74601898695447 0.0007663754658266431 -1 0 0
2238 1 79.79919895800998 10.63202043793445 1.6076625622867047 -1 0 0
2244 1 82.86839895800999 10.63202043793445 1.6076625622867047 -1 0 0
2249 1 84.40299895800999 7.97401526863945 1.607662562286705 -1 0 0
2048 4 85.93759823259137 7.088013817659467 0.0007663754658273867 -1 0 0
2054 4 89.00679823259136 7.088013817659467 0.0007663754658268433 -1 0 0
2255 1 87.47219895800998 7.97401526863945 1.607662562286705 -1 0 0
2245 4 84.40299823259137 9.74601898695447 0.0007663754658271864 -1 0 0
2251 4 87.47219823259137 9.74601898695447 0.0007663754658271864 -1 0 0
2250 1 85.93759895800999 10.63202043793445 1.6076625622867047 -1 0 0
2256 1 89.00679895800998 10.63202043793445 1.6076625622867047 -1 0 0
2261 1 90.54139895800999 7.97401526863945 1.607662562286705 -1 0 0
2060 4 92.07599823259136 7.088013817659467 0.0007663754658268981 -1 0 0
2267 1 93.61059895800999 7.97401526863945 1.607662562286705 -1 0 0
2066 4 95.14519823259137 7.088013817659467 0.0007663754658263202 -1 0 0
2257 4 90.54139823259138 9.74601898695447 0.0007663754658272277 -1 0 0
2263 4 93.61059823259137 9.74601898695447 0.0007663754658271737 -1 0 0
2262 1 92.07599895800998 10.63202043793445 1.6076625622867047 -1 0 0
2268 1 95.14519895800998 10.63202043793445 1.6076625622867047 -1 0 0
2078 4 101.28359823259137 7.088013817659467 0.0007663754658268433 -1 0 0
2280 1 101.28359895800999 10.63202043793445 1.6076625622867047 -1 0 0
2273 1 96.67979895800998 7.97401526863945 1.607662562286705 -1 0 0
2072 4 98.21439823259138 7.088013817659467 0.000766375465826898 -1 0 0
2279 1 99.74899895800998 7.97401526863945 1.607662562286705 -1 0 0
2269 4 96.67979823259137 9.74601898695447 0.0007663754658271734 -1 0 0
2275 4 99.74899823259136 9.74601898695447 0.0007663754658272276 -1 0 0
2274 1 98.21439895801 10.63202043793445 1.6076625622867047 -1 0 0
2483 1 1.5345989580099797 13.29002560722945 1.6076625622867047 0 0 0
2282 4 3.069198232591358 12.404024156249466 0.0007663754658274091 0 0 0
2489 1 4.603798958009981 13.29002560722945 1.6076625622867047 0 0 0
2479 4 1.5345982325913592 15.062029325544467 0.0007663754658269513 0 0 0
2485 4 4.603798232591361 15.062029325544469 0.0007663754658271884 0 0 0
2484 1 3.0691989580099794 15.94803077652445 1.6076625622867045 0 0 0
2480 4 3.069198232591358 17.720034494839464 0.0007663754658270695 0 0 0
2288 4 6.138398232591359 12.404024156249466 0.000766375465827435 0 0 0
2495 1 7.672998958009979 13.29002560722945 1.6076625622867047 0 0 0
2294 4 9.20759823259136 12.404024156249466 0.0007663754658274089 0 0 0
2501 1 10.742198958009979 13.29002560722945 1.6076625622867047 0 0 0
2491 4 7.6729982325913575 15.062029325544469 0.0007663754658271884 0 0 0
2497 4 10.742198232591358 15.062029325544469 0.0007663754658274818 0 0 0
2490 1 6.13839895800998 15.94803077652445 1.6076625622867045 0 0 0
2496 1 9.20759895800998 15.94803077652445 1.6076625622867045 0 0 0
2486 4 6.138398232591359 17.720034494839464 0.000766375465827102 0 0 0
2492 4 9.20759823259136 17.720034494839464 0.0007663754658270691 0 0 0
2300 4 12.276798232591357 12.404024156249466 0.0007663754658279752 0 0 0
2507 1 13.811398958009976 13.29002560722945 1.6076625622867047 0 0 0
2306 4 15.345998232591352 12.404024156249466 0.0007663754658268738 0 0 0
2513 1 16.88059895800998 13.29002560722945 1.6076625622867047 0 0 0
2503 4 13.811398232591355 15.062029325544469 0.0007663754658272215 0 0 0
2509 4 16.88059823259136 15.062029325544469 0.0007663754658266465 0 0 0
2502 1 12.276798958009977 15.94803077652445 1.6076625622867045 0 0 0
2508 1 15.345998958009975 15.94803077652445 1.6076625622867045 0 0 0
2498 4 12.276798232591357 17.720034494839464 0.0007663754658276421 0 0 0
2504 4 15.345998232591352 17.720034494839464 0.0007663754658265208 0 0 0
2312 4 18.41519823259136 12.404024156249466 0.0007663754658274449 0 0 0
2519 1 19.94979895800998 13.29002560722945 1.6076625622867047 0 0 0
2318 4 21.484398232591357 12.404024156249466 0.0007663754658274452 0 0 0
2525 1 23.018998958009977 13.29002560722945 1.6076625622867047 0 0 0
2515 4 19.94979823259136 15.062029325544469 0.0007663754658277512 0 0 0
2521 4 23.018998232591354 15.062029325544469 0.0007663754658266465 0 0 0
2514 1 18.41519895800998 15.94803077652445 1.6076625622867045 0 0 0
2520 1 21.48439895800998 15.94803077652445 1.6076625622867045 0 0 0
2510 4 18.41519823259136 17.720034494839464 0.000766375465827112 0 0 0
2516 4 21.484398232591357 17.720034494839464 0.0007663754658271123 0 0 0
2324 4 24.553598232591362 12.404024156249466 0.0007663754658268735 0 0 0
2531 1 26.088198958009983 13.29002560722945 1.6076625622867047 0 0 0
2330 4 27.62279823259136 12.404024156249466 0.0007663754658279751 0 0 0
2537 1 29.157398958009978 13.29002560722945 1.6076625622867047 0 0 0
2527 4 26.088198232591363 15.062029325544469 0.0007663754658272209 0 0 0
2533 4 29.15739823259136 15.062029325544469 0.0007663754658277514 0 0 0
2526 1 24.55359895800998 15.94803077652445 1.6076625622867045 0 0 0
2532 1 27.62279895800998 15.94803077652445 1.6076625622867045 0 0 0
2522 4 24.553598232591362 17.720034494839464 0.0007663754658265206 0 0 0
2528 4 27.62279823259136 17.720034494839464 0.0007663754658276418 0 0 0
2336 4 30.691998232591356 12.404024156249466 0.0007663754658274449 0 0 0
2543 1 32.22659895800998 13.29002560722945 1.6076625622867047 0 0 0
2342 4 33.76119823259136 12.404024156249466 0.000766375465826874 0 0 0
2549 1 35.29579895800998 13.29002560722945 1.6076625622867047 0 0 0
2539 4 32.22659823259136 15.062029325544469 0.0007663754658266467 0 0 0
2545 4 35.29579823259136 15.062029325544469 0.0007663754658272213 0 0 0
2538 1 30.69199895800998 15.94803077652445 1.6076625622867045 0 0 0
2544 1 33.761198958009984 15.94803077652445 1.6076625622867045 0 0 0
2534 4 30.691998232591356 17.720034494839464 0.0007663754658271119 0 0 0
2540 4 33.76119823259136 17.720034494839464 0.0007663754658265209 0 0 0
2348 4 36.83039823259136 12.404024156249466 0.0007663754658279752 0 0 0
2555 1 38.36499895800998 13.29002560722945 1.6076625622867047 0 0 0
2354 4 39.89959823259135 12.404024156249466 0.0007663754658274451 0 0 0
2561 1 41.43419895800998 13.29002560722945 1.6076625622867047 0 0 0
2551 4 38.364998232591354 15.062029325544469 0.0007663754658277514 0 0 0
2557 4 41.434198232591356 15.062029325544469 0.0007663754658266465 0 0 0
2550 1 36.83039895800998 15.94803077652445 1.6076625622867045 0 0 0
2556 1 39.899598958009975 15.94803077652445 1.6076625622867045 0 0 0
2546 4 36.83039823259136 17.720034494839464 0.0007663754658276421 0 0 0
2552 4 39.89959823259135 17.720034494839464 0.0007663754658271119 0 0 0
2360 4 42.96879823259136 12.404024156249466 0.0007663754658268736 0 0 0
2567 1 44.50339895800998 13.29002560722945 1.6076625622867047 0 0 0
2366 4 46.037998232591356 12.404024156249466 0.0007663754658279752 0 0 0
2573 1 47.572598958009976 13.29002560722945 1.6076625622867047 0 0 0
2563 4 44.50339823259136 15.062029325544469 0.0007663754658272212 0 0 0
2569 4 47.57259823259135 15.062029325544469 0.0007663754658272212 0 0 0
2562 1 42.968798958009984 15.94803077652445 1.6076625622867045 0 0 0
2568 1 46.03799895800998 15.94803077652445 1.6076625622867045 0 0 0
2558 4 42.96879823259136 17.720034494839464 0.0007663754658265208 0 0 0
2564 4 46.037998232591356 17.720034494839464 0.0007663754658276421 0 0 0
2372 4 49.10719823259136 12.404024156249466 0.0007663754658268736 0 0 0
2180 4 52.17639823259136 12.404024156249466 0.0007663754658268793 -1 0 0
2381 1 50.641798958009986 13.29002560722945 1.6076625622867047 -1 0 0
2377 4 50.64179823259136 15.062029325544467 0.0007663754658263767 -1 0 0
2574 1 49.10719895800998 15.94803077652445 1.6076625622867045 0 0 0
2382 1 52.17639895800998 15.94803077652445 1.6076625622867045 -1 0 0
2570 4 49.10719823259136 17.720034494839464 0.0007663754658265209 0 0 0
2378 4 52.17639823259136 17.720034494839464 0.0007663754658265393 -1 0 0
2387 1 53.71099895800999 13.29002560722945 1.6076625622867047 -1 0 0
2186 4 55.24559823259136 12.404024156249466 0.0007663754658274351 -1 0 0
2393 1 56.78019895800998 13.29002560722945 1.6076625622867047 -1 0 0
2192 4 58.314798232591365 12.404024156249466 0.0007663754658274088 -1 0 0
2383 4 53.710998232591365 15.062029325544469 0.0007663754658271888 -1 0 0
2389 4 56.78019823259137 15.062029325544469 0.0007663754658271885 -1 0 0
2388 1 55.245598958009985 15.94803077652445 1.6076625622867045 -1 0 0
2394 1 58.31479895800999 15.94803077652445 1.6076625622867045 -1 0 0
2384 4 55.24559823259136 17.720034494839464 0.0007663754658271025 -1 0 0
2390 4 58.314798232591365 17.720034494839464 0.0007663754658270688 -1 0 0
2399 1 59.849398958009985 13.29002560722945 1.6076625622867047 -1 0 0
2198 4 61.38399823259137 12.404024156249466 0.000766375465827149 -1 0 0
2204 4 64.45319823259138 12.404024156249466 0.0007663754658271487 -1 0 0
2405 1 62.91859895800999 13.29002560722945 1.6076625622867047 -1 0 0
2395 4 59.84939823259136 15.062029325544469 0.0007663754658272112 -1 0 0
2401 4 62.918598232591364 15.062029325544467 0.0007663754658266456 -1 0 0
2400 1 61.38399895800998 15.94803077652445 1.6076625622867045 -1 0 0
2406 1 64.45319895800999 15.94803077652445 1.6076625622867045 -1 0 0
2396 4 61.38399823259137 17.720034494839464 0.0007663754658268092 -1 0 0
2402 4 64.45319823259138 17.720034494839464 0.0007663754658268092 -1 0 0
2411 1 65.98779895800999 13.29002560722945 1.6076625622867047 -1 0 0
2210 4 67.52239823259137 12.404024156249466 0.000766375465827975 -1 0 0
2417 1 69.05699895800998 13.29002560722945 1.6076625622867047 -1 0 0
2216 4 70.59159823259137 12.404024156249466 0.0007663754658274074 -1 0 0
2407 4 65.98779823259137 15.062029325544469 0.0007663754658274811 -1 0 0
2413 4 69.05699823259137 15.062029325544469 0.0007663754658272212 -1 0 0
2412 1 67.52239895800999 15.94803077652445 1.6076625622867045 -1 0 0
2418 1 70.59159895800998 15.94803077652445 1.6076625622867045 -1 0 0
2408 4 67.52239823259137 17.720034494839464 0.0007663754658276421 -1 0 0
2414 4 70.59159823259137 17.720034494839464 0.0007663754658270545 -1 0 0
2423 1 72.12619895801 13.29002560722945 1.6076625622867047 -1 0 0
2222 4 73.66079823259136 12.404024156249466 0.0007663754658274463 -1 0 0
2228 4 76.72999823259137 12.404024156249466 0.0007663754658274448 -1 0 0
2429 1 75.19539895800999 13.29002560722945 1.6076625622867047 -1 0 0
2419 4 72.12619823259138 15.062029325544469 0.0007663754658272195 -1 0 0
2425 4 75.19539823259137 15.062029325544469 0.0007663754658271799 -1 0 0
2424 1 73.66079895800998 15.94803077652445 1.6076625622867045 -1 0 0
2430 1 76.72999895800999 15.94803077652445 1.6076625622867045 -1 0 0
2420 4 73.66079823259136 17.720034494839464 0.0007663754658270738 -1 0 0
2426 4 76.72999823259137 17.720034494839464 0.0007663754658271115 -1 0 0
2435 1 78.26459895800998 13.29002560722945 1.6076625622867047 -1 0 0
2234 4 79.79919823259137 12.404024156249466 0.0007663754658274449 -1 0 0
2441 1 81.33379895800998 13.29002560722945 1.6076625622867047 -1 0 0
2240 4 82.86839823259137 12.404024156249466 0.0007663754658268736 -1 0 0
2431 4 78.26459823259137 15.062029325544469 0.0007663754658277514 -1 0 0
2437 4 81.33379823259136 15.062029325544469 0.0007663754658266465 -1 0 0
2436 1 79.79919895800998 15.94803077652445 1.6076625622867045 -1 0 0
2442 1 82.86839895800999 15.94803077652445 1.6076625622867045 -1 0 0
2432 4 79.79919823259137 17.720034494839464 0.0007663754658271118 -1 0 0
2438 4 82.86839823259137 17.720034494839464 0.0007663754658265211 -1 0 0
2447 1 84.40299895800999 13.29002560722945 1.6076625622867047 -1 0 0
2246 4 85.93759823259137 12.404024156249466 0.0007663754658279751 -1 0 0
2252 4 89.00679823259136 12.404024156249466 0.000766375465827407 -1 0 0
2453 1 87.47219895800998 13.29002560722945 1.6076625622867047 -1 0 0
2443 4 84.40299823259137 15.062029325544469 0.0007663754658272212 -1 0 0
2449 4 87.47219823259137 15.062029325544469 0.0007663754658272212 -1 0 0
2448 1 85.93759895800999 15.94803077652445 1.6076625622867045 -1 0 0
2454 1 89.00679895800998 15.94803077652445 1.6076625622867045 -1 0 0
2444 4 85.93759823259137 17.720034494839464 0.0007663754658276419 -1 0 0
2450 4 89.00679823259136 17.720034494839464 0.000766375465827054 -1 0 0
2459 1 90.54139895800999 13.29002560722945 1.6076625622867047 -1 0 0
2258 4 92.07599823259136 12.404024156249466 0.0007663754658274466 -1 0 0
2465 1 93.61059895800999 13.29002560722945 1.6076625622867047 -1 0 0
2264 4 95.14519823259137 12.404024156249466 0.0007663754658269151 -1 0 0
2455 4 90.54139823259138 15.062029325544469 0.0007663754658272197 -1 0 0
2461 4 93.61059823259137 15.062029325544469 0.0007663754658271806 -1 0 0
2460 1 92.07599895800998 15.94803077652445 1.6076625622867045 -1 0 0
2466 1 95.14519895800998 15.94803077652445 1.6076625622867045 -1 0 0
2456 4 92.07599823259136 17.720034494839464 0.0007663754658270741 -1 0 0
2462 4 95.14519823259137 17.720034494839464 0.000766375465826582 -1 0 0
2276 4 101.28359823259137 12.404024156249466 0.000766375465827407 -1 0 0
2478 1 101.28359895800999 15.94803077652445 1.6076625622867045 -1 0 0
2474 4 101.28359823259137 17.720034494839464 0.000766375465827054 -1 0 0