LAMMPS data file via write_data, version 29 Aug 2024, timestep = 2, units = metal

5916 atoms
6 atom types

0 100.959384326873 xlo xhi
0 102.508114263304 ylo yhi
-50 50 zlo zhi

Masses

1 92.90637
2 92.90637
3 78.971
4 78.971
5 78.971
6 78.971

Atoms # atomic

1661 1 1.7409678191353548 3.014653061313286 1.6663589714481064 0 0 0
1484 4 3.4813704724213363 2.009963995556404 0.02716760299571029 0 0 0
1667 1 5.222325899372355 3.014653061313285 1.6663589714481055 0 0 0
1657 4 1.7406914323029141 5.024908532712402 0.027167602995707914 0 0 0
1663 4 5.222049512539915 5.024908532712402 0.027167602995708664 0 0 0
1478 4 1.2392184345344504e-05 2.009963995556404 0.027167602995709986 0 0 0
1490 4 6.962728552658337 2.0099639955564035 0.02716760299570975 0 0 0
1673 1 8.703683979609355 3.0146530613132847 1.6663589714481049 0 0 0
1496 4 10.444086632895338 2.0099639955564035 0.02716760299570971 0 0 0
1669 4 8.703407592776916 5.024908532712402 0.027167602995708525 0 0 0
1679 1 12.185042059846355 3.014653061313285 1.6663589714481055 0 0 0
1502 4 13.925444713132338 2.009963995556403 0.02716760299570925 0 0 0
1685 1 15.666400140083354 3.0146530613132856 1.6663589714481055 0 0 0
1508 4 17.406802793369337 2.0099639955564035 0.027167602995710017 0 0 0
1675 4 12.184765673013917 5.024908532712403 0.02716760299570844 0 0 0
1681 4 15.666123753250913 5.024908532712403 0.02716760299570856 0 0 0
1691 1 19.147758220320355 3.014653061313285 1.6663589714481053 0 0 0
1514 4 20.88816087360634 2.0099639955564035 0.027167602995710315 0 0 0
1697 1 22.629116300557353 3.0146530613132865 1.6663589714481069 0 0 0
1687 4 19.147481833487916 5.024908532712402 0.027167602995708674 0 0 0
1693 4 22.628839913724914 5.024908532712401 0.027167602995707245 0 0 0
1520 4 24.369518953843333 2.009963995556404 0.027167602995710572 0 0 0
1703 1 26.110474380794354 3.0146530613132856 1.6663589714481057 0 0 0
1526 4 27.850877034080334 2.0099639955564035 0.027167602995710045 0 0 0
1709 1 29.591832461031355 3.0146530613132856 1.6663589714481055 0 0 0
1699 4 26.11019799396191 5.024908532712402 0.027167602995708664 0 0 0
1705 4 29.591556074198913 5.024908532712402 0.027167602995708622 0 0 0
1532 4 31.332235114317335 2.0099639955564035 0.027167602995710062 0 0 0
1715 1 33.07319054126835 3.0146530613132856 1.6663589714481057 0 0 0
1538 4 34.813593194554336 2.0099639955564035 0.027167602995709125 0 0 0
1711 4 33.072914154435914 5.024908532712403 0.027167602995708934 0 0 0
1721 1 36.554548621505354 3.0146530613132847 1.666358971448104 0 0 0
1544 4 38.29495127479134 2.0099639955564035 0.027167602995709642 0 0 0
1727 1 40.035906701742356 3.0146530613132856 1.6663589714481055 0 0 0
1717 4 36.554272234672915 5.024908532712402 0.0271676029957079 0 0 0
1723 4 40.035630314909916 5.024908532712402 0.02716760299570868 0 0 0
1550 4 41.77630935502834 2.0099639955564035 0.027167602995710045 0 0 0
1733 1 43.51726478197936 3.0146530613132856 1.6663589714481055 0 0 0
1556 4 45.25766743526534 2.0099639955564035 0.027167602995710045 0 0 0
1739 1 46.99862286221636 3.0146530613132856 1.6663589714481055 0 0 0
1729 4 43.51698839514692 5.024908532712402 0.02716760299570868 0 0 0
1735 4 46.99834647538392 5.024908532712403 0.027167602995709198 0 0 0
1562 4 48.73902551550234 2.0099639955564035 0.0271676029957099 0 0 0
1394 4 52.22038359573934 2.009963995556404 0.027167602995710693 -1 0 0
1571 1 50.47998094245336 3.014653061313285 1.666358971448105 -1 0 0
1567 4 50.47970455562092 5.024908532712403 0.027167602995709406 -1 0 0
1577 1 53.96133902269036 3.014653061313286 1.6663589714481066 -1 0 0
1400 4 55.70174167597634 2.0099639955564035 0.02716760299570983 -1 0 0
1583 1 57.44269710292736 3.0146530613132856 1.6663589714481055 -1 0 0
1406 4 59.183099756213345 2.009963995556403 0.027167602995709337 -1 0 0
1573 4 53.96106263585792 5.024908532712402 0.02716760299570793 -1 0 0
1579 4 57.44242071609492 5.024908532712403 0.027167602995708213 -1 0 0
1589 1 60.924055183164356 3.014653061313285 1.6663589714481055 -1 0 0
1412 4 62.664457836450346 2.009963995556404 0.027167602995710333 -1 0 0
1595 1 64.40541326340136 3.014653061313286 1.6663589714481064 -1 0 0
1585 4 60.923778796331916 5.024908532712403 0.027167602995708806 -1 0 0
1591 4 64.40513687656892 5.024908532712402 0.027167602995707935 -1 0 0
1418 4 66.14581591668734 2.009963995556404 0.027167602995710357 -1 0 0
1601 1 67.88677134363836 3.0146530613132856 1.6663589714481055 -1 0 0
1424 4 69.62717399692434 2.0099639955564035 0.027167602995710034 -1 0 0
1597 4 67.88649495680592 5.024908532712402 0.02716760299570863 -1 0 0
1607 1 71.36812942387536 3.014653061313285 1.6663589714481055 -1 0 0
1430 4 73.10853207716134 2.0099639955564035 0.027167602995710034 -1 0 0
1436 4 76.58989015739834 2.0099639955564035 0.027167602995709632 -1 0 0
1613 1 74.84948750411236 3.0146530613132856 1.6663589714481057 -1 0 0
1603 4 71.36785303704292 5.024908532712402 0.02716760299570873 -1 0 0
1609 4 74.84921111727992 5.024908532712402 0.02716760299570868 -1 0 0
1619 1 78.33084558434936 3.0146530613132843 1.6663589714481035 -1 0 0
1442 4 80.07124823763534 2.0099639955564035 0.027167602995709982 -1 0 0
1625 1 81.81220366458636 3.0146530613132865 1.6663589714481075 -1 0 0
1615 4 78.33056919751692 5.024908532712403 0.02716760299570842 -1 0 0
1621 4 81.81192727775392 5.024908532712403 0.02716760299570802 -1 0 0
1448 4 83.55260631787235 2.0099639955564026 0.027167602995708712 -1 0 0
1631 1 85.29356174482336 3.0146530613132843 1.6663589714481037 -1 0 0
1454 4 87.03396439810935 2.0099639955564044 0.027167602995709982 -1 0 0
1637 1 88.77491982506035 3.0146530613132856 1.6663589714481057 -1 0 0
1627 4 85.29328535799091 5.024908532712402 0.027167602995708452 -1 0 0
1633 4 88.77464343822793 5.024908532712402 0.02716760299570857 -1 0 0
1460 4 90.51532247834635 2.0099639955564026 0.027167602995708588 -1 0 0
1643 1 92.25627790529735 3.014653061313285 1.6663589714481053 -1 0 0
1466 4 93.99668055858335 2.009963995556405 0.027167602995711967 -1 0 0
1639 4 92.25600151846491 5.024908532712402 0.027167602995708702 -1 0 0
1649 1 95.73763598553435 3.0146530613132865 1.6663589714481075 -1 0 0
1472 4 97.47803863882034 2.0099639955564026 0.027167602995708688 -1 0 0
1655 1 99.21899406577135 3.0146530613132843 1.6663589714481035 -1 0 0
1645 4 95.73735959870193 5.024908532712401 0.02716760299570753 -1 0 0
1651 4 99.21871767893892 5.024908532712404 0.027167602995710024 -1 0 0
1662 1 3.4816468592537837 6.029597598469285 1.6663589714481049 0 0 0
1835 1 1.7409678191353548 9.044542135625285 1.6663589714481046 0 0 0
1658 4 3.4813704724213363 8.039853069868402 0.027167602995708258 0 0 0
1841 1 5.222325899372355 9.044542135625285 1.6663589714481037 0 0 0
1831 4 1.7406914323029141 11.054797607024403 0.027167602995708043 0 0 0
1837 4 5.222049512539915 11.054797607024405 0.027167602995708716 0 0 0
1656 1 0.0002887790167847015 6.029597598469285 1.6663589714481044 0 0 0
1652 4 1.2392184345344504e-05 8.039853069868402 0.027167602995707977 0 0 0
1668 1 6.963004939490785 6.029597598469285 1.6663589714481046 0 0 0
1674 1 10.444363019727787 6.029597598469285 1.6663589714481046 0 0 0
1664 4 6.962728552658337 8.039853069868402 0.027167602995707828 0 0 0
1847 1 8.703683979609355 9.044542135625285 1.6663589714481029 0 0 0
1670 4 10.444086632895338 8.039853069868402 0.027167602995707862 0 0 0
1843 4 8.703407592776916 11.054797607024405 0.027167602995708577 0 0 0
1680 1 13.925721099964784 6.029597598469285 1.6663589714481049 0 0 0
1686 1 17.407079180201784 6.029597598469285 1.6663589714481046 0 0 0
1853 1 12.185042059846355 9.044542135625285 1.6663589714481037 0 0 0
1676 4 13.925444713132338 8.0398530698684 0.02716760299570735 0 0 0
1859 1 15.666400140083354 9.044542135625285 1.6663589714481037 0 0 0
1682 4 17.406802793369337 8.039853069868402 0.027167602995708064 0 0 0
1849 4 12.184765673013917 11.054797607024405 0.027167602995708532 0 0 0
1855 4 15.666123753250913 11.054797607024405 0.027167602995708674 0 0 0
1692 1 20.888437260438785 6.029597598469285 1.6663589714481049 0 0 0
1865 1 19.147758220320355 9.044542135625285 1.6663589714481037 0 0 0
1688 4 20.88816087360634 8.039853069868402 0.027167602995708473 0 0 0
1871 1 22.629116300557353 9.044542135625285 1.666358971448105 0 0 0
1861 4 19.147481833487916 11.054797607024405 0.027167602995708747 0 0 0
1867 4 22.628839913724914 11.054797607024403 0.027167602995707283 0 0 0
1698 1 24.369795340675783 6.029597598469285 1.6663589714481049 0 0 0
1704 1 27.851153420912784 6.029597598469286 1.6663589714481046 0 0 0
1694 4 24.369518953843333 8.039853069868402 0.02716760299570867 0 0 0
1877 1 26.110474380794354 9.044542135625285 1.6663589714481037 0 0 0
1700 4 27.850877034080334 8.039853069868402 0.02716760299570804 0 0 0
1883 1 29.591832461031355 9.044542135625285 1.6663589714481037 0 0 0
1873 4 26.11019799396191 11.054797607024405 0.027167602995708723 0 0 0
1879 4 29.591556074198913 11.054797607024405 0.02716760299570868 0 0 0
1710 1 31.332511501149785 6.029597598469286 1.6663589714481046 0 0 0
1716 1 34.81386958138679 6.029597598469286 1.6663589714481046 0 0 0
1706 4 31.332235114317335 8.039853069868402 0.02716760299570806 0 0 0
1889 1 33.07319054126835 9.044542135625285 1.666358971448104 0 0 0
1712 4 34.813593194554336 8.039853069868402 0.027167602995707148 0 0 0
1885 4 33.072914154435914 11.054797607024405 0.027167602995708938 0 0 0
1722 1 38.295227661623784 6.029597598469286 1.6663589714481046 0 0 0
1895 1 36.554548621505354 9.044542135625283 1.6663589714481022 0 0 0
1718 4 38.29495127479134 8.039853069868402 0.027167602995707713 0 0 0
1901 1 40.035906701742356 9.044542135625285 1.6663589714481037 0 0 0
1891 4 36.554272234672915 11.054797607024403 0.027167602995708008 0 0 0
1897 4 40.035630314909916 11.054797607024405 0.02716760299570868 0 0 0
1728 1 41.776585741860785 6.029597598469286 1.6663589714481046 0 0 0
1734 1 45.257943822097786 6.029597598469286 1.6663589714481046 0 0 0
1724 4 41.77630935502834 8.039853069868402 0.027167602995708043 0 0 0
1907 1 43.51726478197936 9.044542135625285 1.6663589714481037 0 0 0
1730 4 45.25766743526534 8.039853069868402 0.027167602995708043 0 0 0
1913 1 46.99862286221636 9.044542135625285 1.6663589714481037 0 0 0
1903 4 43.51698839514692 11.054797607024405 0.02716760299570868 0 0 0
1909 4 46.99834647538392 11.054797607024405 0.0271676029957092 0 0 0
1740 1 48.739301902334795 6.029597598469286 1.6663589714481046 0 0 0
1572 1 52.220659982571796 6.029597598469285 1.6663589714481049 -1 0 0
1736 4 48.73902551550234 8.039853069868402 0.027167602995707887 0 0 0
1568 4 52.22038359573934 8.039853069868402 0.027167602995708813 -1 0 0
1745 1 50.47998094245336 9.044542135625285 1.6663589714481033 -1 0 0
1741 4 50.47970455562092 11.054797607024405 0.027167602995709455 -1 0 0
1578 1 55.7020180628088 6.029597598469285 1.6663589714481049 -1 0 0
1584 1 59.18337614304579 6.029597598469285 1.6663589714481053 -1 0 0
1751 1 53.96133902269036 9.044542135625285 1.6663589714481049 -1 0 0
1574 4 55.70174167597634 8.039853069868402 0.027167602995707814 -1 0 0
1757 1 57.44269710292736 9.044542135625285 1.6663589714481037 -1 0 0
1580 4 59.183099756213345 8.0398530698684 0.027167602995707398 -1 0 0
1747 4 53.96106263585792 11.054797607024403 0.027167602995708088 -1 0 0
1753 4 57.44242071609492 11.054797607024403 0.027167602995708282 -1 0 0
1590 1 62.66473422328279 6.029597598469285 1.6663589714481049 -1 0 0
1763 1 60.924055183164356 9.044542135625285 1.6663589714481037 -1 0 0
1586 4 62.664457836450346 8.039853069868402 0.02716760299570837 -1 0 0
1769 1 64.40541326340136 9.044542135625285 1.6663589714481049 -1 0 0
1759 4 60.923778796331916 11.054797607024405 0.02716760299570883 -1 0 0
1765 4 64.40513687656892 11.054797607024403 0.02716760299570809 -1 0 0
1596 1 66.1460923035198 6.029597598469285 1.6663589714481049 -1 0 0
1602 1 69.6274503837568 6.029597598469286 1.6663589714481046 -1 0 0
1592 4 66.14581591668734 8.039853069868402 0.027167602995708324 -1 0 0
1775 1 67.88677134363836 9.044542135625285 1.6663589714481037 -1 0 0
1598 4 69.62717399692434 8.039853069868402 0.027167602995708036 -1 0 0
1771 4 67.88649495680592 11.054797607024405 0.02716760299570868 -1 0 0
1608 1 73.1088084639938 6.029597598469286 1.6663589714481046 -1 0 0
1614 1 76.5901665442308 6.029597598469286 1.6663589714481046 -1 0 0
1781 1 71.36812942387536 9.044542135625285 1.6663589714481037 -1 0 0
1604 4 73.10853207716134 8.039853069868402 0.027167602995708036 -1 0 0
1610 4 76.58989015739834 8.039853069868402 0.02716760299570761 -1 0 0
1787 1 74.84948750411236 9.044542135625285 1.6663589714481037 -1 0 0
1777 4 71.36785303704292 11.054797607024405 0.02716760299570867 -1 0 0
1783 4 74.84921111727992 11.054797607024405 0.027167602995708667 -1 0 0
1620 1 80.0715246244678 6.029597598469286 1.6663589714481046 -1 0 0
1793 1 78.33084558434936 9.044542135625283 1.6663589714481017 -1 0 0
1616 4 80.07124823763534 8.039853069868402 0.027167602995708064 -1 0 0
1799 1 81.81220366458636 9.044542135625287 1.6663589714481057 -1 0 0
1789 4 78.33056919751692 11.054797607024405 0.027167602995708532 -1 0 0
1795 4 81.81192727775392 11.054797607024403 0.027167602995708036 -1 0 0
1626 1 83.55288270470479 6.029597598469285 1.6663589714481046 -1 0 0
1632 1 87.03424078494179 6.029597598469286 1.6663589714481046 -1 0 0
1622 4 83.55260631787235 8.0398530698684 0.027167602995706704 -1 0 0
1805 1 85.29356174482336 9.044542135625283 1.6663589714481017 -1 0 0
1628 4 87.03396439810935 8.039853069868402 0.027167602995707994 -1 0 0
1811 1 88.77491982506035 9.044542135625285 1.666358971448104 -1 0 0
1801 4 85.29328535799091 11.054797607024405 0.02716760299570858 -1 0 0
1807 4 88.77464343822793 11.054797607024405 0.027167602995708685 -1 0 0
1638 1 90.51559886517879 6.029597598469285 1.6663589714481046 -1 0 0
1644 1 93.99695694541579 6.029597598469285 1.6663589714481035 -1 0 0
1634 4 90.51532247834635 8.0398530698684 0.027167602995706676 -1 0 0
1817 1 92.25627790529735 9.044542135625285 1.6663589714481037 -1 0 0
1640 4 93.99668055858335 8.039853069868403 0.027167602995710062 -1 0 0
1813 4 92.25600151846491 11.054797607024405 0.02716760299570874 -1 0 0
1650 1 97.47831502565279 6.029597598469286 1.6663589714481057 -1 0 0
1823 1 95.73763598553435 9.044542135625285 1.6663589714481055 -1 0 0
1646 4 97.47803863882034 8.0398530698684 0.027167602995706676 -1 0 0
1829 1 99.21899406577135 9.044542135625283 1.6663589714481017 -1 0 0
1819 4 95.73735959870193 11.054797607024403 0.027167602995707463 -1 0 0
1825 4 99.21871767893892 11.054797607024405 0.027167602995710118 -1 0 0
1836 1 3.4816468592537837 12.059486672781286 1.6663589714481042 0 0 0
1832 4 3.4813704724213363 14.069742144180406 0.027167602995707443 0 0 0
2009 1 1.7409678191353548 15.074431209937284 1.6663589714481055 0 0 0
2015 1 5.222325899372355 15.074431209937284 1.6663589714481044 0 0 0
1830 1 0.0002887790167847015 12.059486672781286 1.666358971448104 0 0 0
1826 4 1.2392184345344504e-05 14.069742144180406 0.027167602995707127 0 0 0
1842 1 6.963004939490785 12.059486672781286 1.6663589714481044 0 0 0
1848 1 10.444363019727787 12.059486672781286 1.6663589714481042 0 0 0
1838 4 6.962728552658337 14.069742144180406 0.027167602995707033 0 0 0
1844 4 10.444086632895338 14.069742144180406 0.027167602995706985 0 0 0
2021 1 8.703683979609355 15.074431209937284 1.6663589714481037 0 0 0
1854 1 13.925721099964784 12.059486672781286 1.6663589714481042 0 0 0
1860 1 17.407079180201784 12.059486672781286 1.666358971448104 0 0 0
1850 4 13.925444713132338 14.069742144180406 0.027167602995706547 0 0 0
1856 4 17.406802793369337 14.069742144180406 0.027167602995707297 0 0 0
2027 1 12.185042059846355 15.074431209937284 1.6663589714481046 0 0 0
2033 1 15.666400140083354 15.074431209937284 1.6663589714481049 0 0 0
1866 1 20.888437260438785 12.059486672781286 1.6663589714481042 0 0 0
1862 4 20.88816087360634 14.069742144180406 0.02716760299570763 0 0 0
2039 1 19.147758220320355 15.074431209937284 1.6663589714481046 0 0 0
2045 1 22.629116300557353 15.074431209937286 1.6663589714481055 0 0 0
1872 1 24.369795340675783 12.059486672781286 1.6663589714481042 0 0 0
1878 1 27.851153420912784 12.059486672781286 1.6663589714481042 0 0 0
1868 4 24.369518953843333 14.069742144180406 0.027167602995707904 0 0 0
1874 4 27.850877034080334 14.069742144180406 0.0271676029957073 0 0 0
2051 1 26.110474380794354 15.074431209937284 1.6663589714481046 0 0 0
2057 1 29.591832461031355 15.074431209937284 1.6663589714481044 0 0 0
1884 1 31.332511501149785 12.059486672781286 1.6663589714481044 0 0 0
1890 1 34.81386958138679 12.059486672781286 1.6663589714481042 0 0 0
1880 4 31.332235114317335 14.069742144180406 0.02716760299570732 0 0 0
1886 4 34.813593194554336 14.069742144180404 0.027167602995706357 0 0 0
2063 1 33.07319054126835 15.074431209937284 1.666358971448105 0 0 0
1896 1 38.295227661623784 12.059486672781286 1.6663589714481042 0 0 0
1892 4 38.29495127479134 14.069742144180406 0.027167602995706863 0 0 0
2069 1 36.554548621505354 15.074431209937282 1.6663589714481033 0 0 0
2075 1 40.035906701742356 15.074431209937284 1.6663589714481046 0 0 0
1902 1 41.776585741860785 12.059486672781286 1.6663589714481044 0 0 0
1908 1 45.257943822097786 12.059486672781286 1.6663589714481044 0 0 0
1898 4 41.77630935502834 14.069742144180406 0.027167602995707238 0 0 0
1904 4 45.25766743526534 14.069742144180406 0.027167602995707238 0 0 0
2081 1 43.51726478197936 15.074431209937284 1.6663589714481046 0 0 0
2087 1 46.99862286221636 15.074431209937284 1.6663589714481046 0 0 0
1914 1 48.739301902334795 12.059486672781286 1.6663589714481044 0 0 0
1746 1 52.220659982571796 12.059486672781286 1.6663589714481042 -1 0 0
1910 4 48.73902551550234 14.069742144180406 0.027167602995707148 0 0 0
1742 4 52.22038359573934 14.069742144180406 0.027167602995707925 -1 0 0
1919 1 50.47998094245336 15.074431209937284 1.6663589714481037 -1 0 0
1752 1 55.7020180628088 12.059486672781286 1.6663589714481042 -1 0 0
1758 1 59.18337614304579 12.059486672781286 1.6663589714481049 -1 0 0
1748 4 55.70174167597634 14.069742144180406 0.02716760299570703 -1 0 0
1754 4 59.183099756213345 14.069742144180406 0.027167602995706613 -1 0 0
1925 1 53.96133902269036 15.074431209937284 1.6663589714481055 -1 0 0
1931 1 57.44269710292736 15.074431209937284 1.6663589714481044 -1 0 0
1764 1 62.66473422328279 12.059486672781286 1.6663589714481042 -1 0 0
1760 4 62.664457836450346 14.069742144180406 0.027167602995707543 -1 0 0
1937 1 60.924055183164356 15.074431209937284 1.6663589714481046 -1 0 0
1943 1 64.40541326340136 15.074431209937284 1.6663589714481055 -1 0 0
1770 1 66.1460923035198 12.059486672781286 1.6663589714481042 -1 0 0
1776 1 69.6274503837568 12.059486672781286 1.6663589714481044 -1 0 0
1766 4 66.14581591668734 14.069742144180406 0.02716760299570755 -1 0 0
1772 4 69.62717399692434 14.069742144180406 0.02716760299570725 -1 0 0
1949 1 67.88677134363836 15.074431209937284 1.6663589714481046 -1 0 0
1782 1 73.1088084639938 12.059486672781286 1.6663589714481044 -1 0 0
1788 1 76.5901665442308 12.059486672781286 1.6663589714481044 -1 0 0
1778 4 73.10853207716134 14.069742144180406 0.02716760299570725 -1 0 0
1784 4 76.58989015739834 14.069742144180406 0.02716760299570687 -1 0 0
1955 1 71.36812942387536 15.074431209937284 1.6663589714481046 -1 0 0
1961 1 74.84948750411236 15.074431209937284 1.6663589714481046 -1 0 0
1794 1 80.0715246244678 12.059486672781286 1.6663589714481042 -1 0 0
1790 4 80.07124823763534 14.069742144180406 0.027167602995707262 -1 0 0
1967 1 78.33084558434936 15.074431209937282 1.6663589714481026 -1 0 0
1973 1 81.81220366458636 15.074431209937286 1.6663589714481064 -1 0 0
1800 1 83.55288270470479 12.059486672781286 1.6663589714481042 -1 0 0
1806 1 87.03424078494179 12.059486672781286 1.6663589714481044 -1 0 0
1796 4 83.55260631787235 14.069742144180404 0.027167602995705923 -1 0 0
1802 4 87.03396439810935 14.069742144180406 0.027167602995707314 -1 0 0
1979 1 85.29356174482336 15.074431209937282 1.6663589714481024 -1 0 0
1985 1 88.77491982506035 15.074431209937284 1.6663589714481044 -1 0 0
1812 1 90.51559886517879 12.059486672781286 1.6663589714481042 -1 0 0
1818 1 93.99695694541579 12.059486672781286 1.6663589714481033 -1 0 0
1808 4 90.51532247834635 14.069742144180404 0.027167602995705892 -1 0 0
1814 4 93.99668055858335 14.069742144180408 0.027167602995709313 -1 0 0
1991 1 92.25627790529735 15.074431209937284 1.6663589714481044 -1 0 0
1824 1 97.47831502565279 12.059486672781286 1.6663589714481053 -1 0 0
1820 4 97.47803863882034 14.069742144180404 0.027167602995705913 -1 0 0
1997 1 95.73763598553435 15.074431209937286 1.6663589714481062 -1 0 0
2003 1 99.21899406577135 15.074431209937282 1.6663589714481022 -1 0 0
2005 4 1.7406914323029141 17.084686681336404 0.027167602995710367 0 0 0
2010 1 3.4816468592537837 18.089375747093285 1.6663589714481062 0 0 0
2011 4 5.222049512539915 17.084686681336404 0.027167602995710957 0 0 0
2006 4 3.4813704724213363 20.099631218492405 0.027167602995709167 0 0 0
2183 1 1.7409678191353548 21.10432028424929 1.6663589714481055 0 0 0
2189 1 5.222325899372355 21.104320284249287 1.6663589714481046 0 0 0
2004 1 0.0002887790167847015 18.089375747093285 1.666358971448106 0 0 0
2000 4 1.2392184345344504e-05 20.099631218492405 0.027167602995708952 0 0 0
2016 1 6.963004939490785 18.089375747093285 1.6663589714481064 0 0 0
2017 4 8.703407592776916 17.084686681336404 0.02716760299571077 0 0 0
2022 1 10.444363019727787 18.089375747093285 1.6663589714481062 0 0 0
2012 4 6.962728552658337 20.099631218492405 0.027167602995708563 0 0 0
2018 4 10.444086632895338 20.099631218492405 0.027167602995708588 0 0 0
2195 1 8.703683979609355 21.104320284249287 1.666358971448104 0 0 0
2023 4 12.184765673013917 17.084686681336404 0.02716760299571086 0 0 0
2028 1 13.925721099964784 18.089375747093285 1.6663589714481064 0 0 0
2029 4 15.666123753250913 17.084686681336404 0.027167602995710975 0 0 0
2034 1 17.407079180201784 18.089375747093285 1.6663589714481062 0 0 0
2024 4 13.925444713132338 20.099631218492405 0.027167602995708185 0 0 0
2030 4 17.406802793369337 20.099631218492405 0.027167602995708872 0 0 0
2201 1 12.185042059846355 21.104320284249287 1.6663589714481046 0 0 0
2207 1 15.666400140083354 21.104320284249287 1.6663589714481049 0 0 0
2035 4 19.147481833487916 17.084686681336404 0.027167602995710992 0 0 0
2040 1 20.888437260438785 18.089375747093285 1.6663589714481064 0 0 0
2041 4 22.628839913724914 17.084686681336404 0.027167602995709497 0 0 0
2036 4 20.88816087360634 20.099631218492405 0.027167602995709323 0 0 0
2213 1 19.147758220320355 21.104320284249287 1.6663589714481046 0 0 0
2219 1 22.629116300557353 21.10432028424929 1.6663589714481057 0 0 0
2047 4 26.11019799396191 17.084686681336404 0.02716760299571097 0 0 0
2046 1 24.369795340675783 18.089375747093285 1.6663589714481064 0 0 0
2052 1 27.851153420912784 18.089375747093285 1.6663589714481062 0 0 0
2053 4 29.591556074198913 17.084686681336404 0.027167602995710933 0 0 0
2042 4 24.369518953843333 20.099631218492405 0.027167602995709507 0 0 0
2048 4 27.850877034080334 20.099631218492405 0.027167602995708817 0 0 0
2225 1 26.110474380794354 21.104320284249287 1.6663589714481046 0 0 0
2231 1 29.591832461031355 21.104320284249287 1.6663589714481046 0 0 0
2058 1 31.332511501149785 18.089375747093285 1.6663589714481064 0 0 0
2059 4 33.072914154435914 17.084686681336404 0.02716760299571124 0 0 0
2064 1 34.81386958138679 18.089375747093285 1.6663589714481062 0 0 0
2054 4 31.332235114317335 20.099631218492405 0.027167602995708837 0 0 0
2060 4 34.813593194554336 20.099631218492405 0.02716760299570797 0 0 0
2237 1 33.07319054126835 21.104320284249287 1.666358971448105 0 0 0
2065 4 36.554272234672915 17.084686681336404 0.027167602995710253 0 0 0
2070 1 38.295227661623784 18.089375747093285 1.6663589714481064 0 0 0
2071 4 40.035630314909916 17.084686681336404 0.027167602995710926 0 0 0
2066 4 38.29495127479134 20.099631218492405 0.027167602995708535 0 0 0
2243 1 36.554548621505354 21.104320284249287 1.6663589714481033 0 0 0
2249 1 40.035906701742356 21.104320284249287 1.6663589714481046 0 0 0
2076 1 41.776585741860785 18.089375747093285 1.6663589714481062 0 0 0
2077 4 43.51698839514692 17.084686681336404 0.027167602995710926 0 0 0
2082 1 45.257943822097786 18.089375747093285 1.6663589714481062 0 0 0
2083 4 46.99834647538392 17.084686681336404 0.027167602995711443 0 0 0
2072 4 41.77630935502834 20.099631218492405 0.02716760299570882 0 0 0
2078 4 45.25766743526534 20.099631218492405 0.02716760299570882 0 0 0
2255 1 43.51726478197936 21.104320284249287 1.6663589714481046 0 0 0
2261 1 46.99862286221636 21.104320284249287 1.6663589714481046 0 0 0
2088 1 48.739301902334795 18.089375747093285 1.6663589714481064 0 0 0
1915 4 50.47970455562092 17.084686681336407 0.027167602995711713 -1 0 0
1920 1 52.220659982571796 18.089375747093285 1.6663589714481064 -1 0 0
2084 4 48.73902551550234 20.099631218492405 0.027167602995708803 0 0 0
1916 4 52.22038359573934 20.099631218492405 0.027167602995709708 -1 0 0
2093 1 50.47998094245336 21.104320284249287 1.6663589714481037 -1 0 0
1921 4 53.96106263585792 17.084686681336404 0.027167602995710333 -1 0 0
1926 1 55.7020180628088 18.089375747093285 1.6663589714481062 -1 0 0
1927 4 57.44242071609492 17.084686681336404 0.02716760299571061 -1 0 0
1932 1 59.18337614304579 18.089375747093285 1.6663589714481069 -1 0 0
1922 4 55.70174167597634 20.099631218492405 0.02716760299570882 -1 0 0
1928 4 59.183099756213345 20.099631218492405 0.02716760299570818 -1 0 0
2099 1 53.96133902269036 21.10432028424929 1.6663589714481057 -1 0 0
2105 1 57.44269710292736 21.104320284249287 1.6663589714481046 -1 0 0
1933 4 60.923778796331916 17.084686681336404 0.027167602995711162 -1 0 0
1938 1 62.66473422328279 18.089375747093285 1.6663589714481062 -1 0 0
1939 4 64.40513687656892 17.084686681336404 0.027167602995710353 -1 0 0
1934 4 62.664457836450346 20.099631218492405 0.027167602995709327 -1 0 0
2111 1 60.924055183164356 21.104320284249287 1.6663589714481046 -1 0 0
2117 1 64.40541326340136 21.10432028424929 1.6663589714481057 -1 0 0
1944 1 66.1460923035198 18.089375747093285 1.6663589714481064 -1 0 0
1945 4 67.88649495680592 17.084686681336404 0.02716760299571098 -1 0 0
1950 1 69.6274503837568 18.089375747093285 1.6663589714481064 -1 0 0
1940 4 66.14581591668734 20.099631218492405 0.027167602995709347 -1 0 0
1946 4 69.62717399692434 20.099631218492405 0.027167602995708813 -1 0 0
2123 1 67.88677134363836 21.104320284249287 1.6663589714481049 -1 0 0
1951 4 71.36785303704292 17.084686681336404 0.027167602995710975 -1 0 0
1956 1 73.1088084639938 18.089375747093285 1.6663589714481064 -1 0 0
1957 4 74.84921111727992 17.084686681336404 0.027167602995710975 -1 0 0
1962 1 76.5901665442308 18.089375747093285 1.6663589714481064 -1 0 0
1952 4 73.10853207716134 20.099631218492405 0.027167602995708813 -1 0 0
1958 4 76.58989015739834 20.099631218492405 0.027167602995708477 -1 0 0
2129 1 71.36812942387536 21.104320284249287 1.6663589714481049 -1 0 0
2135 1 74.84948750411236 21.104320284249287 1.6663589714481049 -1 0 0
1963 4 78.33056919751692 17.084686681336404 0.027167602995710784 -1 0 0
1968 1 80.0715246244678 18.089375747093285 1.6663589714481064 -1 0 0
1969 4 81.81192727775392 17.084686681336404 0.027167602995710294 -1 0 0
1964 4 80.07124823763534 20.099631218492405 0.027167602995708973 -1 0 0
2141 1 78.33084558434936 21.104320284249287 1.6663589714481029 -1 0 0
2147 1 81.81220366458636 21.10432028424929 1.6663589714481066 -1 0 0
1974 1 83.55288270470479 18.089375747093285 1.6663589714481064 -1 0 0
1975 4 85.29328535799091 17.084686681336404 0.027167602995710822 -1 0 0
1980 1 87.03424078494179 18.089375747093285 1.6663589714481064 -1 0 0
1981 4 88.77464343822793 17.084686681336404 0.02716760299571092 -1 0 0
1970 4 83.55260631787235 20.099631218492405 0.027167602995707606 -1 0 0
1976 4 87.03396439810935 20.099631218492405 0.027167602995708934 -1 0 0
2153 1 85.29356174482336 21.104320284249287 1.6663589714481029 -1 0 0
2159 1 88.77491982506035 21.104320284249287 1.6663589714481049 -1 0 0
1986 1 90.51559886517879 18.089375747093285 1.6663589714481064 -1 0 0
1987 4 92.25600151846491 17.084686681336404 0.02716760299571103 -1 0 0
1992 1 93.99695694541579 18.089375747093285 1.6663589714481055 -1 0 0
1982 4 90.51532247834635 20.099631218492405 0.02716760299570744 -1 0 0
1988 4 93.99668055858335 20.09963121849241 0.027167602995710898 -1 0 0
2165 1 92.25627790529735 21.104320284249287 1.6663589714481046 -1 0 0
1993 4 95.73735959870193 17.084686681336404 0.027167602995709784 -1 0 0
1998 1 97.47831502565279 18.089375747093285 1.6663589714481077 -1 0 0
1999 4 99.21871767893892 17.084686681336407 0.027167602995712383 -1 0 0
1994 4 97.47803863882034 20.099631218492405 0.027167602995707644 -1 0 0
2171 1 95.73763598553435 21.10432028424929 1.6663589714481064 -1 0 0
2177 1 99.21899406577135 21.104320284249287 1.6663589714481024 -1 0 0
2179 4 1.7406914323029141 23.114575755648403 0.027167602995707443 0 0 0
2184 1 3.4816468592537837 24.119264821405284 1.6663589714481044 0 0 0
2185 4 5.222049512539915 23.114575755648403 0.027167602995708386 0 0 0
2357 1 1.7409678191353548 27.134209358561286 1.6663589714481057 0 0 0
2180 4 3.4813704724213363 26.1295202928044 0.027167602995708685 0 0 0
2363 1 5.222325899372355 27.134209358561282 1.6663589714481049 0 0 0
2178 1 0.0002887790167847015 24.119264821405284 1.6663589714481042 0 0 0
2174 4 1.2392184345344504e-05 26.1295202928044 0.027167602995708477 0 0 0
2190 1 6.963004939490785 24.119264821405284 1.6663589714481044 0 0 0
2191 4 8.703407592776916 23.114575755648403 0.027167602995708202 0 0 0
2196 1 10.444363019727787 24.119264821405284 1.6663589714481042 0 0 0
2186 4 6.962728552658337 26.1295202928044 0.027167602995708084 0 0 0
2369 1 8.703683979609355 27.134209358561282 1.666358971448104 0 0 0
2192 4 10.444086632895338 26.1295202928044 0.027167602995708105 0 0 0
2197 4 12.184765673013917 23.114575755648403 0.02716760299570822 0 0 0
2202 1 13.925721099964784 24.119264821405284 1.6663589714481046 0 0 0