LAMMPS data file via write_data, version 29 Aug 2024, timestep = 0, units = metal

2958 atoms
3 atom types

0 100.959384326873 xlo xhi
0 102.508114263304 ylo yhi
0 18.366460053367 zlo zhi

Masses

1 92.90637
2 78.95999999999999
3 78.971

Atoms # atomic

1488 1 3.4813580802364967 0 1.6689562523669998 0 0 0
1494 1 6.962716160473498 0 1.6689562523669998 0 0 0
1500 1 10.4440742407105 0 1.6689562523669998 0 0 0
1506 1 13.9254323209475 0 1.6689562523669998 0 0 0
1512 1 17.4067904011845 0 1.6689562523669998 0 0 0
1518 1 20.888148481421503 0 1.6689562523669998 0 0 0
1524 1 24.36950656165849 0 1.6689562523669998 0 0 0
1530 1 27.85086464189549 0 1.6689562523669998 0 0 0
1536 1 31.332222722132492 0 1.6689562523669998 0 0 0
1542 1 34.81358080236949 0 1.6689562523669998 0 0 0
1548 1 38.294938882606495 0 1.6689562523669998 0 0 0
1554 1 41.776296962843496 0 1.6689562523669998 0 0 0
1560 1 45.2576550430805 0 1.6689562523669998 0 0 0
1566 1 48.7390131233175 0 1.6689562523669998 0 0 0
1398 1 52.22037120355451 0 1.6689562523669998 -1 0 0
1404 1 55.7017292837915 0 1.6689562523669998 -1 0 0
1410 1 59.1830873640285 0 1.6689562523669998 -1 0 0
1416 1 62.6644454442655 0 1.6689562523669998 -1 0 0
1422 1 66.1458035245025 0 1.6689562523669998 -1 0 0
1428 1 69.6271616047395 0 1.6689562523669998 -1 0 0
1434 1 73.1085196849765 0 1.6689562523669998 -1 0 0
1440 1 76.5898777652135 0 1.6689562523669998 -1 0 0
1446 1 80.0712358454505 0 1.6689562523669998 -1 0 0
1452 1 83.5525939256875 0 1.6689562523669998 -1 0 0
1458 1 87.0339520059245 0 1.6689562523669998 -1 0 0
1464 1 90.5153100861615 0 1.6689562523669998 -1 0 0
1470 1 93.9966681663985 0 1.6689562523669998 -1 0 0
1476 1 97.4780262466355 0 1.6689562523669998 -1 0 0
1482 1 100.95938432687251 0 1.6689562523669998 -1 0 0
1661 1 1.7406790401184935 3.014944537156005 1.6689562523669998 0 0 0
1484 3 3.4813580802364967 2.009963024771004 0 0 0 0
1667 1 5.222037120355495 3.014944537156005 1.6689562523669998 0 0 0
1490 3 6.962716160473498 2.009963024771004 0 0 0 0
1673 1 8.703395200592496 3.014944537156005 1.6689562523669998 0 0 0
1496 3 10.4440742407105 2.009963024771004 0 0 0 0
1679 1 12.184753280829497 3.014944537156005 1.6689562523669998 0 0 0
1502 3 13.9254323209475 2.009963024771004 0 0 0 0
1685 1 15.666111361066491 3.014944537156005 1.6689562523669998 0 0 0
1508 3 17.4067904011845 2.009963024771004 0 0 0 0
1691 1 19.147469441303492 3.014944537156005 1.6689562523669998 0 0 0
1514 3 20.888148481421503 2.009963024771004 0 0 0 0
1697 1 22.628827521540494 3.014944537156005 1.6689562523669998 0 0 0
1520 3 24.36950656165849 2.009963024771004 0 0 0 0
1703 1 26.110185601777495 3.014944537156005 1.6689562523669998 0 0 0
1526 3 27.85086464189549 2.009963024771004 0 0 0 0
1709 1 29.591543682014496 3.014944537156005 1.6689562523669998 0 0 0
1532 3 31.332222722132492 2.009963024771004 0 0 0 0
1715 1 33.0729017622515 3.014944537156005 1.6689562523669998 0 0 0
1538 3 34.81358080236949 2.009963024771004 0 0 0 0
1721 1 36.5542598424885 3.014944537156005 1.6689562523669998 0 0 0
1544 3 38.294938882606495 2.009963024771004 0 0 0 0
1727 1 40.0356179227255 3.014944537156005 1.6689562523669998 0 0 0
1550 3 41.776296962843496 2.009963024771004 0 0 0 0
1733 1 43.5169760029625 3.014944537156005 1.6689562523669998 0 0 0
1556 3 45.2576550430805 2.009963024771004 0 0 0 0
1739 1 46.9983340831995 3.014944537156005 1.6689562523669998 0 0 0
1562 3 48.7390131233175 2.009963024771004 0 0 0 0
1394 3 52.22037120355451 2.009963024771004 0 -1 0 0
1571 1 50.4796921634365 3.014944537156005 1.6689562523669998 -1 0 0
1577 1 53.961050243673505 3.014944537156005 1.6689562523669998 -1 0 0
1400 3 55.7017292837915 2.009963024771004 0 -1 0 0
1583 1 57.442408323910506 3.014944537156005 1.6689562523669998 -1 0 0
1406 3 59.1830873640285 2.009963024771004 0 -1 0 0
1589 1 60.9237664041475 3.014944537156005 1.6689562523669998 -1 0 0
1412 3 62.6644454442655 2.009963024771004 0 -1 0 0
1595 1 64.4051244843845 3.014944537156005 1.6689562523669998 -1 0 0
1418 3 66.1458035245025 2.009963024771004 0 -1 0 0
1601 1 67.8864825646215 3.014944537156005 1.6689562523669998 -1 0 0
1424 3 69.6271616047395 2.009963024771004 0 -1 0 0
1607 1 71.3678406448585 3.014944537156005 1.6689562523669998 -1 0 0
1430 3 73.1085196849765 2.009963024771004 0 -1 0 0
1436 3 76.5898777652135 2.009963024771004 0 -1 0 0
1613 1 74.8491987250955 3.014944537156005 1.6689562523669998 -1 0 0
1619 1 78.3305568053325 3.014944537156005 1.6689562523669998 -1 0 0
1442 3 80.0712358454505 2.009963024771004 0 -1 0 0
1625 1 81.81191488556951 3.014944537156005 1.6689562523669998 -1 0 0
1448 3 83.5525939256875 2.009963024771004 0 -1 0 0
1631 1 85.2932729658065 3.014944537156005 1.6689562523669998 -1 0 0
1454 3 87.0339520059245 2.009963024771004 0 -1 0 0
1637 1 88.77463104604351 3.014944537156005 1.6689562523669998 -1 0 0
1460 3 90.5153100861615 2.009963024771004 0 -1 0 0
1643 1 92.2559891262805 3.014944537156005 1.6689562523669998 -1 0 0
1466 3 93.9966681663985 2.009963024771004 0 -1 0 0
1649 1 95.73734720651751 3.014944537156005 1.6689562523669998 -1 0 0
1472 3 97.4780262466355 2.009963024771004 0 -1 0 0
1478 3 100.95938432687251 2.009963024771004 0 -1 0 0
1655 1 99.2187052867545 3.014944537156005 1.6689562523669998 -1 0 0
1657 3 1.7406790401184935 5.024907561927002 0 0 0 0
1663 3 5.222037120355495 5.024907561927002 0 0 0 0
1669 3 8.703395200592496 5.024907561927002 0 0 0 0
1675 3 12.184753280829497 5.024907561927002 0 0 0 0
1681 3 15.666111361066491 5.024907561927002 0 0 0 0
1687 3 19.147469441303492 5.024907561927002 0 0 0 0
1693 3 22.628827521540494 5.024907561927002 0 0 0 0
1699 3 26.110185601777495 5.024907561927002 0 0 0 0
1705 3 29.591543682014496 5.024907561927002 0 0 0 0
1711 3 33.0729017622515 5.024907561927002 0 0 0 0
1717 3 36.5542598424885 5.024907561927002 0 0 0 0
1723 3 40.0356179227255 5.024907561927002 0 0 0 0
1729 3 43.5169760029625 5.024907561927002 0 0 0 0
1735 3 46.9983340831995 5.024907561927002 0 0 0 0
1567 3 50.4796921634365 5.024907561927002 0 -1 0 0
1573 3 53.961050243673505 5.024907561927002 0 -1 0 0
1579 3 57.442408323910506 5.024907561927002 0 -1 0 0
1585 3 60.9237664041475 5.024907561927002 0 -1 0 0
1591 3 64.4051244843845 5.024907561927002 0 -1 0 0
1597 3 67.8864825646215 5.024907561927002 0 -1 0 0
1603 3 71.3678406448585 5.024907561927002 0 -1 0 0
1609 3 74.8491987250955 5.024907561927002 0 -1 0 0
1615 3 78.3305568053325 5.024907561927002 0 -1 0 0
1621 3 81.81191488556951 5.024907561927002 0 -1 0 0
1627 3 85.2932729658065 5.024907561927002 0 -1 0 0
1633 3 88.77463104604351 5.024907561927002 0 -1 0 0
1639 3 92.2559891262805 5.024907561927002 0 -1 0 0
1645 3 95.73734720651751 5.024907561927002 0 -1 0 0
1651 3 99.2187052867545 5.024907561927002 0 -1 0 0
1662 1 3.4813580802364967 6.029889074312003 1.6689562523669998 0 0 0
1668 1 6.962716160473498 6.029889074312003 1.6689562523669998 0 0 0
1674 1 10.4440742407105 6.029889074312003 1.6689562523669998 0 0 0
1680 1 13.9254323209475 6.029889074312003 1.6689562523669998 0 0 0
1686 1 17.4067904011845 6.029889074312003 1.6689562523669998 0 0 0
1692 1 20.888148481421503 6.029889074312003 1.6689562523669998 0 0 0
1698 1 24.36950656165849 6.029889074312003 1.6689562523669998 0 0 0
1704 1 27.85086464189549 6.029889074312003 1.6689562523669998 0 0 0
1710 1 31.332222722132492 6.029889074312003 1.6689562523669998 0 0 0
1716 1 34.81358080236949 6.029889074312003 1.6689562523669998 0 0 0
1722 1 38.294938882606495 6.029889074312003 1.6689562523669998 0 0 0
1728 1 41.776296962843496 6.029889074312003 1.6689562523669998 0 0 0
1734 1 45.2576550430805 6.029889074312003 1.6689562523669998 0 0 0
1740 1 48.7390131233175 6.029889074312003 1.6689562523669998 0 0 0
1572 1 52.22037120355451 6.029889074312003 1.6689562523669998 -1 0 0
1578 1 55.7017292837915 6.029889074312003 1.6689562523669998 -1 0 0
1584 1 59.1830873640285 6.029889074312003 1.6689562523669998 -1 0 0
1590 1 62.6644454442655 6.029889074312003 1.6689562523669998 -1 0 0
1596 1 66.1458035245025 6.029889074312003 1.6689562523669998 -1 0 0
1602 1 69.6271616047395 6.029889074312003 1.6689562523669998 -1 0 0
1608 1 73.1085196849765 6.029889074312003 1.6689562523669998 -1 0 0
1614 1 76.5898777652135 6.029889074312003 1.6689562523669998 -1 0 0
1620 1 80.0712358454505 6.029889074312003 1.6689562523669998 -1 0 0
1626 1 83.5525939256875 6.029889074312003 1.6689562523669998 -1 0 0
1632 1 87.0339520059245 6.029889074312003 1.6689562523669998 -1 0 0
1638 1 90.5153100861615 6.029889074312003 1.6689562523669998 -1 0 0
1644 1 93.9966681663985 6.029889074312003 1.6689562523669998 -1 0 0
1650 1 97.4780262466355 6.029889074312003 1.6689562523669998 -1 0 0
1656 1 100.95938432687251 6.029889074312003 1.6689562523669998 -1 0 0
1835 1 1.7406790401184935 9.044833611468 1.6689562523669998 0 0 0
1658 3 3.4813580802364967 8.039852099083 0 0 0 0
1841 1 5.222037120355495 9.044833611468 1.6689562523669998 0 0 0
1664 3 6.962716160473498 8.039852099083 0 0 0 0
1847 1 8.703395200592496 9.044833611468 1.6689562523669998 0 0 0
1670 3 10.4440742407105 8.039852099083 0 0 0 0
1853 1 12.184753280829497 9.044833611468 1.6689562523669998 0 0 0
1676 3 13.9254323209475 8.039852099083 0 0 0 0
1859 1 15.666111361066491 9.044833611468 1.6689562523669998 0 0 0
1682 3 17.4067904011845 8.039852099083 0 0 0 0
1865 1 19.147469441303492 9.044833611468 1.6689562523669998 0 0 0
1688 3 20.888148481421503 8.039852099083 0 0 0 0
1871 1 22.628827521540494 9.044833611468 1.6689562523669998 0 0 0
1694 3 24.36950656165849 8.039852099083 0 0 0 0
1877 1 26.110185601777495 9.044833611468 1.6689562523669998 0 0 0
1700 3 27.85086464189549 8.039852099083 0 0 0 0
1883 1 29.591543682014496 9.044833611468 1.6689562523669998 0 0 0
1706 3 31.332222722132492 8.039852099083 0 0 0 0
1889 1 33.0729017622515 9.044833611468 1.6689562523669998 0 0 0
1712 3 34.81358080236949 8.039852099083 0 0 0 0
1895 1 36.5542598424885 9.044833611468 1.6689562523669998 0 0 0
1718 3 38.294938882606495 8.039852099083 0 0 0 0
1901 1 40.0356179227255 9.044833611468 1.6689562523669998 0 0 0
1724 3 41.776296962843496 8.039852099083 0 0 0 0
1907 1 43.5169760029625 9.044833611468 1.6689562523669998 0 0 0
1730 3 45.2576550430805 8.039852099083 0 0 0 0
1913 1 46.9983340831995 9.044833611468 1.6689562523669998 0 0 0
1736 3 48.7390131233175 8.039852099083 0 0 0 0
1568 3 52.22037120355451 8.039852099083 0 -1 0 0
1745 1 50.4796921634365 9.044833611468 1.6689562523669998 -1 0 0
1751 1 53.961050243673505 9.044833611468 1.6689562523669998 -1 0 0
1574 3 55.7017292837915 8.039852099083 0 -1 0 0
1757 1 57.442408323910506 9.044833611468 1.6689562523669998 -1 0 0
1580 3 59.1830873640285 8.039852099083 0 -1 0 0
1763 1 60.9237664041475 9.044833611468 1.6689562523669998 -1 0 0
1586 3 62.6644454442655 8.039852099083 0 -1 0 0
1769 1 64.4051244843845 9.044833611468 1.6689562523669998 -1 0 0
1592 3 66.1458035245025 8.039852099083 0 -1 0 0
1775 1 67.8864825646215 9.044833611468 1.6689562523669998 -1 0 0
1598 3 69.6271616047395 8.039852099083 0 -1 0 0
1781 1 71.3678406448585 9.044833611468 1.6689562523669998 -1 0 0
1604 3 73.1085196849765 8.039852099083 0 -1 0 0
1610 3 76.5898777652135 8.039852099083 0 -1 0 0
1787 1 74.8491987250955 9.044833611468 1.6689562523669998 -1 0 0
1793 1 78.3305568053325 9.044833611468 1.6689562523669998 -1 0 0
1616 3 80.0712358454505 8.039852099083 0 -1 0 0
1799 1 81.81191488556951 9.044833611468 1.6689562523669998 -1 0 0
1622 3 83.5525939256875 8.039852099083 0 -1 0 0
1805 1 85.2932729658065 9.044833611468 1.6689562523669998 -1 0 0
1628 3 87.0339520059245 8.039852099083 0 -1 0 0
1811 1 88.77463104604351 9.044833611468 1.6689562523669998 -1 0 0
1634 3 90.5153100861615 8.039852099083 0 -1 0 0
1817 1 92.2559891262805 9.044833611468 1.6689562523669998 -1 0 0
1640 3 93.9966681663985 8.039852099083 0 -1 0 0
1823 1 95.73734720651751 9.044833611468 1.6689562523669998 -1 0 0
1646 3 97.4780262466355 8.039852099083 0 -1 0 0
1652 3 100.95938432687251 8.039852099083 0 -1 0 0
1829 1 99.2187052867545 9.044833611468 1.6689562523669998 -1 0 0
1831 3 1.7406790401184935 11.054796636239004 0 0 0 0
1837 3 5.222037120355495 11.054796636239004 0 0 0 0
1843 3 8.703395200592496 11.054796636239004 0 0 0 0
1849 3 12.184753280829497 11.054796636239004 0 0 0 0
1855 3 15.666111361066491 11.054796636239004 0 0 0 0
1861 3 19.147469441303492 11.054796636239004 0 0 0 0
1867 3 22.628827521540494 11.054796636239004 0 0 0 0
1873 3 26.110185601777495 11.054796636239004 0 0 0 0
1879 3 29.591543682014496 11.054796636239004 0 0 0 0
1885 3 33.0729017622515 11.054796636239004 0 0 0 0
1891 3 36.5542598424885 11.054796636239004 0 0 0 0
1897 3 40.0356179227255 11.054796636239004 0 0 0 0
1903 3 43.5169760029625 11.054796636239004 0 0 0 0
1909 3 46.9983340831995 11.054796636239004 0 0 0 0
1741 3 50.4796921634365 11.054796636239004 0 -1 0 0
1747 3 53.961050243673505 11.054796636239004 0 -1 0 0
1753 3 57.442408323910506 11.054796636239004 0 -1 0 0
1759 3 60.9237664041475 11.054796636239004 0 -1 0 0
1765 3 64.4051244843845 11.054796636239004 0 -1 0 0
1771 3 67.8864825646215 11.054796636239004 0 -1 0 0
1777 3 71.3678406448585 11.054796636239004 0 -1 0 0
1783 3 74.8491987250955 11.054796636239004 0 -1 0 0
1789 3 78.3305568053325 11.054796636239004 0 -1 0 0
1795 3 81.81191488556951 11.054796636239004 0 -1 0 0
1801 3 85.2932729658065 11.054796636239004 0 -1 0 0
1807 3 88.77463104604351 11.054796636239004 0 -1 0 0
1813 3 92.2559891262805 11.054796636239004 0 -1 0 0
1819 3 95.73734720651751 11.054796636239004 0 -1 0 0
1825 3 99.2187052867545 11.054796636239004 0 -1 0 0
1836 1 3.4813580802364967 12.059778148624005 1.6689562523669998 0 0 0
1842 1 6.962716160473498 12.059778148624005 1.6689562523669998 0 0 0
1848 1 10.4440742407105 12.059778148624005 1.6689562523669998 0 0 0
1854 1 13.9254323209475 12.059778148624005 1.6689562523669998 0 0 0
1860 1 17.4067904011845 12.059778148624005 1.6689562523669998 0 0 0
1866 1 20.888148481421503 12.059778148624005 1.6689562523669998 0 0 0
1872 1 24.36950656165849 12.059778148624005 1.6689562523669998 0 0 0
1878 1 27.85086464189549 12.059778148624005 1.6689562523669998 0 0 0
1884 1 31.332222722132492 12.059778148624005 1.6689562523669998 0 0 0
1890 1 34.81358080236949 12.059778148624005 1.6689562523669998 0 0 0
1896 1 38.294938882606495 12.059778148624005 1.6689562523669998 0 0 0
1902 1 41.776296962843496 12.059778148624005 1.6689562523669998 0 0 0
1908 1 45.2576550430805 12.059778148624005 1.6689562523669998 0 0 0
1914 1 48.7390131233175 12.059778148624005 1.6689562523669998 0 0 0
1746 1 52.22037120355451 12.059778148624005 1.6689562523669998 -1 0 0
1752 1 55.7017292837915 12.059778148624005 1.6689562523669998 -1 0 0
1758 1 59.1830873640285 12.059778148624005 1.6689562523669998 -1 0 0
1764 1 62.6644454442655 12.059778148624005 1.6689562523669998 -1 0 0
1770 1 66.1458035245025 12.059778148624005 1.6689562523669998 -1 0 0
1776 1 69.6271616047395 12.059778148624005 1.6689562523669998 -1 0 0
1782 1 73.1085196849765 12.059778148624005 1.6689562523669998 -1 0 0
1788 1 76.5898777652135 12.059778148624005 1.6689562523669998 -1 0 0
1794 1 80.0712358454505 12.059778148624005 1.6689562523669998 -1 0 0
1800 1 83.5525939256875 12.059778148624005 1.6689562523669998 -1 0 0
1806 1 87.0339520059245 12.059778148624005 1.6689562523669998 -1 0 0
1812 1 90.5153100861615 12.059778148624005 1.6689562523669998 -1 0 0
1818 1 93.9966681663985 12.059778148624005 1.6689562523669998 -1 0 0
1824 1 97.4780262466355 12.059778148624005 1.6689562523669998 -1 0 0
1830 1 100.95938432687251 12.059778148624005 1.6689562523669998 -1 0 0
1832 3 3.4813580802364967 14.069741173395009 0 0 0 0
1838 3 6.962716160473498 14.069741173395009 0 0 0 0
1844 3 10.4440742407105 14.069741173395009 0 0 0 0
1850 3 13.9254323209475 14.069741173395009 0 0 0 0
1856 3 17.4067904011845 14.069741173395009 0 0 0 0
1862 3 20.888148481421503 14.069741173395009 0 0 0 0
1868 3 24.36950656165849 14.069741173395009 0 0 0 0
1874 3 27.85086464189549 14.069741173395009 0 0 0 0
1880 3 31.332222722132492 14.069741173395009 0 0 0 0
1886 3 34.81358080236949 14.069741173395009 0 0 0 0
1892 3 38.294938882606495 14.069741173395009 0 0 0 0
1898 3 41.776296962843496 14.069741173395009 0 0 0 0
1904 3 45.2576550430805 14.069741173395009 0 0 0 0
1910 3 48.7390131233175 14.069741173395009 0 0 0 0
1742 3 52.22037120355451 14.069741173395009 0 -1 0 0
1748 3 55.7017292837915 14.069741173395009 0 -1 0 0
1754 3 59.1830873640285 14.069741173395009 0 -1 0 0
1760 3 62.6644454442655 14.069741173395009 0 -1 0 0
1766 3 66.1458035245025 14.069741173395009 0 -1 0 0
1772 3 69.6271616047395 14.069741173395009 0 -1 0 0
1778 3 73.1085196849765 14.069741173395009 0 -1 0 0
1784 3 76.5898777652135 14.069741173395009 0 -1 0 0
1790 3 80.0712358454505 14.069741173395009 0 -1 0 0
1796 3 83.5525939256875 14.069741173395009 0 -1 0 0
1802 3 87.0339520059245 14.069741173395009 0 -1 0 0
1808 3 90.5153100861615 14.069741173395009 0 -1 0 0
1814 3 93.9966681663985 14.069741173395009 0 -1 0 0
1820 3 97.4780262466355 14.069741173395009 0 -1 0 0
1826 3 100.95938432687251 14.069741173395009 0 -1 0 0
2009 1 1.7406790401184935 15.074722685779996 1.6689562523669998 0 0 0
2015 1 5.222037120355495 15.074722685779996 1.6689562523669998 0 0 0
2021 1 8.703395200592496 15.074722685779996 1.6689562523669998 0 0 0
2027 1 12.184753280829497 15.074722685779996 1.6689562523669998 0 0 0
2033 1 15.666111361066491 15.074722685779996 1.6689562523669998 0 0 0
2039 1 19.147469441303492 15.074722685779996 1.6689562523669998 0 0 0
2045 1 22.628827521540494 15.074722685779996 1.6689562523669998 0 0 0
2051 1 26.110185601777495 15.074722685779996 1.6689562523669998 0 0 0
2057 1 29.591543682014496 15.074722685779996 1.6689562523669998 0 0 0
2063 1 33.0729017622515 15.074722685779996 1.6689562523669998 0 0 0
2069 1 36.5542598424885 15.074722685779996 1.6689562523669998 0 0 0
2075 1 40.0356179227255 15.074722685779996 1.6689562523669998 0 0 0
2081 1 43.5169760029625 15.074722685779996 1.6689562523669998 0 0 0
2087 1 46.9983340831995 15.074722685779996 1.6689562523669998 0 0 0
1919 1 50.4796921634365 15.074722685779996 1.6689562523669998 -1 0 0
1925 1 53.961050243673505 15.074722685779996 1.6689562523669998 -1 0 0
1931 1 57.442408323910506 15.074722685779996 1.6689562523669998 -1 0 0
1937 1 60.9237664041475 15.074722685779996 1.6689562523669998 -1 0 0
1943 1 64.4051244843845 15.074722685779996 1.6689562523669998 -1 0 0
1949 1 67.8864825646215 15.074722685779996 1.6689562523669998 -1 0 0
1955 1 71.3678406448585 15.074722685779996 1.6689562523669998 -1 0 0
1961 1 74.8491987250955 15.074722685779996 1.6689562523669998 -1 0 0
1967 1 78.3305568053325 15.074722685779996 1.6689562523669998 -1 0 0
1973 1 81.81191488556951 15.074722685779996 1.6689562523669998 -1 0 0
1979 1 85.2932729658065 15.074722685779996 1.6689562523669998 -1 0 0
1985 1 88.77463104604351 15.074722685779996 1.6689562523669998 -1 0 0
1991 1 92.2559891262805 15.074722685779996 1.6689562523669998 -1 0 0
1997 1 95.73734720651751 15.074722685779996 1.6689562523669998 -1 0 0
2003 1 99.2187052867545 15.074722685779996 1.6689562523669998 -1 0 0
2005 3 1.7406790401184935 17.084685710551007 0 0 0 0
2010 1 3.4813580802364967 18.089667222936008 1.6689562523669998 0 0 0
2011 3 5.222037120355495 17.084685710551007 0 0 0 0
2016 1 6.962716160473498 18.089667222936008 1.6689562523669998 0 0 0
2017 3 8.703395200592496 17.084685710551007 0 0 0 0
2022 1 10.4440742407105 18.089667222936008 1.6689562523669998 0 0 0
2023 3 12.184753280829497 17.084685710551007 0 0 0 0
2028 1 13.9254323209475 18.089667222936008 1.6689562523669998 0 0 0
2029 3 15.666111361066491 17.084685710551007 0 0 0 0
2034 1 17.4067904011845 18.089667222936008 1.6689562523669998 0 0 0
2035 3 19.147469441303492 17.084685710551007 0 0 0 0
2040 1 20.888148481421503 18.089667222936008 1.6689562523669998 0 0 0
2041 3 22.628827521540494 17.084685710551007 0 0 0 0
2047 3 26.110185601777495 17.084685710551007 0 0 0 0
2046 1 24.36950656165849 18.089667222936008 1.6689562523669998 0 0 0
2052 1 27.85086464189549 18.089667222936008 1.6689562523669998 0 0 0
2053 3 29.591543682014496 17.084685710551007 0 0 0 0
2058 1 31.332222722132492 18.089667222936008 1.6689562523669998 0 0 0
2059 3 33.0729017622515 17.084685710551007 0 0 0 0
2064 1 34.81358080236949 18.089667222936008 1.6689562523669998 0 0 0
2065 3 36.5542598424885 17.084685710551007 0 0 0 0
2070 1 38.294938882606495 18.089667222936008 1.6689562523669998 0 0 0
2071 3 40.0356179227255 17.084685710551007 0 0 0 0
2076 1 41.776296962843496 18.089667222936008 1.6689562523669998 0 0 0
2077 3 43.5169760029625 17.084685710551007 0 0 0 0
2082 1 45.2576550430805 18.089667222936008 1.6689562523669998 0 0 0
2083 3 46.9983340831995 17.084685710551007 0 0 0 0
2088 1 48.7390131233175 18.089667222936008 1.6689562523669998 0 0 0
1915 3 50.4796921634365 17.084685710551007 0 -1 0 0
1920 1 52.22037120355451 18.089667222936008 1.6689562523669998 -1 0 0
1921 3 53.961050243673505 17.084685710551007 0 -1 0 0
1926 1 55.7017292837915 18.089667222936008 1.6689562523669998 -1 0 0
1927 3 57.442408323910506 17.084685710551007 0 -1 0 0
1932 1 59.1830873640285 18.089667222936008 1.6689562523669998 -1 0 0
1933 3 60.9237664041475 17.084685710551007 0 -1 0 0
1938 1 62.6644454442655 18.089667222936008 1.6689562523669998 -1 0 0
1939 3 64.4051244843845 17.084685710551007 0 -1 0 0
1944 1 66.1458035245025 18.089667222936008 1.6689562523669998 -1 0 0
1945 3 67.8864825646215 17.084685710551007 0 -1 0 0
1950 1 69.6271616047395 18.089667222936008 1.6689562523669998 -1 0 0
1951 3 71.3678406448585 17.084685710551007 0 -1 0 0
1956 1 73.1085196849765 18.089667222936008 1.6689562523669998 -1 0 0
1957 3 74.8491987250955 17.084685710551007 0 -1 0 0
1962 1 76.5898777652135 18.089667222936008 1.6689562523669998 -1 0 0
1963 3 78.3305568053325 17.084685710551007 0 -1 0 0
1968 1 80.0712358454505 18.089667222936008 1.6689562523669998 -1 0 0
1969 3 81.81191488556951 17.084685710551007 0 -1 0 0
1974 1 83.5525939256875 18.089667222936008 1.6689562523669998 -1 0 0
1975 3 85.2932729658065 17.084685710551007 0 -1 0 0
1980 1 87.0339520059245 18.089667222936008 1.6689562523669998 -1 0 0
1981 3 88.77463104604351 17.084685710551007 0 -1 0 0
1986 1 90.5153100861615 18.089667222936008 1.6689562523669998 -1 0 0
1987 3 92.2559891262805 17.084685710551007 0 -1 0 0
1992 1 93.9966681663985 18.089667222936008 1.6689562523669998 -1 0 0
1993 3 95.73734720651751 17.084685710551007 0 -1 0 0
1998 1 97.4780262466355 18.089667222936008 1.6689562523669998 -1 0 0
1999 3 99.2187052867545 17.084685710551007 0 -1 0 0
2004 1 100.95938432687251 18.089667222936008 1.6689562523669998 -1 0 0
2006 3 3.4813580802364967 20.099630247707005 0 0 0 0
2012 3 6.962716160473498 20.099630247707005 0 0 0 0
2018 3 10.4440742407105 20.099630247707005 0 0 0 0
2024 3 13.9254323209475 20.099630247707005 0 0 0 0
2030 3 17.4067904011845 20.099630247707005 0 0 0 0
2036 3 20.888148481421503 20.099630247707005 0 0 0 0
2042 3 24.36950656165849 20.099630247707005 0 0 0 0
2048 3 27.85086464189549 20.099630247707005 0 0 0 0
2054 3 31.332222722132492 20.099630247707005 0 0 0 0
2060 3 34.81358080236949 20.099630247707005 0 0 0 0
2066 3 38.294938882606495 20.099630247707005 0 0 0 0
2072 3 41.776296962843496 20.099630247707005 0 0 0 0
2078 3 45.2576550430805 20.099630247707005 0 0 0 0
2084 3 48.7390131233175 20.099630247707005 0 0 0 0
1916 3 52.22037120355451 20.099630247707005 0 -1 0 0
1922 3 55.7017292837915 20.099630247707005 0 -1 0 0
1928 3 59.1830873640285 20.099630247707005 0 -1 0 0
1934 3 62.6644454442655 20.099630247707005 0 -1 0 0
1940 3 66.1458035245025 20.099630247707005 0 -1 0 0
1946 3 69.6271616047395 20.099630247707005 0 -1 0 0
1952 3 73.1085196849765 20.099630247707005 0 -1 0 0
1958 3 76.5898777652135 20.099630247707005 0 -1 0 0
1964 3 80.0712358454505 20.099630247707005 0 -1 0 0
1970 3 83.5525939256875 20.099630247707005 0 -1 0 0
1976 3 87.0339520059245 20.099630247707005 0 -1 0 0
1982 3 90.5153100861615 20.099630247707005 0 -1 0 0
1988 3 93.9966681663985 20.099630247707005 0 -1 0 0
1994 3 97.4780262466355 20.099630247707005 0 -1 0 0
2000 3 100.95938432687251 20.099630247707005 0 -1 0 0
2183 1 1.7406790401184935 21.104611760092006 1.6689562523669998 0 0 0
2189 1 5.222037120355495 21.104611760092006 1.6689562523669998 0 0 0
2195 1 8.703395200592496 21.104611760092006 1.6689562523669998 0 0 0
2201 1 12.184753280829497 21.104611760092006 1.6689562523669998 0 0 0
2207 1 15.666111361066491 21.104611760092006 1.6689562523669998 0 0 0
2213 1 19.147469441303492 21.104611760092006 1.6689562523669998 0 0 0
2219 1 22.628827521540494 21.104611760092006 1.6689562523669998 0 0 0
2225 1 26.110185601777495 21.104611760092006 1.6689562523669998 0 0 0
2231 1 29.591543682014496 21.104611760092006 1.6689562523669998 0 0 0
2237 1 33.0729017622515 21.104611760092006 1.6689562523669998 0 0 0
2243 1 36.5542598424885 21.104611760092006 1.6689562523669998 0 0 0
2249 1 40.0356179227255 21.104611760092006 1.6689562523669998 0 0 0
2255 1 43.5169760029625 21.104611760092006 1.6689562523669998 0 0 0
2261 1 46.9983340831995 21.104611760092006 1.6689562523669998 0 0 0
2093 1 50.4796921634365 21.104611760092006 1.6689562523669998 -1 0 0
2099 1 53.961050243673505 21.104611760092006 1.6689562523669998 -1 0 0
2105 1 57.442408323910506 21.104611760092006 1.6689562523669998 -1 0 0
2111 1 60.9237664041475 21.104611760092006 1.6689562523669998 -1 0 0
2117 1 64.4051244843845 21.104611760092006 1.6689562523669998 -1 0 0
2123 1 67.8864825646215 21.104611760092006 1.6689562523669998 -1 0 0
2129 1 71.3678406448585 21.104611760092006 1.6689562523669998 -1 0 0
2135 1 74.8491987250955 21.104611760092006 1.6689562523669998 -1 0 0
2141 1 78.3305568053325 21.104611760092006 1.6689562523669998 -1 0 0
2147 1 81.81191488556951 21.104611760092006 1.6689562523669998 -1 0 0
2153 1 85.2932729658065 21.104611760092006 1.6689562523669998 -1 0 0
2159 1 88.77463104604351 21.104611760092006 1.6689562523669998 -1 0 0
2165 1 92.2559891262805 21.104611760092006 1.6689562523669998 -1 0 0
2171 1 95.73734720651751 21.104611760092006 1.6689562523669998 -1 0 0
2177 1 99.2187052867545 21.104611760092006 1.6689562523669998 -1 0 0
2179 3 1.7406790401184935 23.114574784863002 0 0 0 0
2184 1 3.4813580802364967 24.119556297248003 1.6689562523669998 0 0 0
2185 3 5.222037120355495 23.114574784863002 0 0 0 0
2190 1 6.962716160473498 24.119556297248003 1.6689562523669998 0 0 0
2191 3 8.703395200592496 23.114574784863002 0 0 0 0
2196 1 10.4440742407105 24.119556297248003 1.6689562523669998 0 0 0
2197 3 12.184753280829497 23.114574784863002 0 0 0 0
2202 1 13.9254323209475 24.119556297248003 1.6689562523669998 0 0 0
2203 3 15.666111361066491 23.114574784863002 0 0 0 0
2208 1 17.4067904011845 24.119556297248003 1.6689562523669998 0 0 0
2209 3 19.147469441303492 23.114574784863002 0 0 0 0
2214 1 20.888148481421503 24.119556297248003 1.6689562523669998 0 0 0
2215 3 22.628827521540494 23.114574784863002 0 0 0 0
2221 3 26.110185601777495 23.114574784863002 0 0 0 0
2220 1 24.36950656165849 24.119556297248003 1.6689562523669998 0 0 0
2226 1 27.85086464189549 24.119556297248003 1.6689562523669998 0 0 0
2227 3 29.591543682014496 23.114574784863002 0 0 0 0
2232 1 31.332222722132492 24.119556297248003 1.6689562523669998 0 0 0
2233 3 33.0729017622515 23.114574784863002 0 0 0 0
2238 1 34.81358080236949 24.119556297248003 1.6689562523669998 0 0 0
2239 3 36.5542598424885 23.114574784863002 0 0 0 0
2244 1 38.294938882606495 24.119556297248003 1.6689562523669998 0 0 0
2245 3 40.0356179227255 23.114574784863002 0 0 0 0
2250 1 41.776296962843496 24.119556297248003 1.6689562523669998 0 0 0
2251 3 43.5169760029625 23.114574784863002 0 0 0 0
2256 1 45.2576550430805 24.119556297248003 1.6689562523669998 0 0 0
2257 3 46.9983340831995 23.114574784863002 0 0 0 0
2262 1 48.7390131233175 24.119556297248003 1.6689562523669998 0 0 0
2089 3 50.4796921634365 23.114574784863002 0 -1 0 0
2094 1 52.22037120355451 24.119556297248003 1.6689562523669998 -1 0 0
2095 3 53.961050243673505 23.114574784863002 0 -1 0 0
2100 1 55.7017292837915 24.119556297248003 1.6689562523669998 -1 0 0
2101 3 57.442408323910506 23.114574784863002 0 -1 0 0
2106 1 59.1830873640285 24.119556297248003 1.6689562523669998 -1 0 0
2107 3 60.9237664041475 23.114574784863002 0 -1 0 0
2112 1 62.6644454442655 24.119556297248003 1.6689562523669998 -1 0 0
2113 3 64.4051244843845 23.114574784863002 0 -1 0 0
2118 1 66.1458035245025 24.119556297248003 1.6689562523669998 -1 0 0
2119 3 67.8864825646215 23.114574784863002 0 -1 0 0
2124 1 69.6271616047395 24.119556297248003 1.6689562523669998 -1 0 0
2125 3 71.3678406448585 23.114574784863002 0 -1 0 0
2130 1 73.1085196849765 24.119556297248003 1.6689562523669998 -1 0 0
2131 3 74.8491987250955 23.114574784863002 0 -1 0 0
2136 1 76.5898777652135 24.119556297248003 1.6689562523669998 -1 0 0
2137 3 78.3305568053325 23.114574784863002 0 -1 0 0
2142 1 80.0712358454505 24.119556297248003 1.6689562523669998 -1 0 0
2143 3 81.81191488556951 23.114574784863002 0 -1 0 0
2148 1 83.5525939256875 24.119556297248003 1.6689562523669998 -1 0 0
2149 3 85.2932729658065 23.114574784863002 0 -1 0 0
2154 1 87.0339520059245 24.119556297248003 1.6689562523669998 -1 0 0
2155 3 88.77463104604351 23.114574784863002 0 -1 0 0
2160 1 90.5153100861615 24.119556297248003 1.6689562523669998 -1 0 0
2161 3 92.2559891262805 23.114574784863002 0 -1 0 0
2166 1 93.9966681663985 24.119556297248003 1.6689562523669998 -1 0 0
2167 3 95.73734720651751 23.114574784863002 0 -1 0 0
2172 1 97.4780262466355 24.119556297248003 1.6689562523669998 -1 0 0
2173 3 99.2187052867545 23.114574784863002 0 -1 0 0
2178 1 100.95938432687251 24.119556297248003 1.6689562523669998 -1 0 0
2357 1 1.7406790401184935 27.134500834404 1.6689562523669998 0 0 0
2180 3 3.4813580802364967 26.129519322019 0 0 0 0
2363 1 5.222037120355495 27.134500834404 1.6689562523669998 0 0 0
2186 3 6.962716160473498 26.129519322019 0 0 0 0
2369 1 8.703395200592496 27.134500834404 1.6689562523669998 0 0 0
2192 3 10.4440742407105 26.129519322019 0 0 0 0
2375 1 12.184753280829497 27.134500834404 1.6689562523669998 0 0 0