LAMMPS data file via write_data, version 29 Aug 2024, timestep = 2, units = metal

8874 atoms
9 atom types

0 100.959384326873 xlo xhi
0 102.508114263304 ylo yhi
-50 50 zlo zhi

Masses

1 92.90637
2 92.90637
3 92.90637
4 78.971
5 78.971
6 78.971
7 78.971
8 78.971
9 78.971

Atoms # atomic

1661 1 1.7409739866321863 3.014646893810901 1.6662946058129482 0 0 0
1484 5 3.4813704688154363 2.009963997282138 0.027053438760906018 0 0 0
1667 1 5.222332066869186 3.0146468938109 1.6662946058129477 0 0 0
1657 5 1.7406914286970152 5.024908534438137 0.027053438760904255 0 0 0
1663 5 5.222049508934016 5.024908534438137 0.027053438760904575 0 0 0
1478 5 1.2388578440436504e-05 2.009963997282138 0.02705343876090545 0 0 0
1490 5 6.9627285490524375 2.009963997282138 0.027053438760905577 0 0 0
1673 1 8.703690147106187 3.0146468938108995 1.6662946058129469 0 0 0
1496 5 10.444086629289437 2.009963997282138 0.027053438760905553 0 0 0
1669 5 8.703407589171018 5.024908534438137 0.02705343876090429 0 0 0
1679 1 12.185048227343186 3.0146468938109003 1.6662946058129475 0 0 0
1502 5 13.925444709526438 2.0099639972821377 0.02705343876090509 0 0 0
1685 1 15.666406307580186 3.0146468938109 1.6662946058129477 0 0 0
1508 5 17.40680278976344 2.0099639972821386 0.02705343876090599 0 0 0
1675 5 12.184765669408018 5.024908534438137 0.027053438760904346 0 0 0
1681 5 15.666123749645015 5.024908534438137 0.02705343876090456 0 0 0
1691 1 19.147764387817187 3.0146468938109 1.6662946058129475 0 0 0
1514 5 20.88816087000044 2.009963997282138 0.027053438760906184 0 0 0
1697 1 22.629122468054184 3.014646893810901 1.6662946058129489 0 0 0
1687 5 19.147481829882018 5.024908534438137 0.027053438760904536 0 0 0
1693 5 22.628839910119016 5.024908534438136 0.027053438760903492 0 0 0
1520 5 24.369518950237435 2.009963997282138 0.02705343876090622 0 0 0
1703 1 26.110480548291186 3.0146468938109003 1.6662946058129475 0 0 0
1526 5 27.850877030474436 2.009963997282138 0.027053438760905924 0 0 0
1709 1 29.591838628528187 3.0146468938109003 1.6662946058129475 0 0 0
1699 5 26.110197990356014 5.024908534438137 0.027053438760904235 0 0 0
1705 5 29.591556070593015 5.024908534438137 0.027053438760904495 0 0 0
1532 5 31.332235110711437 2.009963997282138 0.027053438760905924 0 0 0
1715 1 33.07319670876519 3.0146468938109003 1.6662946058129473 0 0 0
1538 5 34.81359319094844 2.009963997282138 0.027053438760905525 0 0 0
1711 5 33.072914150830016 5.024908534438137 0.027053438760904495 0 0 0
1721 1 36.55455478900219 3.0146468938108995 1.6662946058129462 0 0 0
1544 5 38.29495127118544 2.009963997282138 0.02705343876090503 0 0 0
1727 1 40.03591286923918 3.0146468938109003 1.6662946058129475 0 0 0
1717 5 36.55427223106702 5.024908534438137 0.0270534387609043 0 0 0
1723 5 40.03563031130402 5.024908534438137 0.027053438760904495 0 0 0
1550 5 41.77630935142244 2.0099639972821386 0.02705343876090597 0 0 0
1733 1 43.517270949476185 3.0146468938109003 1.6662946058129475 0 0 0
1556 5 45.25766743165944 2.0099639972821386 0.027053438760905973 0 0 0
1739 1 46.998629029713186 3.0146468938109003 1.6662946058129475 0 0 0
1729 5 43.51698839154102 5.024908534438137 0.027053438760904495 0 0 0
1735 5 46.99834647177802 5.024908534438137 0.027053438760904484 0 0 0
1562 5 48.73902551189644 2.009963997282138 0.027053438760906347 0 0 0
1394 5 52.220383592133444 2.009963997282138 0.027053438760905962 -1 0 0
1571 1 50.479987109950194 3.0146468938109003 1.6662946058129482 -1 0 0
1567 5 50.47970455201502 5.024908534438137 0.02705343876090523 -1 0 0
1577 1 53.961345190187195 3.014646893810901 1.666294605812948 -1 0 0
1400 5 55.701741672370446 2.0099639972821386 0.02705343876090613 -1 0 0
1583 1 57.4427032704242 3.0146468938109003 1.6662946058129475 -1 0 0
1406 5 59.18309975260745 2.0099639972821373 0.02705343876090469 -1 0 0
1573 5 53.96106263225202 5.024908534438136 0.02705343876090384 -1 0 0
1579 5 57.442420712489024 5.024908534438137 0.02705343876090466 -1 0 0
1589 1 60.92406135066119 3.0146468938109 1.6662946058129475 -1 0 0
1412 5 62.66445783284444 2.0099639972821386 0.02705343876090668 -1 0 0
1595 1 64.40541943089819 3.014646893810901 1.6662946058129484 -1 0 0
1585 5 60.92377879272602 5.024908534438137 0.027053438760904172 -1 0 0
1591 5 64.40513687296303 5.024908534438136 0.027053438760903985 -1 0 0
1418 5 66.14581591308144 2.009963997282138 0.027053438760906257 -1 0 0
1601 1 67.8867775111352 3.0146468938109003 1.6662946058129477 -1 0 0
1424 5 69.62717399331844 2.009963997282138 0.027053438760905917 -1 0 0
1597 5 67.88649495320001 5.024908534438137 0.02705343876090453 -1 0 0
1607 1 71.3681355913722 3.0146468938109003 1.6662946058129477 -1 0 0
1430 5 73.10853207355544 2.009963997282138 0.02705343876090592 -1 0 0
1436 5 76.58989015379244 2.0099639972821377 0.02705343876090442 -1 0 0
1613 1 74.8494936716092 3.0146468938109003 1.6662946058129477 -1 0 0
1603 5 71.36785303343702 5.024908534438137 0.02705343876090443 -1 0 0
1609 5 74.84921111367402 5.024908534438137 0.02705343876090443 -1 0 0
1619 1 78.33085175184618 3.0146468938108995 1.6662946058129469 -1 0 0
1442 5 80.07124823402944 2.009963997282138 0.027053438760905883 -1 0 0
1625 1 81.81220983208318 3.014646893810901 1.6662946058129484 -1 0 0
1615 5 78.33056919391102 5.024908534438137 0.02705343876090424 -1 0 0
1621 5 81.81192727414802 5.024908534438137 0.027053438760904876 -1 0 0
1448 5 83.55260631426644 2.0099639972821373 0.027053438760904505 -1 0 0
1631 1 85.29356791232019 3.014646893810899 1.6662946058129455 -1 0 0
1454 5 87.03396439450344 2.0099639972821395 0.02705343876090701 -1 0 0
1637 1 88.77492599255719 3.0146468938109003 1.6662946058129475 -1 0 0
1627 5 85.29328535438502 5.024908534438137 0.027053438760904346 -1 0 0
1633 5 88.77464343462202 5.024908534438137 0.027053438760904495 -1 0 0
1460 5 90.51532247474044 2.0099639972821373 0.027053438760904373 -1 0 0
1643 1 92.25628407279419 3.0146468938109 1.6662946058129475 -1 0 0
1466 5 93.99668055497744 2.0099639972821395 0.027053438760907836 -1 0 0
1639 5 92.25600151485902 5.024908534438137 0.027053438760904602 -1 0 0
1649 1 95.73764215303119 3.014646893810901 1.6662946058129484 -1 0 0
1472 5 97.47803863521445 2.0099639972821373 0.027053438760904516 -1 0 0
1655 1 99.21900023326819 3.0146468938108995 1.666294605812947 -1 0 0
1645 5 95.73735959509602 5.024908534438136 0.027053438760903423 -1 0 0
1651 5 99.21871767533302 5.024908534438138 0.027053438760904793 -1 0 0
1662 1 3.481653026750612 6.029591430966899 1.6662946058129469 0 0 0
1835 1 1.7409739866321863 9.044535968122899 1.6662946058129464 0 0 0
1658 5 3.4813704688154363 8.039853071594136 0.027053438760904113 0 0 0
1841 1 5.222332066869186 9.044535968122899 1.6662946058129458 0 0 0
1831 5 1.7406914286970154 11.054797608750137 0.027053438760904266 0 0 0
1837 5 5.222049508934016 11.054797608750137 0.02705343876090463 0 0 0
1656 1 0.0002949465136055096 6.029591430966899 1.666294605812947 0 0 0
1652 5 1.2388578440436504e-05 8.039853071594134 0.027053438760903523 0 0 0
1668 1 6.963011106987613 6.029591430966899 1.6662946058129469 0 0 0
1674 1 10.444369187224614 6.029591430966899 1.666294605812947 0 0 0
1664 5 6.9627285490524375 8.039853071594134 0.02705343876090379 0 0 0
1847 1 8.703690147106187 9.044535968122899 1.666294605812945 0 0 0
1670 5 10.444086629289437 8.039853071594134 0.027053438760903763 0 0 0
1843 5 8.703407589171018 11.054797608750137 0.027053438760904394 0 0 0
1680 1 13.925727267461612 6.029591430966899 1.6662946058129469 0 0 0
1686 1 17.40708534769861 6.029591430966899 1.6662946058129466 0 0 0
1853 1 12.185048227343186 9.044535968122899 1.6662946058129458 0 0 0
1676 5 13.925444709526438 8.039853071594134 0.027053438760903232 0 0 0
1859 1 15.666406307580186 9.044535968122899 1.666294605812946 0 0 0
1682 5 17.40680278976344 8.039853071594136 0.027053438760904196 0 0 0
1849 5 12.184765669408018 11.054797608750137 0.02705343876090447 0 0 0
1855 5 15.666123749645015 11.054797608750137 0.027053438760904477 0 0 0
1692 1 20.888443427935613 6.029591430966899 1.6662946058129466 0 0 0
1865 1 19.147764387817187 9.044535968122899 1.6662946058129458 0 0 0
1688 5 20.88816087000044 8.039853071594136 0.027053438760904342 0 0 0
1871 1 22.629122468054184 9.0445359681229 1.666294605812947 0 0 0
1861 5 19.147481829882018 11.054797608750137 0.027053438760904623 0 0 0
1867 5 22.628839910119016 11.054797608750137 0.027053438760903527 0 0 0
1698 1 24.36980150817261 6.029591430966899 1.6662946058129469 0 0 0
1704 1 27.85115958840961 6.029591430966899 1.6662946058129469 0 0 0
1694 5 24.369518950237435 8.039853071594136 0.02705343876090435 0 0 0
1877 1 26.110480548291186 9.044535968122899 1.6662946058129458 0 0 0
1700 5 27.850877030474436 8.039853071594136 0.027053438760904 0 0 0
1883 1 29.591838628528187 9.044535968122899 1.6662946058129458 0 0 0
1873 5 26.110197990356014 11.054797608750137 0.02705343876090433 0 0 0
1879 5 29.591556070593015 11.054797608750137 0.027053438760904602 0 0 0
1710 1 31.332517668646613 6.029591430966899 1.666294605812947 0 0 0
1716 1 34.81387574888361 6.029591430966899 1.6662946058129469 0 0 0
1706 5 31.332235110711437 8.039853071594136 0.027053438760904 0 0 0
1889 1 33.07319670876519 9.044535968122899 1.6662946058129455 0 0 0
1712 5 34.81359319094844 8.039853071594134 0.02705343876090361 0 0 0
1885 5 33.072914150830016 11.054797608750137 0.0270534387609046 0 0 0
1722 1 38.29523382912061 6.029591430966899 1.6662946058129469 0 0 0
1895 1 36.55455478900219 9.044535968122897 1.6662946058129444 0 0 0
1718 5 38.29495127118544 8.039853071594134 0.027053438760903055 0 0 0
1901 1 40.03591286923918 9.044535968122899 1.6662946058129458 0 0 0
1891 5 36.55427223106702 11.054797608750137 0.027053438760904464 0 0 0
1897 5 40.03563031130402 11.054797608750137 0.027053438760904602 0 0 0
1728 1 41.77659190935761 6.029591430966899 1.6662946058129469 0 0 0
1734 1 45.257949989594614 6.029591430966899 1.6662946058129469 0 0 0
1724 5 41.77630935142244 8.039853071594136 0.027053438760904002 0 0 0
1907 1 43.517270949476185 9.044535968122899 1.6662946058129458 0 0 0
1730 5 45.25766743165944 8.039853071594136 0.027053438760904002 0 0 0
1913 1 46.998629029713186 9.044535968122899 1.6662946058129458 0 0 0
1903 5 43.51698839154102 11.054797608750137 0.027053438760904602 0 0 0
1909 5 46.99834647177802 11.054797608750137 0.02705343876090459 0 0 0
1740 1 48.739308069831615 6.029591430966899 1.6662946058129469 0 0 0
1572 1 52.220666150068624 6.029591430966899 1.6662946058129469 -1 0 0
1736 5 48.73902551189644 8.039853071594136 0.027053438760904432 0 0 0
1568 5 52.220383592133444 8.039853071594136 0.027053438760904193 -1 0 0
1745 1 50.479987109950194 9.044535968122899 1.6662946058129462 -1 0 0
1741 5 50.47970455201502 11.054797608750139 0.027053438760905407 -1 0 0
1578 1 55.70202423030562 6.029591430966899 1.6662946058129469 -1 0 0
1584 1 59.18338231054262 6.029591430966899 1.6662946058129469 -1 0 0
1751 1 53.961345190187195 9.044535968122899 1.6662946058129462 -1 0 0
1574 5 55.701741672370446 8.039853071594136 0.027053438760904224 -1 0 0
1757 1 57.4427032704242 9.044535968122899 1.6662946058129458 -1 0 0
1580 5 59.18309975260745 8.039853071594134 0.027053438760902826 -1 0 0
1747 5 53.96106263225202 11.054797608750137 0.027053438760904 -1 0 0
1753 5 57.442420712489024 11.054797608750137 0.02705343876090478 -1 0 0
1590 1 62.66474039077962 6.029591430966899 1.6662946058129464 -1 0 0
1763 1 60.92406135066119 9.044535968122899 1.6662946058129458 -1 0 0
1586 5 62.66445783284444 8.039853071594136 0.02705343876090478 -1 0 0
1769 1 64.40541943089819 9.044535968122899 1.6662946058129466 -1 0 0
1759 5 60.92377879272602 11.054797608750137 0.02705343876090424 -1 0 0
1765 5 64.40513687296303 11.054797608750137 0.027053438760904106 -1 0 0
1596 1 66.14609847101661 6.0295914309669 1.666294605812948 -1 0 0
1602 1 69.62745655125362 6.029591430966899 1.6662946058129469 -1 0 0
1592 5 66.14581591308144 8.039853071594136 0.027053438760904353 -1 0 0
1775 1 67.8867775111352 9.044535968122899 1.6662946058129458 -1 0 0
1598 5 69.62717399331844 8.039853071594136 0.02705343876090406 -1 0 0
1771 5 67.88649495320001 11.054797608750137 0.02705343876090464 -1 0 0
1608 1 73.10881463149062 6.029591430966899 1.6662946058129469 -1 0 0
1614 1 76.59017271172762 6.029591430966899 1.6662946058129469 -1 0 0
1781 1 71.3681355913722 9.044535968122899 1.6662946058129458 -1 0 0
1604 5 73.10853207355544 8.039853071594136 0.02705343876090406 -1 0 0
1610 5 76.58989015379244 8.039853071594134 0.027053438760902573 -1 0 0
1787 1 74.8494936716092 9.044535968122899 1.6662946058129458 -1 0 0
1777 5 71.36785303343702 11.054797608750137 0.02705343876090454 -1 0 0
1783 5 74.84921111367402 11.054797608750137 0.02705343876090454 -1 0 0
1620 1 80.07153079196462 6.029591430966899 1.6662946058129469 -1 0 0
1793 1 78.33085175184618 9.044535968122897 1.6662946058129449 -1 0 0
1616 5 80.07124823402944 8.039853071594136 0.027053438760904013 -1 0 0
1799 1 81.81220983208318 9.0445359681229 1.6662946058129466 -1 0 0
1789 5 78.33056919391102 11.054797608750137 0.027053438760904408 -1 0 0
1795 5 81.81192727414802 11.054797608750137 0.02705343876090482 -1 0 0
1626 1 83.55288887220162 6.029591430966899 1.6662946058129458 -1 0 0
1632 1 87.03424695243862 6.0295914309669 1.666294605812948 -1 0 0
1622 5 83.55260631426644 8.039853071594136 0.02705343876090254 -1 0 0
1805 1 85.29356791232019 9.044535968122897 1.666294605812944 -1 0 0
1628 5 87.03396439450344 8.039853071594136 0.027053438760904932 -1 0 0
1811 1 88.77492599255719 9.044535968122899 1.666294605812946 -1 0 0
1801 5 85.29328535438502 11.054797608750137 0.027053438760904464 -1 0 0
1807 5 88.77464343462202 11.054797608750137 0.02705343876090456 -1 0 0
1638 1 90.51560503267562 6.029591430966899 1.6662946058129458 -1 0 0
1644 1 93.99696311291262 6.0295914309669 1.666294605812948 -1 0 0
1634 5 90.51532247474044 8.039853071594136 0.027053438760902524 -1 0 0
1817 1 92.25628407279419 9.044535968122899 1.666294605812946 -1 0 0
1640 5 93.99668055497744 8.039853071594136 0.027053438760905893 -1 0 0
1813 5 92.25600151485902 11.054797608750137 0.027053438760904616 -1 0 0
1650 1 97.47832119314963 6.0295914309668985 1.6662946058129458 -1 0 0
1823 1 95.73764215303119 9.0445359681229 1.6662946058129466 -1 0 0
1646 5 97.47803863521445 8.039853071594136 0.027053438760902552 -1 0 0
1829 1 99.21900023326819 9.044535968122899 1.6662946058129453 -1 0 0
1819 5 95.73735959509602 11.054797608750137 0.0270534387609034 -1 0 0
1825 5 99.21871767533302 11.054797608750139 0.027053438760904953 -1 0 0
1836 1 3.4816530267506125 12.0594805052789 1.6662946058129462 0 0 0
1832 5 3.4813704688154363 14.06974214590614 0.027053438760903284 0 0 0
2009 1 1.7409739866321863 15.0744250424349 1.666294605812947 0 0 0
2015 1 5.222332066869186 15.0744250424349 1.6662946058129462 0 0 0
1830 1 0.0002949465136055096 12.0594805052789 1.6662946058129466 0 0 0
1826 5 1.2388578440436504e-05 14.06974214590614 0.027053438760902774 0 0 0
1842 1 6.963011106987613 12.0594805052789 1.6662946058129462 0 0 0
1848 1 10.444369187224614 12.0594805052789 1.6662946058129464 0 0 0
1838 5 6.9627285490524375 14.06974214590614 0.027053438760903034 0 0 0
1844 5 10.444086629289439 14.06974214590614 0.027053438760903034 0 0 0
2021 1 8.703690147106187 15.0744250424349 1.6662946058129453 0 0 0
1854 1 13.925727267461612 12.0594805052789 1.6662946058129462 0 0 0
1860 1 17.40708534769861 12.0594805052789 1.6662946058129462 0 0 0
1850 5 13.925444709526438 14.069742145906138 0.027053438760902392 0 0 0
1856 5 17.40680278976344 14.06974214590614 0.02705343876090342 0 0 0
2027 1 12.185048227343186 15.0744250424349 1.6662946058129462 0 0 0
2033 1 15.666406307580186 15.0744250424349 1.6662946058129462 0 0 0
1866 1 20.888443427935613 12.0594805052789 1.6662946058129462 0 0 0
1862 5 20.88816087000044 14.06974214590614 0.027053438760903586 0 0 0
2039 1 19.147764387817187 15.0744250424349 1.6662946058129462 0 0 0
2045 1 22.629122468054184 15.0744250424349 1.6662946058129477 0 0 0
1872 1 24.36980150817261 12.0594805052789 1.6662946058129464 0 0 0
1878 1 27.85115958840961 12.0594805052789 1.6662946058129462 0 0 0
1868 5 24.369518950237435 14.06974214590614 0.02705343876090349 0 0 0
1874 5 27.850877030474436 14.06974214590614 0.0270534387609032 0 0 0
2051 1 26.110480548291186 15.0744250424349 1.6662946058129462 0 0 0
2057 1 29.591838628528187 15.0744250424349 1.6662946058129462 0 0 0
1884 1 31.332517668646613 12.0594805052789 1.6662946058129464 0 0 0
1890 1 34.81387574888361 12.0594805052789 1.6662946058129462 0 0 0
1880 5 31.332235110711437 14.06974214590614 0.027053438760903197 0 0 0
1886 5 34.81359319094844 14.06974214590614 0.027053438760902864 0 0 0
2063 1 33.07319670876519 15.0744250424349 1.6662946058129458 0 0 0
1896 1 38.29523382912061 12.0594805052789 1.6662946058129462 0 0 0
1892 5 38.29495127118544 14.06974214590614 0.027053438760902257 0 0 0
2069 1 36.55455478900219 15.074425042434898 1.6662946058129449 0 0 0
2075 1 40.03591286923918 15.0744250424349 1.6662946058129462 0 0 0
1902 1 41.77659190935761 12.0594805052789 1.6662946058129462 0 0 0
1908 1 45.257949989594614 12.0594805052789 1.6662946058129462 0 0 0
1898 5 41.77630935142244 14.06974214590614 0.027053438760903194 0 0 0
1904 5 45.25766743165944 14.06974214590614 0.027053438760903194 0 0 0
2081 1 43.517270949476185 15.0744250424349 1.6662946058129462 0 0 0
2087 1 46.998629029713186 15.0744250424349 1.6662946058129462 0 0 0
1914 1 48.739308069831615 12.0594805052789 1.6662946058129462 0 0 0
1746 1 52.220666150068624 12.0594805052789 1.6662946058129464 -1 0 0
1910 5 48.73902551189644 14.06974214590614 0.027053438760903672 0 0 0
1742 5 52.220383592133444 14.06974214590614 0.02705343876090346 -1 0 0
1919 1 50.479987109950194 15.0744250424349 1.6662946058129469 -1 0 0
1752 1 55.70202423030562 12.0594805052789 1.6662946058129462 -1 0 0
1758 1 59.18338231054262 12.0594805052789 1.6662946058129462 -1 0 0
1748 5 55.701741672370446 14.06974214590614 0.027053438760903454 -1 0 0
1754 5 59.18309975260745 14.069742145906138 0.02705343876090204 -1 0 0
1925 1 53.961345190187195 15.0744250424349 1.6662946058129466 -1 0 0
1931 1 57.4427032704242 15.0744250424349 1.6662946058129462 -1 0 0
1764 1 62.66474039077962 12.0594805052789 1.6662946058129458 -1 0 0
1760 5 62.66445783284444 14.06974214590614 0.027053438760904085 -1 0 0
1937 1 60.92406135066119 15.0744250424349 1.6662946058129462 -1 0 0
1943 1 64.40541943089819 15.0744250424349 1.666294605812947 -1 0 0
1770 1 66.14609847101661 12.059480505278902 1.6662946058129473 -1 0 0
1776 1 69.62745655125362 12.0594805052789 1.6662946058129462 -1 0 0
1766 5 66.14581591308144 14.06974214590614 0.027053438760903627 -1 0 0
1772 5 69.62717399331844 14.06974214590614 0.0270534387609032 -1 0 0
1949 1 67.8867775111352 15.0744250424349 1.6662946058129462 -1 0 0
1782 1 73.10881463149062 12.0594805052789 1.6662946058129462 -1 0 0
1788 1 76.59017271172762 12.0594805052789 1.6662946058129462 -1 0 0
1778 5 73.10853207355544 14.06974214590614 0.027053438760903197 -1 0 0
1784 5 76.58989015379244 14.06974214590614 0.027053438760901764 -1 0 0
1955 1 71.3681355913722 15.0744250424349 1.6662946058129462 -1 0 0
1961 1 74.8494936716092 15.0744250424349 1.6662946058129462 -1 0 0
1794 1 80.07153079196462 12.0594805052789 1.6662946058129462 -1 0 0
1790 5 80.07124823402944 14.06974214590614 0.02705343876090322 -1 0 0
1967 1 78.33085175184618 15.074425042434898 1.6662946058129455 -1 0 0
1973 1 81.81220983208318 15.0744250424349 1.666294605812947 -1 0 0
1800 1 83.55288887220162 12.0594805052789 1.6662946058129453 -1 0 0
1806 1 87.03424695243862 12.059480505278902 1.6662946058129475 -1 0 0
1796 5 83.55260631426644 14.069742145906138 0.027053438760901785 -1 0 0
1802 5 87.03396439450344 14.06974214590614 0.027053438760904325 -1 0 0
1979 1 85.29356791232019 15.074425042434898 1.6662946058129444 -1 0 0
1985 1 88.77492599255719 15.0744250424349 1.6662946058129462 -1 0 0
1812 1 90.51560503267562 12.0594805052789 1.666294605812945 -1 0 0
1818 1 93.99696311291262 12.059480505278902 1.6662946058129475 -1 0 0
1808 5 90.51532247474044 14.069742145906138 0.02705343876090176 -1 0 0
1814 5 93.99668055497744 14.06974214590614 0.027053438760905164 -1 0 0
1991 1 92.25628407279419 15.0744250424349 1.6662946058129464 -1 0 0
1824 1 97.47832119314963 12.0594805052789 1.6662946058129453 -1 0 0
1820 5 97.47803863521445 14.069742145906138 0.02705343876090172 -1 0 0
1997 1 95.73764215303119 15.0744250424349 1.6662946058129475 -1 0 0
2003 1 99.21900023326819 15.074425042434898 1.666294605812946 -1 0 0
2005 5 1.7406914286970154 17.08468668306214 0.027053438760906462 0 0 0
2010 1 3.4816530267506125 18.0893695795909 1.6662946058129486 0 0 0
2011 5 5.222049508934016 17.08468668306214 0.027053438760906882 0 0 0
2006 5 3.4813704688154363 20.09963122021814 0.027053438760905085 0 0 0
2183 1 1.7409739866321865 21.104314116746902 1.666294605812947 0 0 0
2189 1 5.222332066869186 21.104314116746902 1.6662946058129464 0 0 0
2004 1 0.0002949465136055096 18.0893695795909 1.6662946058129489 0 0 0
2000 5 1.2388578440436504e-05 20.09963122021814 0.027053438760904554 0 0 0
2016 1 6.963011106987613 18.0893695795909 1.6662946058129484 0 0 0
2017 5 8.703407589171018 17.08468668306214 0.027053438760906604 0 0 0
2022 1 10.444369187224614 18.0893695795909 1.6662946058129489 0 0 0
2012 5 6.9627285490524375 20.09963122021814 0.027053438760904606 0 0 0
2018 5 10.444086629289437 20.09963122021814 0.027053438760904585 0 0 0
2195 1 8.703690147106187 21.104314116746902 1.6662946058129458 0 0 0
2023 5 12.184765669408018 17.08468668306214 0.027053438760906615 0 0 0
2028 1 13.925727267461612 18.0893695795909 1.6662946058129486 0 0 0
2029 5 15.666123749645015 17.08468668306214 0.02705343876090678 0 0 0
2034 1 17.40708534769861 18.0893695795909 1.6662946058129484 0 0 0
2024 5 13.925444709526438 20.09963122021814 0.027053438760904044 0 0 0
2030 5 17.40680278976344 20.09963122021814 0.027053438760904942 0 0 0
2201 1 12.185048227343186 21.104314116746902 1.6662946058129464 0 0 0
2207 1 15.666406307580186 21.104314116746902 1.6662946058129466 0 0 0
2035 5 19.147481829882018 17.08468668306214 0.02705343876090678 0 0 0
2040 1 20.888443427935613 18.0893695795909 1.6662946058129486 0 0 0
2041 5 22.628839910119016 17.084686683062138 0.027053438760905834 0 0 0
2036 5 20.88816087000044 20.09963122021814 0.027053438760905178 0 0 0
2213 1 19.147764387817187 21.104314116746902 1.6662946058129464 0 0 0
2219 1 22.629122468054184 21.104314116746902 1.6662946058129482 0 0 0
2047 5 26.110197990356014 17.08468668306214 0.02705343876090665 0 0 0
2046 1 24.36980150817261 18.0893695795909 1.6662946058129484 0 0 0
2052 1 27.85115958840961 18.0893695795909 1.6662946058129486 0 0 0
2053 5 29.591556070593015 17.08468668306214 0.027053438760906854 0 0 0
2042 5 24.369518950237435 20.09963122021814 0.027053438760905123 0 0 0
2048 5 27.850877030474436 20.09963122021814 0.02705343876090474 0 0 0
2225 1 26.110480548291186 21.104314116746902 1.6662946058129466 0 0 0
2231 1 29.591838628528187 21.104314116746902 1.6662946058129466 0 0 0
2058 1 31.332517668646613 18.0893695795909 1.6662946058129489 0 0 0
2059 5 33.072914150830016 17.08468668306214 0.027053438760906854 0 0 0
2064 1 34.81387574888361 18.0893695795909 1.6662946058129486 0 0 0
2054 5 31.332235110711437 20.09963122021814 0.027053438760904738 0 0 0
2060 5 34.81359319094844 20.09963122021814 0.027053438760904443 0 0 0
2237 1 33.07319670876519 21.104314116746902 1.6662946058129464 0 0 0
2065 5 36.55427223106702 17.08468668306214 0.027053438760906656 0 0 0
2070 1 38.29523382912061 18.0893695795909 1.6662946058129486 0 0 0
2071 5 40.03563031130402 17.08468668306214 0.027053438760906854 0 0 0
2066 5 38.29495127118544 20.09963122021814 0.027053438760903846 0 0 0
2243 1 36.55455478900219 21.104314116746902 1.6662946058129453 0 0 0
2249 1 40.03591286923918 21.104314116746902 1.6662946058129466 0 0 0
2076 1 41.77659190935761 18.0893695795909 1.6662946058129486 0 0 0
2077 5 43.51698839154102 17.08468668306214 0.027053438760906854 0 0 0
2082 1 45.257949989594614 18.0893695795909 1.6662946058129486 0 0 0
2083 5 46.99834647177802 17.08468668306214 0.027053438760906847 0 0 0
2072 5 41.77630935142244 20.09963122021814 0.027053438760904748 0 0 0
2078 5 45.25766743165944 20.09963122021814 0.027053438760904748 0 0 0
2255 1 43.517270949476185 21.104314116746902 1.6662946058129466 0 0 0
2261 1 46.998629029713186 21.104314116746902 1.6662946058129464 0 0 0
2088 1 48.739308069831615 18.0893695795909 1.6662946058129486 0 0 0
1915 5 50.47970455201502 17.08468668306214 0.027053438760907534 -1 0 0
1920 1 52.220666150068624 18.0893695795909 1.6662946058129486 -1 0 0
2084 5 48.73902551189644 20.09963122021814 0.027053438760905265 0 0 0
1916 5 52.220383592133444 20.09963122021814 0.027053438760905102 -1 0 0
2093 1 50.479987109950194 21.104314116746902 1.666294605812947 -1 0 0
1921 5 53.96106263225202 17.08468668306214 0.027053438760906257 -1 0 0
1926 1 55.70202423030562 18.0893695795909 1.6662946058129486 -1 0 0
1927 5 57.442420712489024 17.08468668306214 0.027053438760906882 -1 0 0
1932 1 59.18338231054262 18.0893695795909 1.666294605812949 -1 0 0
1922 5 55.701741672370446 20.09963122021814 0.027053438760905216 -1 0 0
1928 5 59.18309975260745 20.09963122021814 0.02705343876090357 -1 0 0
2099 1 53.961345190187195 21.104314116746902 1.6662946058129473 -1 0 0
2105 1 57.4427032704242 21.104314116746902 1.6662946058129464 -1 0 0
1933 5 60.92377879272602 17.084686683062138 0.027053438760906347 -1 0 0
1938 1 62.66474039077962 18.0893695795909 1.6662946058129482 -1 0 0
1939 5 64.40513687296303 17.08468668306214 0.0270534387609063 -1 0 0
1934 5 62.66445783284444 20.099631220218143 0.027053438760905834 -1 0 0
2111 1 60.92406135066119 21.104314116746902 1.6662946058129462 -1 0 0
2117 1 64.40541943089819 21.104314116746902 1.6662946058129477 -1 0 0
1944 1 66.14609847101661 18.0893695795909 1.6662946058129497 -1 0 0
1945 5 67.88649495320001 17.08468668306214 0.027053438760906948 -1 0 0
1950 1 69.62745655125362 18.0893695795909 1.6662946058129486 -1 0 0
1940 5 66.14581591308144 20.09963122021814 0.027053438760905397 -1 0 0
1946 5 69.62717399331844 20.09963122021814 0.02705343876090481 -1 0 0
2123 1 67.8867775111352 21.104314116746902 1.6662946058129466 -1 0 0
1951 5 71.36785303343702 17.08468668306214 0.02705343876090685 -1 0 0
1956 1 73.10881463149062 18.0893695795909 1.6662946058129486 -1 0 0
1957 5 74.84921111367402 17.08468668306214 0.02705343876090685 -1 0 0
1962 1 76.59017271172762 18.0893695795909 1.6662946058129486 -1 0 0
1952 5 73.10853207355544 20.09963122021814 0.02705343876090481 -1 0 0
1958 5 76.58989015379244 20.09963122021814 0.027053438760903405 -1 0 0
2129 1 71.3681355913722 21.104314116746902 1.6662946058129466 -1 0 0
2135 1 74.8494936716092 21.104314116746902 1.6662946058129466 -1 0 0
1963 5 78.33056919391102 17.08468668306214 0.027053438760906653 -1 0 0
1968 1 80.07153079196462 18.0893695795909 1.6662946058129486 -1 0 0
1969 5 81.81192727414802 17.08468668306214 0.02705343876090714 -1 0 0
1964 5 80.07124823402944 20.09963122021814 0.027053438760904925 -1 0 0
2141 1 78.33085175184618 21.104314116746902 1.6662946058129458 -1 0 0
2147 1 81.81220983208318 21.104314116746902 1.6662946058129473 -1 0 0
1974 1 83.55288887220162 18.0893695795909 1.6662946058129477 -1 0 0
1975 5 85.29328535438502 17.08468668306214 0.027053438760906694 -1 0 0
1980 1 87.03424695243862 18.0893695795909 1.66629460581295 -1 0 0
1981 5 88.77464343462202 17.08468668306214 0.027053438760906864 -1 0 0
1970 5 83.55260631426644 20.09963122021814 0.02705343876090351 -1 0 0
1976 5 87.03396439450344 20.09963122021814 0.027053438760905893 -1 0 0
2153 1 85.29356791232019 21.104314116746902 1.6662946058129446 -1 0 0
2159 1 88.77492599255719 21.104314116746902 1.6662946058129466 -1 0 0
1986 1 90.51560503267562 18.0893695795909 1.6662946058129475 -1 0 0
1987 5 92.25600151485902 17.08468668306214 0.02705343876090685 -1 0 0
1992 1 93.99696311291262 18.0893695795909 1.6662946058129497 -1 0 0
1982 5 90.51532247474044 20.09963122021814 0.027053438760903353 -1 0 0
1988 5 93.99668055497744 20.09963122021814 0.02705343876090682 -1 0 0
2165 1 92.25628407279419 21.104314116746902 1.6662946058129464 -1 0 0
1993 5 95.73735959509602 17.084686683062138 0.027053438760905768 -1 0 0
1998 1 97.47832119314963 18.0893695795909 1.6662946058129475 -1 0 0
1999 5 99.21871767533302 17.084686683062138 0.02705343876090716 -1 0 0
1994 5 97.47803863521445 20.09963122021814 0.027053438760903523 -1 0 0
2171 1 95.73764215303119 21.104314116746902 1.6662946058129475 -1 0 0
2177 1 99.21900023326819 21.104314116746902 1.6662946058129462 -1 0 0
2179 5 1.7406914286970152 23.11457575737414 0.027053438760903718 0 0 0
2184 1 3.4816530267506125 24.1192586539029 1.666294605812947 0 0 0
2185 5 5.222049508934016 23.11457575737414 0.02705343876090422 0 0 0
2357 1 1.7409739866321865 27.134203191058898 1.6662946058129473 0 0 0
2180 5 3.4813704688154363 26.12952029453014 0.02705343876090453 0 0 0
2363 1 5.222332066869186 27.134203191058898 1.6662946058129466 0 0 0
2178 1 0.0002949465136055096 24.1192586539029 1.6662946058129473 0 0 0
2174 5 1.2388578440436504e-05 26.12952029453014 0.027053438760904002 0 0 0
2190 1 6.963011106987613 24.1192586539029 1.6662946058129469 0 0 0
2191 5 8.703407589171018 23.11457575737414 0.02705343876090401 0 0 0
2196 1 10.444369187224614 24.1192586539029 1.666294605812947 0 0 0
2186 5 6.9627285490524375 26.12952029453014 0.027053438760904044 0 0 0
2369 1 8.703690147106187 27.134203191058898 1.666294605812946 0 0 0
2192 5 10.444086629289437 26.12952029453014 0.02705343876090402 0 0 0
2197 5 12.184765669408018 23.11457575737414 0.02705343876090412 0 0 0
2202 1 13.925727267461612 24.1192586539029 1.6662946058129469 0 0 0
2203 5 15.666123749645015 23.11457575737414 0.027053438760904217 0 0 0
2208 1 17.40708534769861 24.1192586539029 1.6662946058129466 0 0 0
2375 1 12.185048227343186 27.134203191058898 1.6662946058129466 0 0 0
2198 5 13.925444709526438 26.12952029453014 0.027053438760903496 0 0 0