LAMMPS data file via write_data, version 29 Aug 2024, timestep = 2, units = metal

4680 atoms
6 atom types

0 101.14 xlo xhi
0 101.06516462163 ylo yhi
-50 115.09820813426329 zlo zhi

Masses

1 28.085
2 28.085
3 28.085
4 72.63
5 72.63
6 72.63

Atoms # atomic

784 1 1.944999999999999 1.1206926501480623 0.010036499920668318 0 0 0
788 1 5.835000000000001 1.1206926501480625 0.010036499920668036 0 0 0
885 4 1.9449999999999987 3.365249339046143 0.5306093226888817 0 0 0
889 4 5.835000000000001 3.3652493390461427 0.530609322688882 0 0 0
887 1 0 4.489531470869062 0.010036499920672553 0 0 0
891 1 3.8900000000000006 4.489531470869062 0.010036499920670381 0 0 0
792 1 9.725000000000001 1.1206926501480625 0.010036499920668083 0 0 0
893 4 9.725000000000001 3.3652493390461427 0.530609322688882 0 0 0
895 1 7.780000000000001 4.489531470869062 0.010036499920670412 0 0 0
899 1 11.67 4.489531470869063 0.01003649992067022 0 0 0
796 1 13.614999999999998 1.1206926501480627 0.010036499920665935 0 0 0
800 1 17.504999999999995 1.1206926501480625 0.010036499920668159 0 0 0
897 4 13.614999999999998 3.365249339046142 0.5306093226888839 0 0 0
901 4 17.504999999999995 3.3652493390461427 0.5306093226888818 0 0 0
903 1 15.560000000000006 4.489531470869062 0.010036499920670457 0 0 0
804 1 21.394999999999996 1.1206926501480623 0.010036499920668216 0 0 0
905 4 21.394999999999996 3.3652493390461427 0.5306093226888817 0 0 0
907 1 19.450000000000003 4.489531470869062 0.01003649992067067 0 0 0
911 1 23.340000000000003 4.489531470869062 0.010036499920670666 0 0 0
808 1 25.284999999999997 1.1206926501480623 0.010036499920668233 0 0 0
812 1 29.174999999999997 1.1206926501480623 0.010036499920668223 0 0 0
909 4 25.284999999999997 3.3652493390461427 0.5306093226888817 0 0 0
913 4 29.174999999999997 3.3652493390461427 0.5306093226888817 0 0 0
915 1 27.230000000000004 4.489531470869062 0.010036499920670666 0 0 0
816 1 33.065 1.1206926501480623 0.010036499920668228 0 0 0
917 4 33.065 3.3652493390461427 0.5306093226888817 0 0 0
919 1 31.120000000000005 4.489531470869062 0.010036499920670664 0 0 0
923 1 35.010000000000005 4.489531470869062 0.010036499920670664 0 0 0
820 1 36.955 1.1206926501480623 0.010036499920668226 0 0 0
824 1 40.845 1.1206926501480623 0.010036499920668225 0 0 0
921 4 36.955 3.3652493390461427 0.5306093226888817 0 0 0
925 4 40.845 3.3652493390461427 0.5306093226888817 0 0 0
927 1 38.900000000000006 4.489531470869062 0.010036499920670664 0 0 0
828 1 44.735 1.1206926501480632 0.010036499920667907 0 0 0
929 4 44.735 3.365249339046142 0.5306093226888822 0 0 0
931 1 42.790000000000006 4.489531470869062 0.010036499920670737 0 0 0
935 1 46.68 4.489531470869064 0.010036499920665846 0 0 0
832 1 48.62500000000001 1.1206926501480627 0.010036499920668109 0 0 0
732 1 52.515 1.1206926501480623 0.01003649992066828 -1 0 0
933 4 48.62500000000001 3.3652493390461427 0.530609322688882 0 0 0
833 4 52.515 3.3652493390461427 0.5306093226888818 -1 0 0
835 1 50.56999999999999 4.4895314708690615 0.010036499920672931 -1 0 0
736 1 56.405 1.1206926501480625 0.010036499920668043 -1 0 0
837 4 56.405 3.3652493390461427 0.530609322688882 -1 0 0
839 1 54.46 4.489531470869062 0.010036499920670381 -1 0 0
843 1 58.35 4.489531470869062 0.010036499920670416 -1 0 0
740 1 60.295 1.1206926501480625 0.010036499920668091 -1 0 0
744 1 64.18499999999999 1.1206926501480632 0.010036499920665784 -1 0 0
841 4 60.295 3.3652493390461427 0.530609322688882 -1 0 0
845 4 64.18499999999999 3.365249339046142 0.5306093226888842 -1 0 0
847 1 62.24 4.489531470869064 0.010036499920669696 -1 0 0
748 1 68.07499999999999 1.1206926501480623 0.01003649992066825 -1 0 0
849 4 68.07499999999999 3.3652493390461427 0.5306093226888817 -1 0 0
851 1 66.13000000000001 4.4895314708690615 0.010036499920670953 -1 0 0
855 1 70.02000000000001 4.489531470869062 0.010036499920670669 -1 0 0
752 1 71.96499999999999 1.1206926501480623 0.010036499920668226 -1 0 0
756 1 75.85499999999999 1.1206926501480623 0.01003649992066823 -1 0 0
853 4 71.96499999999999 3.3652493390461427 0.5306093226888817 -1 0 0
857 4 75.85499999999999 3.3652493390461427 0.5306093226888817 -1 0 0
859 1 73.91000000000001 4.489531470869062 0.010036499920670667 -1 0 0
760 1 79.74499999999999 1.1206926501480632 0.010036499920667907 -1 0 0
861 4 79.74499999999999 3.365249339046142 0.5306093226888822 -1 0 0
863 1 77.80000000000001 4.489531470869062 0.01003649992067074 -1 0 0
867 1 81.69 4.489531470869064 0.010036499920665859 -1 0 0
764 1 83.635 1.1206926501480623 0.010036499920668268 -1 0 0
768 1 87.52499999999999 1.1206926501480623 0.010036499920668268 -1 0 0
865 4 83.635 3.3652493390461427 0.5306093226888817 -1 0 0
869 4 87.52499999999999 3.3652493390461427 0.5306093226888817 -1 0 0
871 1 85.58 4.489531470869061 0.01003649992067553 -1 0 0
772 1 91.415 1.1206926501480623 0.010036499920668268 -1 0 0
873 4 91.415 3.3652493390461427 0.5306093226888817 -1 0 0
875 1 89.47 4.489531470869064 0.010036499920665819 -1 0 0
879 1 93.36 4.489531470869061 0.01003649992067553 -1 0 0
776 1 95.30499999999999 1.1206926501480623 0.010036499920668266 -1 0 0
780 1 99.19500000000001 1.1206926501480636 0.010036499920667593 -1 0 0
877 4 95.30499999999999 3.3652493390461427 0.5306093226888817 -1 0 0
881 4 99.19500000000001 3.3652493390461418 0.5306093226888824 -1 0 0
883 1 97.25 4.489531470869064 0.010036499920665836 -1 0 0
886 4 0 6.73408815976714 0.5306093226888801 0 0 0
890 4 3.8900000000000006 6.734088159767141 0.5306093226888823 0 0 0
888 1 1.944999999999999 7.858370291590058 0.010036499920667958 0 0 0
892 1 5.835000000000001 7.858370291590059 0.010036499920667666 0 0 0
989 4 1.944999999999999 10.102926980488144 0.5306093226888838 0 0 0
993 4 5.835000000000001 10.102926980488144 0.5306093226888842 0 0 0
991 1 0 11.227209112311062 0.010036499920671968 0 0 0
995 1 3.8900000000000006 11.227209112311062 0.01003649992066969 0 0 0
894 4 7.780000000000001 6.734088159767141 0.5306093226888822 0 0 0
898 4 11.67 6.73408815976714 0.5306093226888824 0 0 0
896 1 9.725000000000001 7.858370291590059 0.010036499920667715 0 0 0
997 4 9.725000000000001 10.102926980488144 0.5306093226888842 0 0 0
999 1 7.780000000000001 11.227209112311062 0.010036499920669718 0 0 0
1003 1 11.67 11.227209112311062 0.010036499920669488 0 0 0
902 4 15.560000000000006 6.73408815976714 0.5306093226888822 0 0 0
900 1 13.614999999999998 7.858370291590059 0.010036499920665569 0 0 0
904 1 17.504999999999995 7.858370291590059 0.01003649992066781 0 0 0
1001 4 13.614999999999998 10.102926980488144 0.5306093226888862 0 0 0
1005 4 17.504999999999995 10.102926980488144 0.530609322688884 0 0 0
1007 1 15.560000000000006 11.227209112311064 0.01003649992066985 0 0 0
906 4 19.450000000000003 6.73408815976714 0.5306093226888818 0 0 0
910 4 23.340000000000003 6.73408815976714 0.5306093226888818 0 0 0
908 1 21.394999999999996 7.858370291590059 0.010036499920667909 0 0 0
1009 4 21.394999999999996 10.102926980488144 0.5306093226888838 0 0 0
1011 1 19.450000000000003 11.227209112311062 0.01003649992067014 0 0 0
1015 1 23.340000000000003 11.227209112311062 0.010036499920670135 0 0 0
914 4 27.230000000000004 6.73408815976714 0.5306093226888818 0 0 0
912 1 25.284999999999997 7.858370291590059 0.010036499920667926 0 0 0
916 1 29.174999999999997 7.858370291590059 0.010036499920667916 0 0 0
1013 4 25.284999999999997 10.102926980488144 0.5306093226888839 0 0 0
1017 4 29.174999999999997 10.102926980488144 0.5306093226888839 0 0 0
1019 1 27.230000000000004 11.227209112311062 0.010036499920670136 0 0 0
918 4 31.120000000000005 6.73408815976714 0.5306093226888818 0 0 0
922 4 35.010000000000005 6.73408815976714 0.5306093226888818 0 0 0
920 1 33.065 7.858370291590059 0.01003649992066792 0 0 0
1021 4 33.065 10.102926980488144 0.5306093226888839 0 0 0
1023 1 31.120000000000005 11.227209112311062 0.010036499920670135 0 0 0
1027 1 35.010000000000005 11.227209112311062 0.010036499920670135 0 0 0
926 4 38.900000000000006 6.73408815976714 0.5306093226888818 0 0 0
924 1 36.955 7.858370291590059 0.01003649992066792 0 0 0
928 1 40.845 7.858370291590059 0.010036499920667918 0 0 0
1025 4 36.955 10.102926980488144 0.5306093226888839 0 0 0
1029 4 40.845 10.102926980488144 0.5306093226888839 0 0 0
1031 1 38.900000000000006 11.227209112311062 0.010036499920670135 0 0 0
930 4 42.790000000000006 6.73408815976714 0.5306093226888818 0 0 0
934 4 46.68 6.734088159767139 0.5306093226888866 0 0 0
932 1 44.735 7.858370291590059 0.010036499920667488 0 0 0
1033 4 44.735 10.102926980488142 0.5306093226888842 0 0 0
1035 1 42.790000000000006 11.227209112311062 0.0100364999206702 0 0 0
1039 1 46.68 11.227209112311064 0.010036499920665238 0 0 0
834 4 50.56999999999999 6.734088159767141 0.5306093226888796 -1 0 0
936 1 48.62500000000001 7.858370291590059 0.010036499920667706 0 0 0
836 1 52.515 7.858370291590059 0.010036499920667883 -1 0 0
1037 4 48.62500000000001 10.102926980488144 0.530609322688884 0 0 0
937 4 52.515 10.102926980488144 0.5306093226888838 -1 0 0
939 1 50.56999999999999 11.227209112311062 0.010036499920672395 -1 0 0
838 4 54.46 6.734088159767141 0.5306093226888823 -1 0 0
842 4 58.35 6.734088159767141 0.5306093226888822 -1 0 0
840 1 56.405 7.858370291590059 0.010036499920667678 -1 0 0
941 4 56.405 10.102926980488144 0.5306093226888842 -1 0 0
943 1 54.46 11.227209112311062 0.010036499920669687 -1 0 0
947 1 58.35 11.227209112311062 0.01003649992066972 -1 0 0
846 4 62.24 6.734088159767139 0.530609322688883 -1 0 0
844 1 60.295 7.858370291590059 0.010036499920667727 -1 0 0
848 1 64.18499999999999 7.8583702915900595 0.010036499920665434 -1 0 0
945 4 60.295 10.102926980488144 0.530609322688884 -1 0 0
949 4 64.18499999999999 10.102926980488144 0.5306093226888864 -1 0 0
951 1 62.24 11.227209112311064 0.010036499920668962 -1 0 0
850 4 66.13000000000001 6.734088159767141 0.5306093226888816 -1 0 0
854 4 70.02000000000001 6.73408815976714 0.5306093226888818 -1 0 0
852 1 68.07499999999999 7.858370291590059 0.010036499920667944 -1 0 0
953 4 68.07499999999999 10.102926980488144 0.5306093226888839 -1 0 0
955 1 66.13000000000001 11.227209112311062 0.010036499920670384 -1 0 0
959 1 70.02000000000001 11.227209112311062 0.010036499920670142 -1 0 0
858 4 73.91000000000001 6.73408815976714 0.5306093226888818 -1 0 0
856 1 71.96499999999999 7.858370291590059 0.010036499920667918 -1 0 0
860 1 75.85499999999999 7.858370291590059 0.010036499920667925 -1 0 0
957 4 71.96499999999999 10.102926980488144 0.5306093226888839 -1 0 0
961 4 75.85499999999999 10.102926980488144 0.5306093226888839 -1 0 0
963 1 73.91000000000001 11.227209112311062 0.010036499920670142 -1 0 0
862 4 77.80000000000001 6.73408815976714 0.5306093226888818 -1 0 0
866 4 81.69 6.734088159767139 0.5306093226888867 -1 0 0
864 1 79.74499999999999 7.858370291590059 0.010036499920667491 -1 0 0
965 4 79.74499999999999 10.102926980488142 0.5306093226888842 -1 0 0
967 1 77.80000000000001 11.227209112311062 0.010036499920670202 -1 0 0
971 1 81.69 11.227209112311064 0.010036499920665205 -1 0 0
870 4 85.58 6.7340881597671425 0.5306093226888771 -1 0 0
868 1 83.635 7.858370291590059 0.010036499920667876 -1 0 0
872 1 87.52499999999999 7.858370291590059 0.010036499920667883 -1 0 0
969 4 83.635 10.102926980488144 0.5306093226888839 -1 0 0
973 4 87.52499999999999 10.102926980488144 0.5306093226888839 -1 0 0
975 1 85.58 11.22720911231106 0.010036499920674917 -1 0 0
874 4 89.47 6.734088159767139 0.5306093226888867 -1 0 0
878 4 93.36 6.7340881597671425 0.5306093226888771 -1 0 0
876 1 91.415 7.858370291590059 0.010036499920667883 -1 0 0
977 4 91.415 10.102926980488144 0.5306093226888839 -1 0 0
979 1 89.47 11.227209112311064 0.010036499920665135 -1 0 0
983 1 93.36 11.22720911231106 0.010036499920674917 -1 0 0
882 4 97.25 6.734088159767139 0.5306093226888866 -1 0 0
880 1 95.30499999999999 7.858370291590059 0.010036499920667878 -1 0 0
884 1 99.19500000000001 7.8583702915900595 0.010036499920667201 -1 0 0
981 4 95.30499999999999 10.102926980488144 0.5306093226888839 -1 0 0
985 4 99.19500000000001 10.102926980488142 0.5306093226888846 -1 0 0
987 1 97.25 11.227209112311064 0.01003649992066519 -1 0 0
990 4 0 13.471765801209138 0.53060932268888 0 0 0
992 1 1.9449999999999992 14.596047933032056 0.010036499920667907 0 0 0
994 4 3.8900000000000006 13.471765801209138 0.530609322688882 0 0 0
996 1 5.835000000000001 14.596047933032057 0.010036499920667694 0 0 0
1093 4 1.9449999999999992 16.840604621930144 0.5306093226888832 0 0 0
1097 4 5.835000000000001 16.840604621930144 0.5306093226888834 0 0 0
998 4 7.780000000000001 13.471765801209138 0.530609322688882 0 0 0
1000 1 9.725000000000001 14.596047933032057 0.010036499920667743 0 0 0
1002 4 11.67 13.471765801209138 0.5306093226888822 0 0 0
1101 4 9.725000000000001 16.840604621930144 0.5306093226888834 0 0 0
1004 1 13.614999999999998 14.596047933032057 0.010036499920665482 0 0 0
1006 4 15.560000000000006 13.471765801209138 0.530609322688882 0 0 0
1008 1 17.504999999999995 14.596047933032056 0.0100364999206677 0 0 0
1105 4 13.614999999999998 16.840604621930144 0.5306093226888856 0 0 0
1109 4 17.504999999999995 16.840604621930144 0.5306093226888834 0 0 0
1010 4 19.450000000000003 13.471765801209138 0.5306093226888818 0 0 0
1012 1 21.394999999999996 14.596047933032056 0.010036499920667753 0 0 0
1014 4 23.340000000000003 13.471765801209138 0.5306093226888818 0 0 0
1113 4 21.394999999999996 16.840604621930144 0.5306093226888833 0 0 0
1016 1 25.284999999999997 14.596047933032056 0.010036499920667767 0 0 0
1018 4 27.230000000000004 13.471765801209138 0.5306093226888818 0 0 0
1020 1 29.174999999999997 14.596047933032056 0.010036499920667758 0 0 0
1117 4 25.284999999999997 16.840604621930144 0.5306093226888833 0 0 0
1121 4 29.174999999999997 16.840604621930144 0.5306093226888833 0 0 0
1022 4 31.120000000000005 13.471765801209138 0.5306093226888818 0 0 0
1024 1 33.065 14.596047933032056 0.010036499920667762 0 0 0
1026 4 35.010000000000005 13.471765801209138 0.5306093226888818 0 0 0
1125 4 33.065 16.840604621930144 0.5306093226888833 0 0 0
1028 1 36.955 14.596047933032056 0.010036499920667762 0 0 0
1030 4 38.900000000000006 13.471765801209138 0.5306093226888818 0 0 0
1032 1 40.845 14.596047933032056 0.010036499920667762 0 0 0
1129 4 36.955 16.840604621930144 0.5306093226888833 0 0 0
1133 4 40.845 16.840604621930144 0.5306093226888833 0 0 0
1034 4 42.790000000000006 13.471765801209138 0.5306093226888818 0 0 0
1036 1 44.735 14.596047933032057 0.010036499920667382 0 0 0
1038 4 46.68 13.471765801209136 0.5306093226888865 0 0 0
1137 4 44.735 16.840604621930144 0.5306093226888836 0 0 0
1040 1 48.62500000000001 14.596047933032056 0.010036499920667578 0 0 0
938 4 50.56999999999999 13.47176580120914 0.5306093226888796 -1 0 0
940 1 52.515 14.596047933032057 0.010036499920667834 -1 0 0
1141 4 48.62500000000001 16.840604621930144 0.5306093226888834 0 0 0
1041 4 52.515 16.840604621930144 0.5306093226888833 -1 0 0
942 4 54.46 13.471765801209138 0.530609322688882 -1 0 0
944 1 56.405 14.596047933032057 0.010036499920667706 -1 0 0
946 4 58.35 13.471765801209138 0.530609322688882 -1 0 0
1045 4 56.405 16.840604621930144 0.5306093226888834 -1 0 0
948 1 60.295 14.596047933032057 0.010036499920667753 -1 0 0
950 4 62.24 13.471765801209136 0.5306093226888827 -1 0 0
952 1 64.18499999999999 14.596047933032057 0.010036499920665345 -1 0 0
1049 4 60.295 16.840604621930144 0.5306093226888834 -1 0 0
1053 4 64.18499999999999 16.840604621930144 0.5306093226888858 -1 0 0
954 4 66.13000000000001 13.47176580120914 0.5306093226888815 -1 0 0
956 1 68.07499999999999 14.596047933032056 0.01003649992066779 -1 0 0
958 4 70.02000000000001 13.471765801209138 0.5306093226888818 -1 0 0
1057 4 68.07499999999999 16.840604621930144 0.5306093226888833 -1 0 0
960 1 71.96499999999999 14.596047933032056 0.010036499920667758 -1 0 0
962 4 73.91000000000001 13.471765801209138 0.5306093226888818 -1 0 0
964 1 75.85499999999999 14.596047933032056 0.010036499920667769 -1 0 0
1061 4 71.96499999999999 16.840604621930144 0.5306093226888833 -1 0 0
1065 4 75.85499999999999 16.840604621930144 0.5306093226888833 -1 0 0
966 4 77.80000000000001 13.471765801209138 0.5306093226888818 -1 0 0
968 1 79.74499999999999 14.596047933032057 0.010036499920667385 -1 0 0
970 4 81.69 13.471765801209136 0.5306093226888866 -1 0 0
1069 4 79.74499999999999 16.840604621930144 0.5306093226888836 -1 0 0
972 1 83.635 14.596047933032056 0.010036499920667828 -1 0 0
974 4 85.58 13.47176580120914 0.5306093226888771 -1 0 0
976 1 87.52499999999999 14.596047933032056 0.010036499920667831 -1 0 0
1073 4 83.635 16.840604621930144 0.5306093226888832 -1 0 0
1077 4 87.52499999999999 16.840604621930144 0.5306093226888832 -1 0 0
978 4 89.47 13.471765801209136 0.5306093226888866 -1 0 0
980 1 91.415 14.596047933032056 0.010036499920667831 -1 0 0
982 4 93.36 13.47176580120914 0.5306093226888771 -1 0 0
1081 4 91.415 16.840604621930144 0.5306093226888832 -1 0 0
984 1 95.30499999999999 14.596047933032056 0.010036499920667828 -1 0 0
986 4 97.25 13.471765801209136 0.5306093226888866 -1 0 0
988 1 99.19500000000001 14.596047933032057 0.010036499920667111 -1 0 0
1085 4 95.30499999999999 16.840604621930144 0.5306093226888832 -1 0 0
1089 4 99.19500000000001 16.840604621930144 0.5306093226888838 -1 0 0
1095 1 0 17.964886753753067 0.010036499920674343 0 0 0
1099 1 3.8900000000000006 17.964886753753067 0.010036499920672218 0 0 0
1094 4 0 20.209443442651136 0.5306093226888772 0 0 0
1098 4 3.8900000000000006 20.209443442651136 0.5306093226888797 0 0 0
1096 1 1.9449999999999987 21.33372557447406 0.01003649992066886 0 0 0
1100 1 5.835000000000001 21.33372557447406 0.010036499920668542 0 0 0
1197 4 1.944999999999999 23.578282263372145 0.5306093226888845 0 0 0
1201 4 5.835000000000001 23.578282263372145 0.5306093226888847 0 0 0
1103 1 7.780000000000001 17.964886753753067 0.010036499920672256 0 0 0
1107 1 11.67 17.964886753753067 0.010036499920671968 0 0 0
1102 4 7.780000000000001 20.209443442651136 0.5306093226888797 0 0 0
1106 4 11.67 20.209443442651136 0.5306093226888798 0 0 0
1104 1 9.725000000000001 21.33372557447406 0.010036499920668587 0 0 0
1205 4 9.725000000000001 23.578282263372145 0.5306093226888848 0 0 0
1111 1 15.560000000000006 17.964886753753067 0.010036499920672246 0 0 0
1110 4 15.560000000000006 20.209443442651136 0.5306093226888793 0 0 0
1108 1 13.614999999999998 21.33372557447406 0.010036499920666443 0 0 0
1112 1 17.504999999999995 21.33372557447406 0.01003649992066867 0 0 0
1209 4 13.614999999999998 23.578282263372145 0.5306093226888868 0 0 0
1213 4 17.504999999999995 23.578282263372145 0.5306093226888847 0 0 0
1115 1 19.450000000000003 17.964886753753063 0.010036499920672522 0 0 0
1119 1 23.340000000000003 17.964886753753063 0.010036499920672518 0 0 0
1114 4 19.450000000000003 20.209443442651136 0.5306093226888792 0 0 0
1118 4 23.340000000000003 20.209443442651136 0.5306093226888792 0 0 0
1116 1 21.394999999999996 21.33372557447406 0.010036499920668731 0 0 0
1217 4 21.394999999999996 23.578282263372145 0.5306093226888845 0 0 0
1123 1 27.230000000000004 17.964886753753063 0.010036499920672522 0 0 0
1122 4 27.230000000000004 20.209443442651136 0.5306093226888791 0 0 0
1120 1 25.284999999999997 21.33372557447406 0.010036499920668747 0 0 0
1124 1 29.174999999999997 21.33372557447406 0.01003649992066874 0 0 0
1221 4 25.284999999999997 23.578282263372145 0.5306093226888846 0 0 0
1225 4 29.174999999999997 23.578282263372145 0.5306093226888846 0 0 0
1127 1 31.120000000000005 17.964886753753063 0.010036499920672518 0 0 0
1131 1 35.010000000000005 17.964886753753063 0.010036499920672518 0 0 0
1126 4 31.120000000000005 20.209443442651136 0.5306093226888791 0 0 0
1130 4 35.010000000000005 20.209443442651136 0.5306093226888792 0 0 0
1128 1 33.065 21.33372557447406 0.010036499920668742 0 0 0
1229 4 33.065 23.578282263372145 0.5306093226888846 0 0 0
1135 1 38.900000000000006 17.964886753753063 0.01003649992067252 0 0 0
1134 4 38.900000000000006 20.209443442651136 0.5306093226888792 0 0 0
1132 1 36.955 21.33372557447406 0.010036499920668742 0 0 0
1136 1 40.845 21.33372557447406 0.01003649992066874 0 0 0
1233 4 36.955 23.578282263372145 0.5306093226888846 0 0 0
1237 4 40.845 23.578282263372145 0.5306093226888846 0 0 0
1139 1 42.790000000000006 17.964886753753063 0.010036499920672551 0 0 0
1143 1 46.68 17.964886753753067 0.010036499920667737 0 0 0
1138 4 42.790000000000006 20.209443442651136 0.5306093226888791 0 0 0
1142 4 46.68 20.209443442651136 0.530609322688884 0 0 0
1140 1 44.735 21.33372557447406 0.010036499920668351 0 0 0
1241 4 44.735 23.578282263372145 0.530609322688885 0 0 0
1043 1 50.56999999999999 17.964886753753063 0.010036499920674766 -1 0 0
1042 4 50.56999999999999 20.209443442651136 0.5306093226888768 -1 0 0
1144 1 48.62500000000001 21.33372557447406 0.01003649992066858 0 0 0
1044 1 52.515 21.33372557447406 0.010036499920668792 -1 0 0
1245 4 48.62500000000001 23.578282263372145 0.5306093226888848 0 0 0
1145 4 52.515 23.578282263372145 0.5306093226888846 -1 0 0
1047 1 54.46 17.964886753753067 0.010036499920672213 -1 0 0
1051 1 58.35 17.964886753753067 0.010036499920672261 -1 0 0
1046 4 54.46 20.209443442651136 0.5306093226888797 -1 0 0
1050 4 58.35 20.209443442651136 0.5306093226888797 -1 0 0
1048 1 56.405 21.33372557447406 0.01003649992066855 -1 0 0
1149 4 56.405 23.578282263372145 0.5306093226888848 -1 0 0
1055 1 62.24 17.964886753753067 0.010036499920671483 -1 0 0
1054 4 62.24 20.209443442651136 0.5306093226888804 -1 0 0
1052 1 60.295 21.33372557447406 0.0100364999206686 -1 0 0
1056 1 64.18499999999999 21.33372557447406 0.010036499920666297 -1 0 0
1153 4 60.295 23.578282263372145 0.5306093226888848 -1 0 0
1157 4 64.18499999999999 23.578282263372145 0.530609322688887 -1 0 0
1059 1 66.13000000000001 17.964886753753063 0.010036499920672768 -1 0 0
1063 1 70.02000000000001 17.964886753753063 0.010036499920672525 -1 0 0
1058 4 66.13000000000001 20.209443442651136 0.5306093226888788 -1 0 0
1062 4 70.02000000000001 20.209443442651136 0.5306093226888792 -1 0 0
1060 1 68.07499999999999 21.33372557447406 0.01003649992066876 -1 0 0
1161 4 68.07499999999999 23.578282263372145 0.5306093226888846 -1 0 0
1067 1 73.91000000000001 17.964886753753063 0.010036499920672523 -1 0 0
1066 4 73.91000000000001 20.209443442651136 0.5306093226888792 -1 0 0
1064 1 71.96499999999999 21.33372557447406 0.010036499920668738 -1 0 0
1068 1 75.85499999999999 21.33372557447406 0.01003649992066875 -1 0 0
1165 4 71.96499999999999 23.578282263372145 0.5306093226888845 -1 0 0
1169 4 75.85499999999999 23.578282263372145 0.5306093226888846 -1 0 0
1071 1 77.80000000000001 17.964886753753063 0.010036499920672596 -1 0 0
1075 1 81.69 17.964886753753067 0.01003649992066775 -1 0 0
1070 4 77.80000000000001 20.209443442651136 0.5306093226888791 -1 0 0
1074 4 81.69 20.209443442651136 0.530609322688884 -1 0 0
1072 1 79.74499999999999 21.33372557447406 0.010036499920668351 -1 0 0
1173 4 79.74499999999999 23.578282263372145 0.530609322688885 -1 0 0
1079 1 85.58 17.964886753753063 0.010036499920677679 -1 0 0
1078 4 85.58 20.20944344265114 0.5306093226888742 -1 0 0
1076 1 83.635 21.33372557447406 0.010036499920668669 -1 0 0
1080 1 87.52499999999999 21.33372557447406 0.010036499920668672 -1 0 0
1177 4 83.635 23.578282263372145 0.5306093226888846 -1 0 0
1181 4 87.52499999999999 23.578282263372145 0.5306093226888846 -1 0 0
1083 1 89.47 17.964886753753067 0.01003649992066768 -1 0 0
1087 1 93.36 17.964886753753063 0.01003649992067768 -1 0 0
1082 4 89.47 20.209443442651136 0.5306093226888842 -1 0 0
1086 4 93.36 20.20944344265114 0.5306093226888742 -1 0 0
1084 1 91.415 21.33372557447406 0.01003649992066867 -1 0 0
1185 4 91.415 23.578282263372145 0.5306093226888846 -1 0 0
1091 1 97.25 17.964886753753067 0.010036499920667737 -1 0 0
1090 4 97.25 20.209443442651136 0.5306093226888842 -1 0 0
1088 1 95.30499999999999 21.33372557447406 0.010036499920668667 -1 0 0
1092 1 99.19500000000001 21.33372557447406 0.010036499920668067 -1 0 0
1189 4 95.30499999999999 23.578282263372145 0.5306093226888846 -1 0 0
1193 4 99.19500000000001 23.578282263372145 0.5306093226888854 -1 0 0
1199 1 0 24.70256439519506 0.010036499920669038 0 0 0
1203 1 3.8900000000000006 24.70256439519506 0.010036499920666912 0 0 0
1198 4 0 26.947121084093144 0.5306093226888814 0 0 0
1202 4 3.8900000000000006 26.947121084093144 0.5306093226888834 0 0 0
1200 1 1.9449999999999987 28.071403215916067 0.010036499920672562 0 0 0
1204 1 5.835000000000001 28.071403215916067 0.010036499920672213 0 0 0
1207 1 7.780000000000001 24.70256439519506 0.01003649992066694 0 0 0
1211 1 11.67 24.70256439519506 0.010036499920666752 0 0 0
1206 4 7.780000000000001 26.947121084093144 0.5306093226888833 0 0 0
1210 4 11.67 26.947121084093144 0.5306093226888835 0 0 0
1208 1 9.725000000000001 28.071403215916067 0.010036499920672301 0 0 0
1215 1 15.560000000000006 24.70256439519506 0.010036499920666948 0 0 0
1214 4 15.560000000000004 26.947121084093144 0.5306093226888835 0 0 0
1212 1 13.614999999999998 28.071403215916067 0.010036499920670091 0 0 0
1216 1 17.504999999999995 28.071403215916067 0.010036499920672423 0 0 0
1219 1 19.450000000000003 24.702564395195058 0.010036499920667172 0 0 0
1223 1 23.340000000000003 24.702564395195058 0.010036499920667172 0 0 0
1218 4 19.450000000000003 26.947121084093144 0.5306093226888834 0 0 0
1222 4 23.340000000000003 26.947121084093144 0.5306093226888834 0 0 0
1220 1 21.394999999999996 28.071403215916064 0.010036499920672513 0 0 0
1227 1 27.230000000000004 24.702564395195058 0.010036499920667174 0 0 0
1226 4 27.230000000000004 26.947121084093144 0.5306093226888834 0 0 0
1224 1 25.284999999999997 28.071403215916064 0.010036499920672525 0 0 0
1228 1 29.174999999999997 28.071403215916064 0.01003649992067252 0 0 0
1231 1 31.120000000000005 24.702564395195058 0.01003649992066717 0 0 0
1235 1 35.010000000000005 24.702564395195058 0.010036499920667172 0 0 0
1230 4 31.120000000000005 26.947121084093144 0.5306093226888834 0 0 0
1234 4 35.010000000000005 26.947121084093144 0.5306093226888834 0 0 0
1232 1 33.065 28.071403215916064 0.010036499920672522 0 0 0
1239 1 38.900000000000006 24.702564395195058 0.010036499920667175 0 0 0
1238 4 38.900000000000006 26.947121084093144 0.5306093226888834 0 0 0
1236 1 36.955 28.071403215916064 0.010036499920672523 0 0 0
1240 1 40.845 28.071403215916064 0.01003649992067252 0 0 0
1243 1 42.790000000000006 24.702564395195058 0.010036499920667232 0 0 0
1247 1 46.68 24.70256439519506 0.010036499920662436 0 0 0
1242 4 42.790000000000006 26.947121084093144 0.5306093226888833 0 0 0
1246 4 46.68 26.947121084093144 0.530609322688888 0 0 0
1244 1 44.735 28.071403215916067 0.010036499920672088 0 0 0
1147 1 50.56999999999999 24.702564395195058 0.010036499920669458 -1 0 0
1146 4 50.57 26.947121084093148 0.530609322688881 -1 0 0
1248 1 48.62500000000001 28.071403215916067 0.010036499920672286 0 0 0
1148 1 52.515 28.071403215916067 0.01003649992067249 -1 0 0
1151 1 54.46 24.70256439519506 0.010036499920666908 -1 0 0
1155 1 58.35 24.70256439519506 0.010036499920666943 -1 0 0
1150 4 54.46 26.947121084093144 0.5306093226888834 -1 0 0
1154 4 58.35 26.947121084093144 0.5306093226888833 -1 0 0
1152 1 56.405 28.071403215916067 0.010036499920672261 -1 0 0
1159 1 62.24 24.70256439519506 0.010036499920666221 -1 0 0
1158 4 62.24 26.947121084093144 0.530609322688884 -1 0 0
1156 1 60.295 28.071403215916067 0.010036499920672312 -1 0 0
1160 1 64.18499999999999 28.071403215916067 0.010036499920669992 -1 0 0
1163 1 66.13000000000001 24.702564395195058 0.010036499920667444 -1 0 0
1167 1 70.02000000000001 24.702564395195058 0.010036499920667174 -1 0 0
1162 4 66.13000000000001 26.947121084093148 0.530609322688883 -1 0 0
1166 4 70.02000000000001 26.947121084093144 0.5306093226888834 -1 0 0
1164 1 68.07499999999999 28.071403215916064 0.010036499920672556 -1 0 0
1171 1 73.91000000000001 24.702564395195058 0.010036499920667175 -1 0 0
1170 4 73.91000000000001 26.947121084093144 0.5306093226888834 -1 0 0
1168 1 71.96499999999999 28.071403215916064 0.01003649992067252 -1 0 0
1172 1 75.85499999999999 28.071403215916064 0.010036499920672529 -1 0 0
1175 1 77.80000000000001 24.702564395195058 0.010036499920667236 -1 0 0
1179 1 81.69 24.70256439519506 0.010036499920662403 -1 0 0
1174 4 77.80000000000001 26.947121084093144 0.5306093226888833 -1 0 0
1178 4 81.69 26.947121084093144 0.530609322688888 -1 0 0
1176 1 79.74499999999999 28.071403215916067 0.010036499920672085 -1 0 0
1183 1 85.58 24.702564395195058 0.010036499920672069 -1 0 0
1182 4 85.58 26.947121084093148 0.5306093226888785 -1 0 0
1180 1 83.635 28.071403215916064 0.010036499920672525 -1 0 0
1184 1 87.52499999999999 28.071403215916064 0.010036499920672527 -1 0 0
1187 1 89.47 24.70256439519506 0.01003649992066234 -1 0 0
1191 1 93.36 24.702564395195058 0.01003649992067207 -1 0 0
1186 4 89.47 26.947121084093144 0.530609322688888 -1 0 0
1190 4 93.36 26.947121084093148 0.5306093226888785 -1 0 0
1188 1 91.415 28.071403215916064 0.010036499920672525 -1 0 0
1195 1 97.25 24.70256439519506 0.010036499920662387 -1 0 0
1194 4 97.25 26.947121084093144 0.530609322688888 -1 0 0
1192 1 95.30499999999999 28.071403215916064 0.010036499920672525 -1 0 0
1196 1 99.19500000000001 28.071403215916067 0.010036499920671776 -1 0 0
1303 1 0 31.44024203663706 0.01003649992067098 0 0 0
1301 4 1.9449999999999987 30.31595990481414 0.5306093226888793 0 0 0
1307 1 3.8900000000000006 31.44024203663706 0.010036499920668514 0 0 0
1305 4 5.835000000000001 30.31595990481414 0.5306093226888796 0 0 0
1302 4 0 33.684798725535146 0.5306093226888826 0 0 0
1306 4 3.8900000000000006 33.684798725535146 0.5306093226888848 0 0 0
1304 1 1.9449999999999994 34.80908085735806 0.010036499920667075 0 0 0
1308 1 5.835000000000001 34.80908085735806 0.010036499920666934 0 0 0
1311 1 7.780000000000001 31.44024203663706 0.010036499920668542 0 0 0
1309 4 9.725000000000001 30.31595990481414 0.5306093226888796 0 0 0
1315 1 11.67 31.44024203663706 0.010036499920668362 0 0 0
1310 4 7.780000000000001 33.684798725535146 0.5306093226888848 0 0 0