LAMMPS data file via write_data, version 29 Aug 2024, timestep = 2, units = metal

3120 atoms
4 atom types

0 101.14 xlo xhi
0 101.06516462163 ylo yhi
-50 110.54910406713165 zlo zhi

Masses

1 28.085
2 28.085
3 72.63
4 72.63

Atoms # atomic

784 1 1.9449999999999987 1.1204967663941856 0.010154582651259935 0 0 0
788 1 5.835000000000001 1.1204967663941858 0.01015458265125956 0 0 0
885 3 1.9449999999999987 3.3650413264874435 0.5291409323807214 0 0 0
889 3 5.835000000000001 3.365041326487443 0.5291409323807216 0 0 0
887 1 0 4.489335587115185 0.010154582651264512 0 0 0
891 1 3.8900000000000006 4.489335587115185 0.010154582651262014 0 0 0
792 1 9.725000000000001 1.1204967663941858 0.010154582651259611 0 0 0
893 3 9.725000000000001 3.365041326487443 0.5291409323807217 0 0 0
895 1 7.780000000000001 4.489335587115185 0.010154582651262047 0 0 0
899 1 11.67 4.489335587115186 0.010154582651261857 0 0 0
796 1 13.614999999999998 1.1204967663941865 0.010154582651257245 0 0 0
800 1 17.504999999999995 1.1204967663941856 0.01015458265126004 0 0 0
897 3 13.614999999999998 3.3650413264874426 0.5291409323807239 0 0 0
901 3 17.504999999999995 3.3650413264874435 0.5291409323807212 0 0 0
903 1 15.560000000000004 4.489335587115186 0.010154582651261925 0 0 0
804 1 21.394999999999996 1.1204967663941858 0.010154582651259864 0 0 0
905 3 21.394999999999996 3.365041326487443 0.5291409323807212 0 0 0
907 1 19.450000000000003 4.489335587115185 0.010154582651262437 0 0 0
911 1 23.340000000000003 4.489335587115185 0.0101545826512624 0 0 0
808 1 25.284999999999997 1.1204967663941858 0.010154582651259883 0 0 0
812 1 29.174999999999997 1.1204967663941858 0.010154582651259864 0 0 0
909 3 25.284999999999997 3.365041326487443 0.5291409323807214 0 0 0
913 3 29.174999999999997 3.365041326487443 0.5291409323807214 0 0 0
915 1 27.230000000000004 4.489335587115185 0.010154582651262446 0 0 0
816 1 33.065 1.1204967663941863 0.010154582651259606 0 0 0
917 3 33.065 3.3650413264874426 0.5291409323807216 0 0 0
919 1 31.120000000000008 4.489335587115185 0.01015458265126272 0 0 0
923 1 35.010000000000005 4.489335587115185 0.010154582651262421 0 0 0
820 1 36.955 1.1204967663941858 0.010154582651259826 0 0 0
824 1 40.845 1.1204967663941858 0.010154582651259826 0 0 0
921 3 36.955 3.365041326487443 0.5291409323807214 0 0 0
925 3 40.845 3.365041326487443 0.5291409323807214 0 0 0
927 1 38.900000000000006 4.489335587115185 0.01015458265126241 0 0 0
828 1 44.73499999999999 1.1204967663941865 0.010154582651259472 0 0 0
929 3 44.73499999999999 3.3650413264874426 0.5291409323807216 0 0 0
931 1 42.790000000000006 4.489335587115185 0.01015458265126248 0 0 0
935 1 46.68 4.489335587115187 0.010154582651257132 0 0 0
832 1 48.62500000000001 1.120496766394186 0.010154582651259717 0 0 0
732 1 52.515 1.1204967663941858 0.010154582651259814 -1 0 0
933 3 48.62500000000001 3.365041326487443 0.5291409323807215 0 0 0
833 3 52.515 3.365041326487443 0.5291409323807215 -1 0 0
835 1 50.56999999999999 4.4893355871151845 0.010154582651264912 -1 0 0
736 1 56.405 1.1204967663941858 0.010154582651259566 -1 0 0
837 3 56.405 3.365041326487443 0.5291409323807217 -1 0 0
839 1 54.46 4.489335587115185 0.010154582651262015 -1 0 0
843 1 58.35 4.489335587115185 0.010154582651262047 -1 0 0
740 1 60.295 1.1204967663941858 0.010154582651259616 -1 0 0
744 1 64.18499999999999 1.1204967663941865 0.010154582651257179 -1 0 0
841 3 60.295 3.365041326487443 0.5291409323807216 -1 0 0
845 3 64.18499999999999 3.3650413264874426 0.529140932380724 -1 0 0
847 1 62.24 4.489335587115187 0.01015458265126132 -1 0 0
748 1 68.07499999999999 1.1204967663941858 0.010154582651259852 -1 0 0
849 3 68.07499999999999 3.365041326487443 0.5291409323807214 -1 0 0
851 1 66.13000000000001 4.4893355871151845 0.010154582651262742 -1 0 0
855 1 70.02000000000001 4.489335587115185 0.010154582651262416 -1 0 0
752 1 71.96499999999999 1.1204967663941858 0.010154582651259826 -1 0 0
756 1 75.85499999999999 1.1204967663941858 0.01015458265125983 -1 0 0
853 3 71.96499999999999 3.365041326487443 0.5291409323807214 -1 0 0
857 3 75.85499999999999 3.365041326487443 0.5291409323807214 -1 0 0
859 1 73.91000000000001 4.489335587115185 0.010154582651262414 -1 0 0
760 1 79.74499999999999 1.1204967663941865 0.010154582651259472 -1 0 0
861 3 79.74499999999999 3.3650413264874426 0.5291409323807216 -1 0 0
863 1 77.80000000000001 4.489335587115185 0.010154582651262484 -1 0 0
867 1 81.69 4.489335587115187 0.010154582651257096 -1 0 0
764 1 83.635 1.1204967663941858 0.010154582651259918 -1 0 0
768 1 87.52499999999999 1.1204967663941858 0.01015458265125992 -1 0 0
865 3 83.635 3.365041326487443 0.5291409323807214 -1 0 0
869 3 87.52499999999999 3.365041326487443 0.5291409323807214 -1 0 0
871 1 85.58 4.489335587115184 0.010154582651267733 -1 0 0
772 1 91.415 1.1204967663941858 0.01015458265125992 -1 0 0
873 3 91.415 3.365041326487443 0.5291409323807214 -1 0 0
875 1 89.47 4.489335587115187 0.010154582651257025 -1 0 0
879 1 93.36 4.489335587115184 0.010154582651267733 -1 0 0
776 1 95.30499999999999 1.1204967663941858 0.010154582651259916 -1 0 0
780 1 99.19500000000001 1.120496766394187 0.010154582651259198 -1 0 0
877 3 95.30499999999999 3.365041326487443 0.5291409323807214 -1 0 0
881 3 99.19500000000001 3.365041326487442 0.529140932380722 -1 0 0
883 1 97.25 4.489335587115187 0.010154582651257082 -1 0 0
886 3 0 6.73388014720844 0.5291409323807195 0 0 0
890 3 3.8900000000000006 6.73388014720844 0.5291409323807219 0 0 0
888 1 1.9449999999999987 7.858174407836182 0.010154582651259507 0 0 0
892 1 5.835000000000001 7.858174407836182 0.010154582651259191 0 0 0
989 3 1.9449999999999987 10.102718967929444 0.5291409323807237 0 0 0
993 3 5.835000000000001 10.102718967929444 0.5291409323807239 0 0 0
991 1 0 11.227013228557185 0.010154582651263679 0 0 0
995 1 3.8900000000000006 11.227013228557187 0.010154582651261375 0 0 0
894 3 7.780000000000001 6.73388014720844 0.5291409323807219 0 0 0
898 3 11.67 6.73388014720844 0.529140932380722 0 0 0
896 1 9.725000000000001 7.858174407836182 0.010154582651259285 0 0 0
997 3 9.725000000000001 10.102718967929444 0.529140932380724 0 0 0
999 1 7.780000000000001 11.227013228557185 0.010154582651261412 0 0 0
1003 1 11.67 11.227013228557187 0.010154582651261183 0 0 0
902 3 15.560000000000004 6.733880147208439 0.529140932380722 0 0 0
900 1 13.614999999999998 7.858174407836183 0.010154582651256953 0 0 0
904 1 17.504999999999995 7.858174407836182 0.01015458265125959 0 0 0
1001 3 13.614999999999998 10.102718967929444 0.5291409323807262 0 0 0
1005 3 17.504999999999995 10.102718967929444 0.5291409323807235 0 0 0
1007 1 15.560000000000004 11.227013228557187 0.010154582651261243 0 0 0
906 3 19.450000000000003 6.73388014720844 0.5291409323807216 0 0 0
910 3 23.340000000000003 6.73388014720844 0.5291409323807216 0 0 0
908 1 21.394999999999996 7.858174407836182 0.010154582651259417 0 0 0
1009 3 21.394999999999996 10.102718967929444 0.5291409323807236 0 0 0
1011 1 19.450000000000003 11.227013228557185 0.010154582651261708 0 0 0
1015 1 23.340000000000003 11.227013228557185 0.010154582651261713 0 0 0
914 3 27.230000000000004 6.73388014720844 0.5291409323807216 0 0 0
912 1 25.284999999999997 7.858174407836182 0.010154582651259432 0 0 0
916 1 29.174999999999997 7.858174407836182 0.010154582651259413 0 0 0
1013 3 25.284999999999997 10.102718967929444 0.5291409323807236 0 0 0
1017 3 29.174999999999997 10.102718967929444 0.5291409323807236 0 0 0
1019 1 27.230000000000004 11.227013228557185 0.010154582651261713 0 0 0
918 3 31.120000000000008 6.733880147208441 0.5291409323807212 0 0 0
922 3 35.010000000000005 6.73388014720844 0.5291409323807215 0 0 0
920 1 33.065 7.858174407836182 0.010154582651259203 0 0 0
1021 3 33.065 10.102718967929444 0.5291409323807239 0 0 0
1023 1 31.120000000000008 11.227013228557185 0.010154582651261993 0 0 0
1027 1 35.010000000000005 11.227013228557185 0.010154582651261687 0 0 0
926 3 38.900000000000006 6.73388014720844 0.5291409323807215 0 0 0
924 1 36.955 7.858174407836182 0.010154582651259467 0 0 0
928 1 40.845 7.858174407836182 0.01015458265125947 0 0 0
1025 3 36.955 10.102718967929444 0.5291409323807236 0 0 0
1029 3 40.845 10.102718967929444 0.5291409323807237 0 0 0
1031 1 38.900000000000006 11.227013228557185 0.010154582651261675 0 0 0
930 3 42.790000000000006 6.73388014720844 0.5291409323807215 0 0 0
934 3 46.68 6.733880147208438 0.5291409323807268 0 0 0
932 1 44.73499999999999 7.858174407836183 0.010154582651259219 0 0 0
1033 3 44.735 10.102718967929444 0.529140932380724 0 0 0
1035 1 42.790000000000006 11.227013228557185 0.010154582651261667 0 0 0
1039 1 46.68 11.227013228557189 0.010154582651256452 0 0 0
834 3 50.56999999999999 6.733880147208441 0.529140932380719 -1 0 0
936 1 48.62500000000001 7.858174407836183 0.01015458265125941 0 0 0
836 1 52.515 7.858174407836182 0.0101545826512594 -1 0 0
1037 3 48.62500000000001 10.102718967929444 0.5291409323807237 0 0 0
937 3 52.515 10.102718967929444 0.5291409323807238 -1 0 0
939 1 50.56999999999999 11.227013228557185 0.010154582651264035 -1 0 0
838 3 54.46 6.73388014720844 0.5291409323807219 -1 0 0
842 3 58.35 6.73388014720844 0.5291409323807219 -1 0 0
840 1 56.405 7.858174407836182 0.010154582651259205 -1 0 0
941 3 56.405 10.102718967929444 0.529140932380724 -1 0 0
943 1 54.46 11.227013228557187 0.010154582651261373 -1 0 0
947 1 58.35 11.227013228557185 0.010154582651261406 -1 0 0
846 3 62.24 6.733880147208439 0.5291409323807226 -1 0 0
844 1 60.295 7.858174407836182 0.010154582651259252 -1 0 0
848 1 64.18499999999999 7.858174407836183 0.010154582651256808 -1 0 0
945 3 60.295 10.102718967929444 0.5291409323807239 -1 0 0
949 3 64.18499999999999 10.102718967929444 0.5291409323807263 -1 0 0
951 1 62.24 11.227013228557187 0.010154582651260685 -1 0 0
850 3 66.13000000000001 6.733880147208441 0.5291409323807211 -1 0 0
854 3 70.02000000000001 6.73388014720844 0.5291409323807215 -1 0 0
852 1 68.07499999999999 7.858174407836182 0.010154582651259497 -1 0 0
953 3 68.07499999999999 10.102718967929444 0.5291409323807236 -1 0 0
955 1 66.13000000000001 11.227013228557185 0.010154582651262015 -1 0 0
959 1 70.02000000000001 11.227013228557185 0.010154582651261684 -1 0 0
858 3 73.91000000000001 6.73388014720844 0.5291409323807215 -1 0 0
856 1 71.96499999999999 7.858174407836182 0.010154582651259469 -1 0 0
860 1 75.85499999999999 7.858174407836182 0.01015458265125948 -1 0 0
957 3 71.96499999999999 10.102718967929444 0.5291409323807236 -1 0 0
961 3 75.85499999999999 10.102718967929444 0.5291409323807237 -1 0 0
963 1 73.91000000000001 11.227013228557185 0.010154582651261684 -1 0 0
862 3 77.80000000000001 6.73388014720844 0.5291409323807215 -1 0 0
866 3 81.69 6.733880147208438 0.5291409323807269 -1 0 0
864 1 79.74499999999999 7.858174407836183 0.010154582651259226 -1 0 0
965 3 79.74499999999999 10.102718967929444 0.529140932380724 -1 0 0
967 1 77.80000000000001 11.227013228557185 0.010154582651261668 -1 0 0
971 1 81.69 11.227013228557189 0.01015458265125646 -1 0 0
870 3 85.58 6.733880147208442 0.5291409323807162 -1 0 0
868 1 83.635 7.858174407836182 0.010154582651259455 -1 0 0
872 1 87.52499999999999 7.858174407836182 0.010154582651259458 -1 0 0
969 3 83.635 10.102718967929444 0.5291409323807236 -1 0 0
973 3 87.52499999999999 10.102718967929444 0.5291409323807236 -1 0 0
975 1 85.58 11.227013228557185 0.010154582651267053 -1 0 0
874 3 89.47 6.733880147208438 0.5291409323807269 -1 0 0
878 3 93.36 6.733880147208442 0.5291409323807162 -1 0 0
876 1 91.415 7.858174407836182 0.010154582651259458 -1 0 0
977 3 91.415 10.102718967929444 0.5291409323807236 -1 0 0
979 1 89.47 11.227013228557189 0.010154582651256426 -1 0 0
983 1 93.36 11.227013228557185 0.010154582651267053 -1 0 0
882 3 97.25 6.733880147208438 0.5291409323807269 -1 0 0
880 1 95.30499999999999 7.858174407836182 0.010154582651259455 -1 0 0
884 1 99.19500000000001 7.8581744078361835 0.010154582651258898 -1 0 0
981 3 95.30499999999999 10.102718967929444 0.5291409323807236 -1 0 0
985 3 99.19500000000001 10.102718967929444 0.5291409323807242 -1 0 0
987 1 97.25 11.227013228557189 0.010154582651256442 -1 0 0
990 3 0 13.471557788650438 0.5291409323807194 0 0 0
992 1 1.9449999999999987 14.59585204927818 0.010154582651259599 0 0 0
994 3 3.8900000000000006 13.471557788650438 0.5291409323807218 0 0 0
996 1 5.835000000000001 14.59585204927818 0.01015458265125924 0 0 0
1093 3 1.9449999999999987 16.840396609371446 0.5291409323807227 0 0 0
1097 3 5.835000000000001 16.840396609371446 0.529140932380723 0 0 0
998 3 7.780000000000001 13.471557788650438 0.5291409323807217 0 0 0
1000 1 9.725000000000001 14.59585204927818 0.010154582651259333 0 0 0
1002 3 11.67 13.471557788650436 0.5291409323807219 0 0 0
1101 3 9.725000000000001 16.840396609371446 0.5291409323807231 0 0 0
1004 1 13.614999999999998 14.59585204927818 0.010154582651256999 0 0 0
1006 3 15.560000000000004 13.471557788650436 0.5291409323807219 0 0 0
1008 1 17.504999999999995 14.59585204927818 0.010154582651259722 0 0 0
1105 3 13.614999999999998 16.840396609371446 0.5291409323807253 0 0 0
1109 3 17.504999999999995 16.840396609371446 0.5291409323807228 0 0 0
1010 3 19.450000000000003 13.471557788650438 0.5291409323807215 0 0 0
1012 1 21.394999999999996 14.59585204927818 0.010154582651259547 0 0 0
1014 3 23.340000000000003 13.471557788650438 0.5291409323807215 0 0 0
1113 3 21.394999999999996 16.840396609371446 0.5291409323807228 0 0 0
1016 1 25.284999999999997 14.59585204927818 0.010154582651259562 0 0 0
1018 3 27.230000000000004 13.471557788650438 0.5291409323807215 0 0 0
1020 1 29.174999999999997 14.59585204927818 0.010154582651259543 0 0 0
1117 3 25.284999999999997 16.840396609371446 0.5291409323807228 0 0 0
1121 3 29.174999999999997 16.840396609371446 0.5291409323807228 0 0 0
1022 3 31.120000000000008 13.471557788650438 0.5291409323807211 0 0 0
1024 1 33.065 14.59585204927818 0.010154582651259292 0 0 0
1026 3 35.010000000000005 13.471557788650438 0.5291409323807215 0 0 0
1125 3 33.065 16.840396609371446 0.529140932380723 0 0 0
1028 1 36.955 14.59585204927818 0.010154582651259517 0 0 0
1030 3 38.900000000000006 13.471557788650438 0.5291409323807215 0 0 0
1032 1 40.845 14.59585204927818 0.010154582651259517 0 0 0
1129 3 36.955 16.840396609371446 0.5291409323807228 0 0 0
1133 3 40.845 16.840396609371446 0.5291409323807228 0 0 0
1034 3 42.790000000000006 13.471557788650438 0.5291409323807215 0 0 0
1036 1 44.73499999999999 14.59585204927818 0.010154582651259125 0 0 0
1038 3 46.68 13.471557788650436 0.5291409323807267 0 0 0
1137 3 44.73499999999999 16.840396609371446 0.5291409323807232 0 0 0
1040 1 48.62500000000001 14.59585204927818 0.010154582651259354 0 0 0
938 3 50.56999999999999 13.471557788650438 0.5291409323807189 -1 0 0
940 1 52.515 14.59585204927818 0.010154582651259493 -1 0 0
1141 3 48.62500000000001 16.840396609371446 0.5291409323807231 0 0 0
1041 3 52.515 16.840396609371446 0.5291409323807228 -1 0 0
942 3 54.46 13.471557788650438 0.5291409323807218 -1 0 0
944 1 56.405 14.59585204927818 0.010154582651259295 -1 0 0
946 3 58.35 13.471557788650438 0.5291409323807217 -1 0 0
1045 3 56.405 16.840396609371446 0.5291409323807231 -1 0 0
948 1 60.295 14.59585204927818 0.010154582651259344 -1 0 0
950 3 62.24 13.471557788650436 0.5291409323807225 -1 0 0
952 1 64.18499999999999 14.59585204927818 0.010154582651256887 -1 0 0
1049 3 60.295 16.840396609371446 0.529140932380723 -1 0 0
1053 3 64.18499999999999 16.840396609371446 0.5291409323807255 -1 0 0
954 3 66.13000000000001 13.471557788650438 0.5291409323807211 -1 0 0
956 1 68.07499999999999 14.59585204927818 0.010154582651259542 -1 0 0
958 3 70.02000000000001 13.471557788650438 0.5291409323807215 -1 0 0
1057 3 68.07499999999999 16.840396609371446 0.5291409323807228 -1 0 0
960 1 71.96499999999999 14.59585204927818 0.010154582651259516 -1 0 0
962 3 73.91000000000001 13.471557788650438 0.5291409323807215 -1 0 0
964 1 75.85499999999999 14.59585204927818 0.010154582651259524 -1 0 0
1061 3 71.96499999999999 16.840396609371446 0.5291409323807228 -1 0 0
1065 3 75.85499999999999 16.840396609371446 0.5291409323807228 -1 0 0
966 3 77.80000000000001 13.471557788650438 0.5291409323807215 -1 0 0
968 1 79.74499999999999 14.59585204927818 0.010154582651259125 -1 0 0
970 3 81.69 13.471557788650436 0.5291409323807267 -1 0 0
1069 3 79.74499999999999 16.840396609371446 0.5291409323807232 -1 0 0
972 1 83.635 14.59585204927818 0.010154582651259536 -1 0 0
974 3 85.58 13.47155778865044 0.5291409323807162 -1 0 0
976 1 87.52499999999999 14.59585204927818 0.010154582651259542 -1 0 0
1073 3 83.635 16.840396609371446 0.5291409323807229 -1 0 0
1077 3 87.52499999999999 16.840396609371446 0.529140932380723 -1 0 0
978 3 89.47 13.471557788650436 0.5291409323807267 -1 0 0
980 1 91.415 14.59585204927818 0.010154582651259542 -1 0 0
982 3 93.36 13.47155778865044 0.5291409323807162 -1 0 0
1081 3 91.415 16.840396609371446 0.529140932380723 -1 0 0
984 1 95.30499999999999 14.59585204927818 0.010154582651259536 -1 0 0
986 3 97.25 13.471557788650436 0.5291409323807267 -1 0 0
988 1 99.19500000000001 14.59585204927818 0.01015458265125884 -1 0 0
1085 3 95.30499999999999 16.840396609371446 0.5291409323807229 -1 0 0
1089 3 99.19500000000001 16.840396609371446 0.5291409323807236 -1 0 0
1095 1 0 17.964690869999192 0.010154582651266534 0 0 0
1099 1 3.8900000000000006 17.964690869999192 0.010154582651263828 0 0 0
1094 3 0 20.209235430092438 0.5291409323807168 0 0 0
1098 3 3.8900000000000006 20.209235430092438 0.5291409323807191 0 0 0
1096 1 1.944999999999999 21.333529690720184 0.010154582651260504 0 0 0
1100 1 5.835000000000001 21.333529690720184 0.010154582651260262 0 0 0
1197 3 1.9449999999999992 23.578074250813447 0.5291409323807245 0 0 0
1201 3 5.835000000000001 23.578074250813447 0.5291409323807246 0 0 0
1103 1 7.780000000000001 17.964690869999192 0.010154582651263863 0 0 0
1107 1 11.67 17.964690869999192 0.01015458265126395 0 0 0
1102 3 7.780000000000001 20.209235430092438 0.5291409323807191 0 0 0
1106 3 11.67 20.209235430092438 0.5291409323807192 0 0 0
1104 1 9.725000000000001 21.333529690720184 0.010154582651260192 0 0 0
1205 3 9.725000000000001 23.578074250813447 0.5291409323807246 0 0 0
1111 1 15.560000000000004 17.964690869999192 0.010154582651263934 0 0 0
1110 3 15.560000000000004 20.209235430092438 0.5291409323807192 0 0 0
1108 1 13.614999999999998 21.333529690720184 0.010154582651257757 0 0 0
1112 1 17.504999999999995 21.333529690720184 0.010154582651260428 0 0 0
1209 3 13.614999999999998 23.578074250813444 0.5291409323807269 0 0 0
1213 3 17.504999999999995 23.578074250813447 0.5291409323807243 0 0 0
1115 1 19.450000000000003 17.964690869999192 0.010154582651264392 0 0 0
1119 1 23.340000000000003 17.964690869999192 0.010154582651264394 0 0 0
1114 3 19.450000000000003 20.209235430092438 0.5291409323807188 0 0 0
1118 3 23.340000000000003 20.209235430092438 0.5291409323807188 0 0 0
1116 1 21.394999999999996 21.333529690720184 0.010154582651260244 0 0 0
1217 3 21.394999999999996 23.578074250813447 0.5291409323807243 0 0 0
1123 1 27.230000000000004 17.964690869999192 0.010154582651264395 0 0 0
1122 3 27.230000000000004 20.209235430092438 0.5291409323807188 0 0 0
1120 1 25.284999999999997 21.333529690720184 0.010154582651260258 0 0 0
1124 1 29.174999999999997 21.333529690720184 0.01015458265126024 0 0 0
1221 3 25.284999999999997 23.578074250813447 0.5291409323807243 0 0 0
1225 3 29.174999999999997 23.578074250813447 0.5291409323807243 0 0 0
1127 1 31.120000000000008 17.964690869999192 0.010154582651264671 0 0 0
1131 1 35.010000000000005 17.964690869999192 0.010154582651264454 0 0 0
1126 3 31.120000000000008 20.209235430092438 0.5291409323807185 0 0 0
1130 3 35.010000000000005 20.209235430092438 0.5291409323807187 0 0 0
1128 1 33.065 21.333529690720184 0.010154582651260029 0 0 0
1229 3 33.065 23.578074250813447 0.5291409323807246 0 0 0
1135 1 38.900000000000006 17.964690869999192 0.010154582651264444 0 0 0
1134 3 38.900000000000006 20.209235430092438 0.5291409323807188 0 0 0
1132 1 36.955 21.333529690720184 0.0101545826512603 0 0 0
1136 1 40.845 21.333529690720184 0.010154582651260288 0 0 0
1233 3 36.955 23.578074250813447 0.5291409323807243 0 0 0
1237 3 40.845 23.578074250813447 0.5291409323807243 0 0 0
1139 1 42.790000000000006 17.964690869999192 0.01015458265126452 0 0 0
1143 1 46.68 17.964690869999192 0.010154582651258931 0 0 0
1138 3 42.790000000000006 20.209235430092438 0.5291409323807188 0 0 0
1142 3 46.68 20.209235430092434 0.5291409323807242 0 0 0
1140 1 44.735 21.333529690720184 0.010154582651259982 0 0 0
1241 3 44.73499999999999 23.578074250813444 0.5291409323807245 0 0 0
1043 1 50.56999999999999 17.964690869999192 0.010154582651266883 -1 0 0
1042 3 50.56999999999999 20.209235430092438 0.5291409323807164 -1 0 0
1144 1 48.62500000000001 21.333529690720184 0.01015458265126018 0 0 0
1044 1 52.515 21.333529690720184 0.010154582651260395 -1 0 0
1245 3 48.62500000000001 23.578074250813444 0.5291409323807243 0 0 0
1145 3 52.515 23.578074250813447 0.5291409323807246 -1 0 0
1047 1 54.46 17.964690869999192 0.010154582651263826 -1 0 0
1051 1 58.35 17.964690869999192 0.010154582651263861 -1 0 0
1046 3 54.46 20.209235430092438 0.5291409323807191 -1 0 0
1050 3 58.35 20.209235430092438 0.529140932380719 -1 0 0
1048 1 56.405 21.333529690720184 0.010154582651260268 -1 0 0
1149 3 56.405 23.578074250813447 0.5291409323807246 -1 0 0
1055 1 62.24 17.964690869999192 0.010154582651263415 -1 0 0
1054 3 62.24 20.209235430092438 0.5291409323807197 -1 0 0
1052 1 60.295 21.333529690720184 0.010154582651260204 -1 0 0
1056 1 64.18499999999999 21.333529690720184 0.010154582651257606 -1 0 0
1153 3 60.295 23.578074250813447 0.5291409323807246 -1 0 0
1157 3 64.18499999999999 23.578074250813444 0.5291409323807272 -1 0 0
1059 1 66.13000000000001 17.964690869999192 0.010154582651264742 -1 0 0
1063 1 70.02000000000001 17.964690869999192 0.010154582651264453 -1 0 0
1058 3 66.13000000000001 20.209235430092438 0.5291409323807185 -1 0 0
1062 3 70.02000000000001 20.209235430092438 0.5291409323807188 -1 0 0
1060 1 68.07499999999999 21.333529690720184 0.010154582651260338 -1 0 0
1161 3 68.07499999999999 23.578074250813447 0.5291409323807245 -1 0 0
1067 1 73.91000000000001 17.964690869999192 0.010154582651264451 -1 0 0
1066 3 73.91000000000001 20.209235430092438 0.5291409323807188 -1 0 0
1064 1 71.96499999999999 21.333529690720184 0.010154582651260301 -1 0 0
1068 1 75.85499999999999 21.333529690720184 0.010154582651260298 -1 0 0
1165 3 71.96499999999999 23.578074250813447 0.5291409323807243 -1 0 0
1169 3 75.85499999999999 23.578074250813447 0.5291409323807243 -1 0 0
1071 1 77.80000000000001 17.964690869999192 0.010154582651264525 -1 0 0
1075 1 81.69 17.964690869999192 0.010154582651258874 -1 0 0
1070 3 77.80000000000001 20.209235430092438 0.5291409323807188 -1 0 0
1074 3 81.69 20.209235430092434 0.5291409323807241 -1 0 0
1072 1 79.74499999999999 21.333529690720184 0.01015458265126 -1 0 0
1173 3 79.74499999999999 23.578074250813444 0.5291409323807245 -1 0 0
1079 1 85.58 17.96469086999919 0.010154582651269655 -1 0 0
1078 3 85.58 20.209235430092438 0.5291409323807132 -1 0 0
1076 1 83.635 21.333529690720184 0.010154582651260452 -1 0 0
1080 1 87.52499999999999 21.333529690720184 0.010154582651260471 -1 0 0
1177 3 83.635 23.578074250813447 0.5291409323807246 -1 0 0
1181 3 87.52499999999999 23.578074250813447 0.5291409323807245 -1 0 0
1083 1 89.47 17.964690869999192 0.010154582651258782 -1 0 0
1087 1 93.36 17.96469086999919 0.010154582651269657 -1 0 0
1082 3 89.47 20.209235430092434 0.5291409323807239 -1 0 0
1086 3 93.36 20.209235430092438 0.5291409323807132 -1 0 0
1084 1 91.415 21.333529690720184 0.01015458265126047 -1 0 0
1185 3 91.415 23.578074250813447 0.5291409323807245 -1 0 0
1091 1 97.25 17.964690869999192 0.01015458265125886 -1 0 0
1090 3 97.25 20.209235430092434 0.5291409323807241 -1 0 0
1088 1 95.30499999999999 21.333529690720184 0.01015458265126045 -1 0 0
1092 1 99.19500000000001 21.333529690720184 0.01015458265125972 -1 0 0
1189 3 95.30499999999999 23.578074250813447 0.5291409323807246 -1 0 0
1193 3 99.19500000000001 23.578074250813444 0.5291409323807249 -1 0 0
1199 1 0 24.702368511441183 0.010154582651260772 0 0 0
1203 1 3.8900000000000006 24.702368511441183 0.010154582651258438 0 0 0
1198 3 0 26.946913071534446 0.5291409323807205 0 0 0
1202 3 3.8900000000000006 26.946913071534446 0.5291409323807231 0 0 0
1200 1 1.9449999999999987 28.07120733216219 0.010154582651264184 0 0 0
1204 1 5.835000000000001 28.071207332162192 0.010154582651263856 0 0 0
1207 1 7.780000000000001 24.702368511441183 0.01015458265125848 0 0 0
1211 1 11.67 24.702368511441186 0.01015458265125823 0 0 0
1206 3 7.780000000000001 26.946913071534446 0.5291409323807231 0 0 0
1210 3 11.67 26.946913071534446 0.5291409323807234 0 0 0
1208 1 9.725000000000001 28.071207332162192 0.010154582651263904 0 0 0
1215 1 15.560000000000004 24.702368511441183 0.010154582651258223 0 0 0
1214 3 15.560000000000004 26.946913071534446 0.5291409323807231 0 0 0
1212 1 13.614999999999998 28.071207332162192 0.010154582651261543 0 0 0
1216 1 17.504999999999995 28.071207332162192 0.010154582651264572 0 0 0
1219 1 19.450000000000003 24.702368511441183 0.010154582651258667 0 0 0
1223 1 23.340000000000003 24.702368511441183 0.010154582651258688 0 0 0
1218 3 19.450000000000003 26.946913071534446 0.5291409323807229 0 0 0
1222 3 23.340000000000003 26.946913071534446 0.5291409323807229 0 0 0
1220 1 21.394999999999996 28.071207332162192 0.010154582651264394 0 0 0
1227 1 27.230000000000004 24.702368511441183 0.010154582651258686 0 0 0
1226 3 27.230000000000004 26.946913071534446 0.5291409323807229 0 0 0
1224 1 25.284999999999997 28.071207332162192 0.010154582651264402 0 0 0
1228 1 29.174999999999997 28.071207332162192 0.010154582651264383 0 0 0
1231 1 31.120000000000008 24.702368511441183 0.01015458265125892 0 0 0
1235 1 35.010000000000005 24.702368511441183 0.010154582651258699 0 0 0
1230 3 31.120000000000008 26.946913071534446 0.5291409323807226 0 0 0
1234 3 35.010000000000005 26.946913071534446 0.5291409323807228 0 0 0
1232 1 33.065 28.071207332162192 0.010154582651264173 0 0 0
1239 1 38.900000000000006 24.702368511441183 0.01015458265125869 0 0 0
1238 3 38.900000000000006 26.946913071534446 0.5291409323807228 0 0 0
1236 1 36.955 28.071207332162192 0.010154582651264444 0 0 0
1240 1 40.845 28.071207332162192 0.010154582651264444 0 0 0
1243 1 42.790000000000006 24.702368511441183 0.010154582651258754 0 0 0
1247 1 46.68 24.702368511441186 0.010154582651253255 0 0 0
1242 3 42.790000000000006 26.946913071534446 0.5291409323807228 0 0 0
1246 3 46.68 26.946913071534443 0.529140932380728 0 0 0
1244 1 44.735 28.071207332162192 0.010154582651264128 0 0 0
1147 1 50.56999999999999 24.702368511441183 0.010154582651261124 -1 0 0
1146 3 50.56999999999999 26.946913071534446 0.5291409323807201 -1 0 0
1248 1 48.62500000000001 28.071207332162192 0.010154582651264368 0 0 0
1148 1 52.515 28.07120733216219 0.010154582651264071 -1 0 0
1151 1 54.46 24.702368511441183 0.010154582651258388 -1 0 0
1155 1 58.35 24.702368511441183 0.010154582651258435 -1 0 0
1150 3 54.46 26.946913071534446 0.5291409323807231 -1 0 0
1154 3 58.35 26.946913071534446 0.529140932380723 -1 0 0
1152 1 56.405 28.071207332162192 0.010154582651263861 -1 0 0
1159 1 62.24 24.702368511441186 0.0101545826512577 -1 0 0
1158 3 62.24 26.946913071534446 0.5291409323807239 -1 0 0
1156 1 60.295 28.071207332162192 0.010154582651263913 -1 0 0
1160 1 64.18499999999999 28.071207332162192 0.01015458265126139 -1 0 0
1163 1 66.13000000000001 24.702368511441183 0.010154582651259 -1 0 0
1167 1 70.02000000000001 24.702368511441183 0.010154582651258681 -1 0 0
1162 3 66.13000000000001 26.946913071534446 0.5291409323807222 -1 0 0
1166 3 70.02000000000001 26.946913071534446 0.5291409323807228 -1 0 0
1164 1 68.07499999999999 28.071207332162192 0.010154582651264482 -1 0 0
1171 1 73.91000000000001 24.702368511441183 0.010154582651258695 -1 0 0
1170 3 73.91000000000001 26.946913071534446 0.5291409323807228 -1 0 0
1168 1 71.96499999999999 28.071207332162192 0.010154582651264456 -1 0 0
1172 1 75.85499999999999 28.071207332162192 0.010154582651264456 -1 0 0
1175 1 77.80000000000001 24.702368511441183 0.01015458265125876 -1 0 0
1179 1 81.69 24.702368511441186 0.010154582651253222 -1 0 0
1174 3 77.80000000000001 26.946913071534446 0.5291409323807228 -1 0 0
1178 3 81.69 26.946913071534443 0.529140932380728 -1 0 0
1176 1 79.74499999999999 28.071207332162192 0.010154582651264128 -1 0 0
1183 1 85.58 24.70236851144118 0.010154582651263892 -1 0 0
1182 3 85.58 26.946913071534446 0.5291409323807175 -1 0 0
1180 1 83.635 28.071207332162192 0.010154582651264572 -1 0 0
1184 1 87.52499999999999 28.071207332162192 0.010154582651264572 -1 0 0
1187 1 89.47 24.702368511441186 0.01015458265125314 -1 0 0
1191 1 93.36 24.70236851144118 0.010154582651263896 -1 0 0
1186 3 89.47 26.946913071534443 0.529140932380728 -1 0 0
1190 3 93.36 26.946913071534446 0.5291409323807175 -1 0 0
1188 1 91.415 28.071207332162192 0.010154582651264572 -1 0 0
1195 1 97.25 24.702368511441186 0.010154582651253193 -1 0 0
1194 3 97.25 26.946913071534443 0.529140932380728 -1 0 0
1192 1 95.30499999999999 28.071207332162192 0.01015458265126457 -1 0 0
1196 1 99.19500000000001 28.071207332162192 0.0101545826512639 -1 0 0
1303 1 0 31.44004615288318 0.01015458265126256 0 0 0
1301 3 1.944999999999999 30.315751892255438 0.5291409323807189 0 0 0
1307 1 3.8900000000000006 31.44004615288318 0.010154582651259979 0 0 0
1305 3 5.835000000000001 30.315751892255438 0.529140932380719 0 0 0
1302 3 0 33.684590712976444 0.5291409323807224 0 0 0
1306 3 3.8900000000000006 33.684590712976444 0.5291409323807249 0 0 0
1304 1 1.9449999999999992 34.80888497360418 0.010154582651258619 0 0 0
1308 1 5.835000000000001 34.80888497360418 0.010154582651258426 0 0 0
1311 1 7.780000000000001 31.44004615288318 0.010154582651260027 0 0 0
1309 3 9.725000000000001 30.315751892255438 0.529140932380719 0 0 0
1315 1 11.67 31.44004615288318 0.010154582651259802 0 0 0