LAMMPS data file via write_data, version 29 Aug 2024, timestep = 252, units = metal

4680 atoms
24 atom types

0 102.579849673912 xlo xhi
0 102.50394892386 ylo yhi
-50 50 zlo zhi

Masses

1 44.955908
2 44.955908
3 44.955908
4 44.955908
5 44.955908
6 44.955908
7 44.955908
8 44.955908
9 78.971
10 78.971
11 78.971
12 78.971
13 78.971
14 78.971
15 78.971
16 78.971
17 78.971
18 78.971
19 78.971
20 78.971
21 78.971
22 78.971
23 78.971
24 78.971

Atoms # atomic

1176 12 0.9460962511842804 0.21975406435078004 1.0989354155113553 0 0 0
1182 4 4.116127725240767 0.04320110286020211 -0.290844091427947 0 0 0
1333 13 2.40601713058802 0.04162479705760486 1.6976374208098906 0 0 0
1328 9 0.9886824536124261 5.265583764142324 1.3278866187208436 0 0 0
1180 14 4.944507629940178 0.8588421399295991 2.187060292593577 0 0 0
1339 15 4.98798105987045 4.43088934279709 0.4292348449604169 0 0 0
1330 16 2.3886124189608475 5.250986386223586 0.8575940167536503 0 0 0
1337 3 4.1025955653587305 5.247508951744766 2.8735555847949845 0 0 0
1188 12 8.836853918408444 0.21975406435180095 1.0989354155080329 0 0 0
1341 10 6.281468036011822 4.277563500408801 1.550242861665441 0 0 0
1187 11 6.251948372933145 1.112606363993674 1.007341659458045 0 0 0
1340 9 8.879440120843647 5.265583764140449 1.3278866187196763 0 0 0
1345 13 10.296774797811356 0.04162479705934775 1.6976374208069698 0 0 0
1342 16 10.279370086189825 5.250986386223924 0.8575940167554755 0 0 0
1194 4 12.006885392462378 0.043201102858590724 -0.2908440914308885 0 0 0
1192 14 12.835265297163476 0.8588421399342324 2.187060292593696 0 0 0
1200 12 16.72761158562125 0.21975406434933922 1.098935415514341 0 0 0
1351 15 12.87873872709368 4.430889342796457 0.4292348449628414 0 0 0
1199 11 14.142706040157345 1.1126063639925892 1.0073416594605502 0 0 0
1353 10 14.172225703236213 4.277563500408002 1.5502428616654642 0 0 0
1352 9 16.77019778806408 5.265583764143173 1.327886618721053 0 0 0
1349 3 11.9933532325748 5.247508951746046 2.8735555847879413 0 0 0
1206 4 19.897643059695415 0.04320110285740792 -0.29084409144271184 0 0 0
1204 14 20.72602296438713 0.858842139937067 2.1870602925962284 0 0 0
1357 13 18.18753246501772 0.04162479705648255 1.697637420814457 0 0 0
1363 15 20.769496394318313 4.430889342795904 0.4292348449626092 0 0 0
1365 10 22.062983370460184 4.277563500407545 1.5502428616650903 0 0 0
1211 11 22.0334637073795 1.1126063639895694 1.0073416594614757 0 0 0
1354 16 18.17012775341203 5.250986386221219 0.8575940167542828 0 0 0
1361 3 19.884110899802515 5.247508951742065 2.873555584790917 0 0 0
1212 12 24.618369252840164 0.2197540643493149 1.0989354155164435 0 0 0
1218 4 27.78840072692382 0.04320110285933099 -0.2908440914457163 0 0 0
1369 13 26.078290132234905 0.04162479705750859 1.697637420818169 0 0 0
1364 9 24.660955455289447 5.265583764144003 1.327886618720997 0 0 0
1366 16 26.06088542063769 5.250986386221481 0.8575940167543926 0 0 0
1373 3 27.774868567026125 5.2475089517393725 2.8735555847888703 0 0 0
1216 14 28.61678063161078 0.8588421399390225 2.1870602925986096 0 0 0
1224 12 32.50912692006403 0.21975406435020264 1.098935415519487 0 0 0
1375 15 28.660254061542634 4.430889342796681 0.42923484496195086 0 0 0
1377 10 29.953741037684544 4.277563500406717 1.5502428616636776 0 0 0
1223 11 29.9242213746033 1.1126063639900954 1.0073416594639157 0 0 0
1376 9 32.551713122511416 5.265583764145627 1.3278866187212408 0 0 0
1381 13 33.969047799457734 0.0416247970557251 1.6976374208189315 0 0 0
1378 16 33.95164308786028 5.250986386223737 0.8575940167528183 0 0 0
1230 4 35.67915839414642 0.04320110285891159 -0.2908440914431898 0 0 0
1228 14 36.507538298834405 0.8588421399365876 2.1870602925986633 0 0 0
1387 15 36.55101172876589 4.4308893427985385 0.42923484496009096 0 0 0
1235 11 37.81497904182647 1.1126063639887345 1.0073416594634745 0 0 0
1389 10 37.844498704906584 4.277563500406518 1.550242861661977 0 0 0
1385 3 35.665626234254084 5.247508951739896 2.873555584791551 0 0 0
1236 12 40.39988458728703 0.219754064349061 1.0989354155167694 0 0 0
1242 4 43.56991606136747 0.04320110285550864 -0.29084409145090484 0 0 0
1240 14 44.398295966058 0.8588421399489129 2.187060292600924 0 0 0
1393 13 41.85980546667806 0.041624797060675386 1.6976374208173437 0 0 0
1388 9 40.442470789739005 5.265583764141836 1.3278866187194818 0 0 0
1399 15 44.44176939598702 4.430889342800253 0.4292348449666565 0 0 0
1390 16 41.84240075508884 5.250986386225743 0.8575940167566858 0 0 0
1397 3 43.556383901466525 5.247508951734447 2.8735555847843792 0 0 0
1248 12 48.290642254478406 0.219754064344197 1.0989354155349331 0 0 0
1401 10 45.735256372126926 4.277563500406846 1.550242861662019 0 0 0
1247 11 45.705736709051095 1.1126063639847081 1.007341659471241 0 0 0
1400 9 48.3332284569477 5.265583764151427 1.327886618725656 0 0 0
1249 13 49.750563133858186 0.04162479705512403 1.697637420839358 -1 0 0
1402 16 49.7331584223029 5.250986386217801 0.8575940167545387 0 0 0
1098 4 51.46067372862047 0.04320110285499369 -0.2908440914772792 -1 0 0
1096 14 52.28905363328146 0.8588421399457454 2.187060292605782 -1 0 0
1104 12 56.18139992171727 0.21975406435037936 1.098935415530671 -1 0 0
1255 15 52.33252706321247 4.430889342797262 0.4292348449634895 -1 0 0
1103 11 53.59649437626953 1.1126063639820294 1.0073416594690212 -1 0 0
1257 10 53.626014039352825 4.277563500406717 1.5502428616656247 -1 0 0
1256 9 56.22398612417208 5.265583764154409 1.3278866187296232 -1 0 0
1253 3 51.44714156870454 5.247508951725064 2.873555584801471 -1 0 0
1110 4 59.35143139583139 0.04320110285780313 -0.2908440914454942 -1 0 0
1108 14 60.179811300504525 0.8588421399175362 2.1870602925993854 -1 0 0
1261 13 57.64132080111382 0.041624797046524095 1.6976374208348184 -1 0 0
1267 15 60.22328473043877 4.430889342792494 0.42923484495194913 -1 0 0
1269 10 61.51677170658284 4.277563500405829 1.5502428616663368 -1 0 0
1115 11 61.48725204349227 1.1126063639902917 1.0073416594536264 -1 0 0
1258 16 57.62391608951968 5.250986386215985 0.8575940167514302 -1 0 0
1265 3 59.33789923594293 5.247508951744994 2.873555584810498 -1 0 0
1116 12 64.07215758899743 0.21975406436010173 1.0989354154945588 -1 0 0
1122 4 67.24218906300628 0.04320110286178452 -0.2908440913941783 -1 0 0
1273 13 65.5320784684219 0.04162479705976358 1.6976374207949645 -1 0 0
1268 9 64.11474379142564 5.265583764132194 1.3278866187143326 -1 0 0
1120 14 68.07056896772873 0.8588421399138028 2.1870602925881903 -1 0 0
1279 15 68.11404239765909 4.4308893427954485 0.42923484495713465 -1 0 0
1270 16 65.51467375675921 5.250986386230495 0.8575940167560832 -1 0 0
1277 3 67.22865690313174 5.247508951765742 2.873555584777103 -1 0 0
1128 12 71.96291525622422 0.219754064355441 1.0989354154940403 -1 0 0
1281 10 69.40752937380658 4.277563500408308 1.550242861665436 -1 0 0
1127 11 69.37800971072514 1.1126063640005297 1.0073416594521336 -1 0 0
1280 9 72.00550145863846 5.265583764133293 1.3278866187123421 -1 0 0
1285 13 73.42283613564601 0.04162479705976952 1.6976374207911609 -1 0 0
1282 16 73.40543142397627 5.250986386228886 0.8575940167520697 -1 0 0
1134 4 75.13294673023172 0.04320110286318911 -0.2908440913983836 -1 0 0
1132 14 75.96132663495396 0.8588421399180641 2.187060292586381 -1 0 0
1291 15 76.00480006488465 4.430889342795279 0.4292348449565242 -1 0 0
1139 11 77.26876737795011 1.1126063639989845 1.0073416594505944 -1 0 0
1293 10 77.29828704103012 4.27756350041025 1.550242861667044 -1 0 0
1289 3 75.11941457036296 5.247508951762912 2.8735555847851066 -1 0 0
1140 12 79.85367292344426 0.21975406435528677 1.0989354154960462 -1 0 0
1146 4 83.02370439746451 0.0432011028671599 -0.29084409139797307 -1 0 0
1144 14 83.8520843021811 0.8588421399110333 2.1870602925854072 -1 0 0
1297 13 81.31359380286642 0.04162479705859422 1.6976374207953477 -1 0 0
1292 9 79.89625912586537 5.265583764132245 1.3278866187130791 -1 0 0
1303 15 83.8955577321106 4.430889342795551 0.4292348449573256 -1 0 0
1305 10 85.18904470825545 4.277563500410203 1.55024286166675 -1 0 0
1151 11 85.1595250451749 1.112606364002765 1.0073416594462052 -1 0 0
1294 16 81.29618909120275 5.2509863862289805 0.8575940167533571 -1 0 0
1301 3 83.01017223758731 5.247508951765885 2.8735555847835417 -1 0 0
1152 12 87.74443059069311 0.21975406435624054 1.0989354154819297 -1 0 0
1158 4 90.91446206466615 0.04320110286506029 -0.2908440913887251 -1 0 0
1309 13 89.20435147011759 0.04162479706807383 1.6976374207773741 -1 0 0
1304 9 87.7870167930928 5.265583764131041 1.3278866187129654 -1 0 0
1306 16 89.18694675843051 5.2509863862277 0.8575940167540432 -1 0 0
1313 3 90.90092990480923 5.2475089517612306 2.873555584778601 -1 0 0
1156 14 91.74284196940472 0.8588421399304838 2.1870602925855906 -1 0 0
1164 12 95.63518825786687 0.21975406434807762 1.0989354155136135 -1 0 0
1315 15 91.7863153993348 4.430889342795288 0.4292348449583773 -1 0 0
1317 10 93.07980237547949 4.277563500408706 1.5502428616638249 -1 0 0
1163 11 93.05028271240386 1.112606364000186 1.0073416594599591 -1 0 0
1316 9 95.67777446031437 5.265583764132256 1.3278866187105973 -1 0 0
1327 15 99.67707306655717 4.430889342800217 0.4292348449626857 -1 0 0
1329 10 100.97056004269895 4.277563500410219 1.5502428616642634 -1 0 0
1175 11 100.9410403796217 1.112606363993437 1.0073416594596576 -1 0 0
1170 4 98.8052197319356 0.04320110286542028 -0.2908440914331172 -1 0 0
1168 14 99.63359963663007 0.8588421399333379 2.187060292594994 -1 0 0
1321 13 97.09510913726834 0.04162479706158484 1.6976374208117635 -1 0 0
1318 16 97.07770442565628 5.250986386232673 0.8575940167546363 -1 0 0
1325 3 98.7916875720298 5.24750895175333 2.8735555847783476 -1 0 0
1332 12 0.9460962511878953 7.05335065927331 1.0989354155097408 0 0 0
1338 4 4.116127725240376 6.876797697789478 -0.2908440914223129 0 0 0
1489 13 2.4060171305945817 6.875221391984214 1.6976374208073324 0 0 0
1336 14 4.944507629941713 7.692438734850929 2.1870602925924163 0 0 0
1495 15 4.987981059870689 11.264485937720776 0.42923484496040526 0 0 0
1335 2 7.1030341338096825 5.890733105729583 -0.5093703040769654 0 0 0
1344 12 8.83685391841917 7.053350659276433 1.098935415503771 0 0 0
1343 11 6.251948372933999 7.946202958919177 1.0073416594560887 0 0 0
1501 13 10.296774797828911 6.875221391983975 1.6976374208015745 0 0 0
1497 10 6.281468036011294 11.111160095333563 1.550242861665571 0 0 0
1347 2 14.993791801034796 5.890733105729554 -0.5093703040740258 0 0 0
1350 4 12.00688539245539 6.87679769778494 -0.29084409141718714 0 0 0
1348 14 12.835265297164165 7.692438734851278 2.187060292590549 0 0 0
1356 12 16.727611585636755 7.05335065927567 1.098935415505992 0 0 0
1507 15 12.878738727094163 11.26448593771946 0.42923484496198655 0 0 0
1355 11 14.142706040158258 7.946202958919212 1.0073416594565945 0 0 0
1509 10 14.172225703236311 11.1111600953318 1.5502428616651032 0 0 0
1362 4 19.897643059683823 6.8767976977846095 -0.29084409142319145 0 0 0
1360 14 20.72602296438767 7.692438734852386 2.187060292591204 0 0 0
1513 13 18.18753246504403 6.875221391982485 1.6976374208044924 0 0 0
1519 15 20.769496394317944 11.26448593771953 0.42923484496277264 0 0 0
1367 11 22.033463707380996 7.946202958918481 1.0073416594562852 0 0 0
1521 10 22.06298337046012 11.111160095331808 1.5502428616656727 0 0 0
1359 2 22.88454946825935 5.890733105730173 -0.5093703040745664 0 0 0
1368 12 24.618369252860607 7.053350659276286 1.09893541550553 0 0 0
1374 4 27.78840072690746 6.8767976977847765 -0.2908440914234052 0 0 0
1525 13 26.078290132267718 6.875221391981766 1.6976374208047047 0 0 0
1371 2 30.775307135484805 5.890733105731314 -0.5093703040726241 0 0 0
1372 14 28.61678063161128 7.692438734853504 2.1870602925919482 0 0 0
1380 12 32.50912692008038 7.053350659276034 1.0989354155079105 0 0 0
1531 15 28.660254061543373 11.264485937717913 0.4292348449598294 0 0 0
1379 11 29.924221374605107 7.946202958917125 1.0073416594573656 0 0 0
1537 13 33.9690477994868 6.875221391983395 1.6976374208082117 0 0 0
1533 10 29.953741037686214 11.111160095330977 1.550242861665229 0 0 0
1383 2 38.66606480270716 5.890733105733974 -0.509370304072743 0 0 0
1386 4 35.67915839413596 6.8767976977890815 -0.2908440914232071 0 0 0
1384 14 36.50753829883642 7.692438734852314 2.187060292594323 0 0 0
1543 15 36.55101172876686 11.264485937718419 0.42923484495851105 0 0 0
1391 11 37.81497904182952 7.946202958917685 1.007341659459362 0 0 0
1545 10 37.8444987049095 11.111160095329467 1.5502428616614348 0 0 0
1392 12 40.39988458730797 7.053350659275083 1.0989354155073292 0 0 0
1398 4 43.56991606135354 6.87679769778438 -0.29084409142665507 0 0 0
1396 14 44.39829596605937 7.69243873486189 2.187060292594634 0 0 0
1549 13 41.85980546671132 6.875221391986634 1.6976374208045306 0 0 0
1555 15 44.44176939598699 11.2644859377234 0.4292348449674056 0 0 0
1395 2 46.55682246993789 5.890733105734134 -0.5093703040605027 0 0 0
1404 12 48.290642254504114 7.053350659270797 1.0989354155209836 0 0 0
1403 11 45.70573670905367 7.9462029589140615 1.0073416594644617 0 0 0
1405 13 49.75056313389755 6.875221391981284 1.6976374208226053 -1 0 0
1557 10 45.73525637212739 11.111160095331616 1.5502428616630075 0 0 0
1251 2 54.44758013716178 5.89073310573453 -0.5093703040675486 -1 0 0
1254 4 51.4606737286012 6.8767976977824485 -0.2908440914517859 -1 0 0
1252 14 52.28905363328247 7.692438734862177 2.1870602925992126 -1 0 0
1260 12 56.18139992173161 7.0533506592756385 1.098935415521853 -1 0 0
1411 15 52.332527063213945 11.264485937720117 0.4292348449608537 -1 0 0
1259 11 53.59649437627275 7.9462029589106296 1.007341659464099 -1 0 0
1413 10 53.62601403935434 11.111160095331028 1.55024286166559 -1 0 0
1263 2 62.33833780436671 5.890733105731356 -0.5093703040943074 -1 0 0
1266 4 59.35143139582322 6.876797697787535 -0.29084409143093604 -1 0 0
1264 14 60.17981130050654 7.692438734837405 2.1870602925955356 -1 0 0
1417 13 57.64132080113662 6.875221391975307 1.6976374208250253 -1 0 0
1423 15 60.22328473043852 11.26448593771753 0.4292348449532426 -1 0 0
1271 11 61.4872520434956 7.946202958918848 1.0073416594505624 -1 0 0
1425 10 61.51677170658284 11.111160095330423 1.5502428616655253 -1 0 0
1272 12 64.07215758901187 7.0533506592841375 1.0989354154887694 -1 0 0
1278 4 67.24218906299654 6.876797697786513 -0.29084409138311224 -1 0 0
1429 13 65.53207846844106 6.875221391984431 1.6976374207859666 -1 0 0
1276 14 68.07056896772946 7.692438734835769 2.1870602925844604 -1 0 0
1435 15 68.11404239765902 11.264485937717586 0.42923484495761255 -1 0 0
1275 2 70.22909547159038 5.890733105724334 -0.5093703040855594 -1 0 0
1284 12 71.96291525622715 7.053350659279773 1.0989354154906747 -1 0 0
1283 11 69.37800971072699 7.946202958925798 1.0073416594495184 -1 0 0
1441 13 73.42283613565252 6.875221391986209 1.6976374207890617 -1 0 0
1437 10 69.40752937380593 11.11116009533241 1.550242861666707 -1 0 0
1287 2 78.11985313881557 5.890733105722707 -0.5093703040877723 -1 0 0
1290 4 75.13294673023225 6.876797697790861 -0.2908440913939492 -1 0 0
1288 14 75.96132663495592 7.692438734838627 2.1870602925848406 -1 0 0
1447 15 76.00480006488411 11.264485937718037 0.4292348449580779 -1 0 0
1295 11 77.26876737795105 7.946202958926437 1.0073416594489852 -1 0 0
1449 10 77.29828704102987 11.111160095333565 1.550242861667719 -1 0 0
1296 12 79.85367292345678 7.053350659279999 1.0989354154904027 -1 0 0
1302 4 83.02370439745458 6.876797697791222 -0.2908440913894379 -1 0 0
1300 14 83.85208430218074 7.692438734838197 2.1870602925836917 -1 0 0
1453 13 81.31359380288296 6.875221391986181 1.6976374207874338 -1 0 0
1459 15 83.8955577321116 11.2644859377173 0.4292348449528379 -1 0 0
1307 11 85.15952504517652 7.946202958927561 1.0073416594482545 -1 0 0
1461 10 85.18904470825824 11.111160095333785 1.5502428616683304 -1 0 0
1299 2 86.01061080603961 5.890733105722922 -0.5093703040878613 -1 0 0
1308 12 87.7444305906857 7.053350659280055 1.0989354154891784 -1 0 0
1314 4 90.91446206467457 6.876797697790065 -0.29084409138698986 -1 0 0
1465 13 89.20435147011173 6.8752213919848 1.6976374207842975 -1 0 0
1311 2 93.90136847326603 5.890733105723463 -0.5093703040829348 -1 0 0
1312 14 91.74284196940485 7.692438734839286 2.1870602925832228 -1 0 0
1320 12 95.6351882579004 7.053350659277934 1.0989354154905884 -1 0 0
1471 15 91.78631539933534 11.264485937718158 0.42923484495238035 -1 0 0
1319 11 93.05028271240094 7.946202958925315 1.0073416594491658 -1 0 0
1473 10 93.07980237548264 11.111160095333734 1.5502428616648747 -1 0 0
1323 2 101.79212614049952 5.890733105727178 -0.5093703040701579 -1 0 0
1483 15 99.6770730665568 11.264485937725786 0.4292348449638805 -1 0 0
1331 11 100.94104037962626 7.946202958922316 1.0073416594583122 -1 0 0
1326 4 98.80521973190662 6.876797697791162 -0.29084409140162665 -1 0 0
1324 14 99.63359963663002 7.6924387348529315 2.187060292588094 -1 0 0
1477 13 97.09510913732 6.87522139199096 1.6976374207886586 -1 0 0
1485 10 100.97056004269997 11.111160095336222 1.550242861662132 -1 0 0
1486 16 2.388612418958991 12.084582981148305 0.8575940167517876 0 0 0
1488 12 0.9460962511900968 13.886947254196302 1.0989354155068762 0 0 0
1494 4 4.116127725240582 13.710394292715186 -0.2908440914228211 0 0 0
1484 9 0.9886824536098511 12.099180359064453 1.3278866187163672 0 0 0
1493 3 4.102595565358211 12.081105546668669 2.8735555847947096 0 0 0
1492 14 4.944507629943139 14.526035329776382 2.1870602925905533 0 0 0
1645 13 2.4060171305978355 13.708817986910246 1.6976374208037008 0 0 0
1491 2 7.103034133810835 12.724329700650827 -0.5093703040765926 0 0 0
1498 16 10.279370086188186 12.0845829811474 0.8575940167553877 0 0 0
1500 12 8.836853918418143 13.886947254199072 1.0989354155044082 0 0 0
1496 9 8.879440120842064 12.099180359064173 1.327886618719591 0 0 0
1499 11 6.251948372934976 14.779799553842773 1.0073416594552547 0 0 0
1657 13 10.296774797827775 13.708817986907524 1.6976374208026923 0 0 0
1503 2 14.993791801032947 12.724329700652408 -0.5093703040773372 0 0 0
1504 14 12.835265297165142 14.526035329773705 2.1870602925896803 0 0 0
1506 4 12.006885392458019 13.710394292709513 -0.2908440914183878 0 0 0
1512 12 16.72761158564178 13.88694725419993 1.0989354155029196 0 0 0
1505 3 11.993353232577212 12.081105546671726 2.873555584790043 0 0 0
1511 11 14.1427060401581 14.77979955384325 1.0073416594550817 0 0 0
1508 9 16.77019778806659 12.099180359064786 1.3278866187193032 0 0 0
1510 16 18.170127753412245 12.084582981146669 0.857594016755044 0 0 0
1516 14 20.726022964387514 14.526035329775006 2.187060292589226 0 0 0
1518 4 19.897643059679435 13.71039429270829 -0.2908440914185365 0 0 0
1517 3 19.88411089979932 12.081105546669939 2.873555584789165 0 0 0
1523 11 22.033463707381244 14.779799553842874 1.007341659455036 0 0 0
1669 13 18.18753246505177 13.708817986907157 1.6976374208007434 0 0 0
1515 2 22.884549468257827 12.724329700652339 -0.5093703040760251 0 0 0
1522 16 26.06088542063453 12.084582981143237 0.8575940167529135 0 0 0
1524 12 24.618369252862504 13.886947254200312 1.0989354155045685 0 0 0
1530 4 27.78840072690577 13.710394292708031 -0.2908440914184353 0 0 0
1520 9 24.66095545528845 12.099180359066903 1.327886618720662 0 0 0
1529 3 27.774868567028587 12.081105546669825 2.8735555847915526 0 0 0
1681 13 26.078290132272972 13.708817986903924 1.697637420802656 0 0 0
1527 2 30.77530713547904 12.724329700651552 -0.5093703040813503 0 0 0
1528 14 28.616780631610702 14.526035329770448 2.187060292588617 0 0 0
1534 16 33.951643087862365 12.084582981145823 0.8575940167521859 0 0 0
1536 12 32.50912692009659 13.886947254202912 1.0989354154974311 0 0 0
1532 9 32.55171312251865 12.099180359064157 1.3278866187172595 0 0 0
1535 11 29.92422137460427 14.77979955384319 1.0073416594515188 0 0 0
1693 13 33.96904779951236 13.708817986904188 1.6976374207954055 0 0 0
1539 2 38.66606480270169 12.72432970065184 -0.5093703040801569 0 0 0
1540 14 36.50753829883514 14.526035329767288 2.1870602925865206 0 0 0
1542 4 35.67915839412063 13.710394292709159 -0.29084409140741874 0 0 0
1541 3 35.66562623424875 12.08110554667265 2.8735555847838428 0 0 0
1547 11 37.81497904182987 14.779799553843787 1.0073416594509774 0 0 0
1548 12 40.39988458732071 13.886947254200418 1.0989354154948878 0 0 0
1546 16 41.84240075509078 12.084582981152737 0.857594016756106 0 0 0
1552 14 44.39829596605972 14.52603532978456 2.187060292589859 0 0 0
1554 4 43.569916061342944 13.71039429270786 -0.29084409141636025 0 0 0
1544 9 40.442470789744895 12.099180359060188 1.3278866187127414 0 0 0
1553 3 43.55638390145935 12.081105546665443 2.873555584777752 0 0 0
1705 13 41.85980546673199 13.708817986912939 1.697637420793112 0 0 0
1551 2 46.55682246993703 12.72432970065364 -0.5093703040612825 0 0 0
1558 16 49.73315842230078 12.084582981141681 0.8575940167529168 0 0 0
1560 12 48.29064225450729 13.886947254193963 1.0989354155189557 0 0 0
1556 9 48.333228456946706 12.099180359074188 1.3278866187249374 0 0 0
1559 11 45.705736709055685 14.779799553840057 1.0073416594618985 0 0 0
1561 13 49.750563133903725 13.70881798690447 1.6976374208205587 -1 0 0
1407 2 54.44758013715807 12.724329700656414 -0.5093703040738851 -1 0 0
1408 14 52.289053633283494 14.526035329781282 2.187060292596916 -1 0 0
1410 4 51.460673728600916 13.710394292708989 -0.2908440914467095 -1 0 0
1416 12 56.18139992174611 13.886947254201239 1.098935415513495 -1 0 0
1409 3 51.44714156870841 12.081105546654454 2.87355558480326 -1 0 0
1415 11 53.59649437627331 14.779799553836687 1.007341659459888 -1 0 0
1412 9 56.22398612417971 12.099180359072653 1.3278866187254734 -1 0 0
1419 2 62.33833780436728 12.724329700653394 -0.5093703040921016 -1 0 0
1414 16 57.62391608952422 12.084582981143859 0.8575940167526613 -1 0 0
1420 14 60.17981130050696 14.526035329761791 2.1870602925922276 -1 0 0
1422 4 59.35143139581154 13.710394292711422 -0.29084409141977563 -1 0 0
1421 3 59.33789923593478 12.081105546674031 2.873555584801925 -1 0 0
1427 11 61.48725204349799 14.779799553843963 1.0073416594499136 -1 0 0
1573 13 57.64132080115665 13.708817986901815 1.6976374208150165 -1 0 0
1426 16 65.51467375675665 12.08458298115282 0.8575940167549316 -1 0 0
1428 12 64.07215758900902 13.886947254206666 1.0989354154895934 -1 0 0
1434 4 67.2421890630002 13.710394292709562 -0.2908440913867654 -1 0 0
1424 9 64.11474379142247 12.099180359056577 1.327886618713596 -1 0 0
1433 3 67.2286569031343 12.081105546690685 2.8735555847805774 -1 0 0
1432 14 68.07056896773008 14.526035329758956 2.1870602925832694 -1 0 0
1585 13 65.53207846843688 13.708817986908556 1.6976374207866045 -1 0 0
1431 2 70.22909547158905 12.72432970064609 -0.5093703040877213 -1 0 0
1438 16 73.4054314239771 12.084582981152842 0.8575940167537505 -1 0 0
1440 12 71.96291525623045 13.886947254203251 1.0989354154878808 -1 0 0
1436 9 72.0055014586403 12.099180359055133 1.3278866187117158 -1 0 0
1439 11 69.37800971072659 14.779799553849788 1.0073416594477007 -1 0 0
1597 13 73.42283613565691 13.708817986909771 1.6976374207865663 -1 0 0
1443 2 78.11985313881652 12.724329700644775 -0.5093703040860147 -1 0 0
1444 14 75.96132663495543 14.526035329763433 2.1870602925838467 -1 0 0
1446 4 75.1329467302289 13.710394292712296 -0.2908440913932069 -1 0 0
1445 3 75.11941457035854 12.081105546686949 2.8735555847828103 -1 0 0
1451 11 77.26876737795078 14.779799553849053 1.0073416594497537 -1 0 0
1452 12 79.853672923451 13.886947254203003 1.0989354154938913 -1 0 0
1450 16 81.29618909119723 12.084582981150813 0.8575940167525689 -1 0 0
1456 14 83.85208430218066 14.526035329755633 2.187060292583647 -1 0 0
1458 4 83.02370439745964 13.710394292716911 -0.29084409138964146 -1 0 0
1448 9 79.89625912586096 12.099180359058087 1.3278866187154832 -1 0 0
1457 3 83.01017223759466 12.081105546691873 2.873555584790986 -1 0 0
1463 11 85.15952504517452 14.779799553851584 1.0073416594437774 -1 0 0
1609 13 81.31359380287856 13.708817986906942 1.697637420792347 -1 0 0
1455 2 86.0106108060341 12.724329700644727 -0.5093703040981534 -1 0 0
1462 16 89.18694675842842 12.084582981156318 0.8575940167521078 -1 0 0
1464 12 87.7444305907015 13.886947254208815 1.0989354154799773 -1 0 0
1470 4 90.91446206466283 13.710394292719105 -0.2908440913617491 -1 0 0
1460 9 87.78701679309941 12.099180359050267 1.3278866187095242 -1 0 0
1469 3 90.90092990481058 12.081105546706427 2.8735555847776015 -1 0 0
1621 13 89.20435147014159 13.708817986910327 1.6976374207754579 -1 0 0
1467 2 93.90136847325276 12.72432970064322 -0.5093703040993042 -1 0 0
1468 14 91.74284196940594 14.526035329747701 2.1870602925776805 -1 0 0
1476 12 95.63518825793935 13.886947254206303 1.0989354154693647 -1 0 0
1472 9 95.67777446033239 12.099180359040762 1.3278866187004015 -1 0 0
1475 11 93.05028271240306 14.779799553857865 1.007341659440409 -1 0 0
1487 11 100.94104037963076 14.779799553852115 1.0073416594555826 -1 0 0
1474 16 97.07770442566513 12.084582981164498 0.8575940167557846 -1 0 0
1479 2 101.79212614049719 12.724329700646287 -0.5093703040679786 -1 0 0
1480 14 99.63359963662947 14.526035329772544 2.1870602925792966 -1 0 0
1482 4 98.80521973187359 13.710394292716149 -0.29084409136752243 -1 0 0
1481 3 98.79168757200968 12.081105546692699 2.873555584756856 -1 0 0
1633 13 97.09510913737563 13.708817986919101 1.6976374207614415 -1 0 0
1644 12 0.9460962512008594 20.72054384912382 1.0989354154976347 0 0 0
1642 16 2.388612418963154 18.9181795760749 0.8575940167526988 0 0 0
1650 4 4.116127725229759 20.543990887637328 -0.29084409141137135 0 0 0
1640 9 0.9886824536185985 18.932776953985314 1.3278866187136948 0 0 0
1649 3 4.102595565351907 18.91470214160007 2.8735555847877623 0 0 0
1651 15 4.987981059870597 18.098082532644653 0.4292348449608771 0 0 0
1648 14 4.944507629942599 21.359631924697027 2.187060292587478 0 0 0
1801 13 2.4060171306158655 20.542414581834947 1.6976374207958829 0 0 0
1647 2 7.103034133808576 19.557926295573658 -0.5093703040778123 0 0 0
1653 10 6.281468036012007 17.944756690257417 1.5502428616654214 0 0 0
1656 12 8.83685391842285 20.720543849123157 1.0989354155014575 0 0 0
1654 16 10.279370086188983 18.9181795760721 0.8575940167551801 0 0 0
1652 9 8.879440120843599 18.932776953986142 1.3278866187180731 0 0 0
1655 11 6.251948372936273 21.61339614876936 1.007341659453697 0 0 0
1813 13 10.296774797834189 20.54241458183233 1.6976374207986131 0 0 0
1663 15 12.878738727093888 18.098082532643517 0.42923484496277015 0 0 0
1659 2 14.993791801033268 19.557926295575324 -0.5093703040762285 0 0 0
1662 4 12.006885392453652 20.54399088763327 -0.2908440914148491 0 0 0
1660 14 12.835265297164948 21.359631924698125 2.1870602925884253 0 0 0
1668 12 16.727611585640133 20.720543849123246 1.0989354155033821 0 0 0
1661 3 11.993353232574474 18.914702141596898 2.87355558478772 0 0 0
1667 11 14.142706040158698 21.61339614876784 1.0073416594547264 0 0 0
1665 10 14.172225703235945 17.944756690256167 1.550242861665317 0 0 0
1664 9 16.770197788065133 18.932776953989077 1.3278866187194063 0 0 0
1666 16 18.17012775341133 18.918179576070205 0.8575940167549104 0 0 0
1674 4 19.897643059680775 20.54399088763253 -0.2908440914202593 0 0 0
1672 14 20.72602296438777 21.35963192469928 2.1870602925896017 0 0 0
1673 3 19.884110899799765 18.914702141592834 2.873555584790025 0 0 0
1675 15 20.769496394317656 18.09808253264332 0.4292348449629345 0 0 0
1677 10 22.06298337045938 17.944756690255705 1.5502428616650716 0 0 0
1679 11 22.033463707380854 21.613396148766707 1.0073416594555364 0 0 0
1825 13 18.18753246504956 20.542414581831228 1.6976374208018212 0 0 0
1671 2 22.88454946825738 19.5579262955765 -0.5093703040760058 0 0 0
1680 12 24.61836925286053 20.72054384912416 1.0989354155049758 0 0 0
1678 16 26.060885420633426 18.918179576069708 0.8575940167547677 0 0 0
1686 4 27.788400726906666 20.54399088763258 -0.2908440914200676 0 0 0
1676 9 24.660955455288168 18.932776953990786 1.3278866187200362 0 0 0
1685 3 27.774868567025376 18.914702141593658 2.8735555847927428 0 0 0
1837 13 26.07829013227102 20.542414581830663 1.6976374208044656 0 0 0
1687 15 28.660254061541824 18.098082532643303 0.42923484496142056 0 0 0
1683 2 30.77530713547931 19.557926295575932 -0.509370304079415 0 0 0
1689 10 29.953741037684715 17.944756690255907 1.550242861666506 0 0 0
1684 14 28.61678063161121 21.359631924697318 2.1870602925902065 0 0 0
1692 12 32.50912692008971 20.720543849127036 1.0989354155032787 0 0 0
1690 16 33.95164308785367 18.918179576070692 0.8575940167509837 0 0 0
1688 9 32.55171312251296 18.932776953991073 1.3278866187201948 0 0 0
1691 11 29.92422137460404 21.6133961487667 1.0073416594548423 0 0 0
1849 13 33.96904779950913 20.542414581828435 1.6976374208035405 0 0 0
1699 15 36.5510117287674 18.098082532642195 0.42923484495315634 0 0 0
1695 2 38.6660648026911 19.557926295575705 -0.5093703040948308 0 0 0
1698 4 35.679158394127995 20.543990887639275 -0.29084409140250345 0 0 0
1696 14 36.50753829883676 21.359631924681 2.1870602925881215 0 0 0
1697 3 35.66562623425879 18.914702141606284 2.8735555847957768 0 0 0
1703 11 37.81497904182858 21.613396148772722 1.0073416594476952 0 0 0
1701 10 37.84449870491122 17.944756690255012 1.5502428616638813 0 0 0
1704 12 40.399884587350236 20.72054384913083 1.0989354154817659 0 0 0
1702 16 41.84240075509284 18.91817957608277 0.8575940167572277 0 0 0
1710 4 43.56991606131791 20.543990887634735 -0.29084409138038536 0 0 0
1708 14 44.398295966059614 21.359631924694277 2.1870602925821694 0 0 0
1700 9 40.44247078975857 18.932776953974003 1.3278866187072276 0 0 0
1709 3 43.55638390144969 18.914702141611794 2.873555584767959 0 0 0
1711 15 44.44176939598723 18.09808253264729 0.42923484496416225 0 0 0
1861 13 41.85980546678015 20.542414581839452 1.6976374207758724 0 0 0
1707 2 46.556822469925535 19.557926295572198 -0.5093703040728552 0 0 0
1713 10 45.735256372131296 17.944756690257545 1.550242861664118 0 0 0
1716 12 48.29064225453593 20.720543849122766 1.0989354155031283 0 0 0
1714 16 49.73315842230181 18.918179576070223 0.8575940167512405 0 0 0
1712 9 48.33322845695716 18.932776953987595 1.3278866187164977 0 0 0
1715 11 45.705736709058314 21.613396148772665 1.0073416594544957 0 0 0
1717 13 49.750563133950266 20.542414581831068 1.697637420801429 -1 0 0
1567 15 52.332527063214584 18.09808253264307 0.42923484495756015 -1 0 0