LAMMPS data file via write_data, version 29 Aug 2024, timestep = 0, units = metal

2340 atoms
12 atom types

0 102.579849673912 xlo xhi
0 102.50394892386 ylo yhi
0 17.932576481568 zlo zhi

Masses

1 78.95999999999999
2 78.95999999999999
3 78.95999999999999
4 44.955908
5 78.95999999999999
6 78.95999999999999
7 78.95999999999999
8 78.95999999999999
9 44.955912
10 44.955912
11 44.955912
12 78.971

Atoms # atomic

1176 8 0 1.1389327658210036 0 0 0 0
1174 12 1.9726894168060056 0 1.4662882407839994 0 0 0
1182 4 3.945378833612004 1.1389327658210036 0 0 0 0
1180 10 5.918068250418003 0 1.4662882407839994 0 0 0
1188 8 7.890757667224001 1.1389327658210036 0 0 0 0
1186 12 9.86344708403 0 1.4662882407839994 0 0 0
1194 4 11.836136500836005 1.1389327658210036 0 0 0 0
1192 10 13.808825917642004 0 1.4662882407839994 0 0 0
1200 8 15.78151533444801 1.1389327658210036 0 0 0 0
1198 12 17.754204751254 0 1.4662882407839994 0 0 0
1206 4 19.726894168060007 1.1389327658210036 0 0 0 0
1204 10 21.699583584865998 0 1.4662882407839994 0 0 0
1212 8 23.672273001672004 1.1389327658210036 0 0 0 0
1210 12 25.64496241847801 0 1.4662882407839994 0 0 0
1218 4 27.617651835284 1.1389327658210036 0 0 0 0
1216 10 29.590341252090006 0 1.4662882407839994 0 0 0
1224 8 31.563030668895998 1.1389327658210036 0 0 0 0
1222 12 33.535720085702 0 1.4662882407839994 0 0 0
1230 4 35.50840950250801 1.1389327658210036 0 0 0 0
1228 10 37.481098919314 0 1.4662882407839994 0 0 0
1236 8 39.453788336120006 1.1389327658210036 0 0 0 0
1234 12 41.426477752926 0 1.4662882407839994 0 0 0
1242 4 43.399167169732 1.1389327658210036 0 0 0 0
1240 10 45.37185658653801 0 1.4662882407839994 0 0 0
1248 8 47.344546003344 1.1389327658210036 0 0 0 0
1246 12 49.317235420150006 0 1.4662882407839994 0 0 0
1098 4 51.289924836956 1.1389327658210036 0 -1 0 0
1096 10 53.262614253761996 0 1.4662882407839994 -1 0 0
1104 8 55.235303670567994 1.1389327658210036 0 -1 0 0
1102 12 57.207993087374 0 1.4662882407839994 -1 0 0
1110 4 59.18068250418 1.1389327658210036 0 -1 0 0
1108 10 61.153371920986 0 1.4662882407839994 -1 0 0
1116 8 63.126061337791995 1.1389327658210036 0 -1 0 0
1114 12 65.098750754598 0 1.4662882407839994 -1 0 0
1122 4 67.07144017140399 1.1389327658210036 0 -1 0 0
1120 10 69.04412958821 0 1.4662882407839994 -1 0 0
1128 8 71.016819005016 1.1389327658210036 0 -1 0 0
1126 12 72.989508421822 0 1.4662882407839994 -1 0 0
1134 4 74.962197838628 1.1389327658210036 0 -1 0 0
1132 10 76.93488725543399 0 1.4662882407839994 -1 0 0
1140 8 78.90757667224 1.1389327658210036 0 -1 0 0
1138 12 80.88026608904599 0 1.4662882407839994 -1 0 0
1146 4 82.852955505852 1.1389327658210036 0 -1 0 0
1144 10 84.825644922658 0 1.4662882407839994 -1 0 0
1152 8 86.79833433946399 1.1389327658210036 0 -1 0 0
1150 12 88.77102375627 0 1.4662882407839994 -1 0 0
1158 4 90.743713173076 1.1389327658210036 0 -1 0 0
1156 10 92.716402589882 0 1.4662882407839994 -1 0 0
1164 8 94.689092006688 1.1389327658210036 0 -1 0 0
1162 12 96.661781423494 0 1.4662882407839994 -1 0 0
1170 4 98.6344708403 1.1389327658210036 0 -1 0 0
1168 10 100.60716025710599 0 1.4662882407839994 -1 0 0
1327 11 0 3.4167982974620017 1.4662882407839994 0 0 0
1333 9 3.945378833612004 3.4167982974620017 1.4662882407839994 0 0 0
1339 11 7.890757667224001 3.4167982974620017 1.4662882407839994 0 0 0
1345 9 11.836136500836005 3.4167982974620017 1.4662882407839994 0 0 0
1351 11 15.78151533444801 3.4167982974620017 1.4662882407839994 0 0 0
1357 9 19.726894168060007 3.4167982974620017 1.4662882407839994 0 0 0
1363 11 23.672273001672004 3.4167982974620017 1.4662882407839994 0 0 0
1369 9 27.617651835284 3.4167982974620017 1.4662882407839994 0 0 0
1375 11 31.563030668895998 3.4167982974620017 1.4662882407839994 0 0 0
1381 9 35.50840950250801 3.4167982974620017 1.4662882407839994 0 0 0
1387 11 39.453788336120006 3.4167982974620017 1.4662882407839994 0 0 0
1393 9 43.399167169732 3.4167982974620017 1.4662882407839994 0 0 0
1399 11 47.344546003344 3.4167982974620017 1.4662882407839994 0 0 0
1249 9 51.289924836956 3.4167982974620017 1.4662882407839994 -1 0 0
1255 11 55.235303670567994 3.4167982974620017 1.4662882407839994 -1 0 0
1261 9 59.18068250418 3.4167982974620017 1.4662882407839994 -1 0 0
1267 11 63.126061337791995 3.4167982974620017 1.4662882407839994 -1 0 0
1273 9 67.07144017140399 3.4167982974620017 1.4662882407839994 -1 0 0
1279 11 71.016819005016 3.4167982974620017 1.4662882407839994 -1 0 0
1285 9 74.962197838628 3.4167982974620017 1.4662882407839994 -1 0 0
1291 11 78.90757667224 3.4167982974620017 1.4662882407839994 -1 0 0
1297 9 82.852955505852 3.4167982974620017 1.4662882407839994 -1 0 0
1303 11 86.79833433946399 3.4167982974620017 1.4662882407839994 -1 0 0
1309 9 90.743713173076 3.4167982974620017 1.4662882407839994 -1 0 0
1315 11 94.689092006688 3.4167982974620017 1.4662882407839994 -1 0 0
1321 9 98.6344708403 3.4167982974620017 1.4662882407839994 -1 0 0
1329 6 1.9726894168060056 4.555731063283005 0 0 0 0
1335 2 5.918068250418003 4.555731063283005 0 0 0 0
1341 6 9.86344708403 4.555731063283005 0 0 0 0
1347 2 13.808825917642004 4.555731063283005 0 0 0 0
1353 6 17.754204751254 4.555731063283005 0 0 0 0
1359 2 21.699583584865998 4.555731063283005 0 0 0 0
1365 6 25.64496241847801 4.555731063283005 0 0 0 0
1371 2 29.590341252090006 4.555731063283005 0 0 0 0
1377 6 33.535720085702 4.555731063283005 0 0 0 0
1383 2 37.481098919314 4.555731063283005 0 0 0 0
1389 6 41.426477752926 4.555731063283005 0 0 0 0
1395 2 45.37185658653801 4.555731063283005 0 0 0 0
1401 6 49.317235420150006 4.555731063283005 0 0 0 0
1251 2 53.262614253761996 4.555731063283005 0 -1 0 0
1257 6 57.207993087374 4.555731063283005 0 -1 0 0
1263 2 61.153371920986 4.555731063283005 0 -1 0 0
1269 6 65.098750754598 4.555731063283005 0 -1 0 0
1275 2 69.04412958821 4.555731063283005 0 -1 0 0
1281 6 72.989508421822 4.555731063283005 0 -1 0 0
1287 2 76.93488725543399 4.555731063283005 0 -1 0 0
1293 6 80.88026608904599 4.555731063283005 0 -1 0 0
1299 2 84.825644922658 4.555731063283005 0 -1 0 0
1305 6 88.77102375627 4.555731063283005 0 -1 0 0
1311 2 92.716402589882 4.555731063283005 0 -1 0 0
1317 6 96.661781423494 4.555731063283005 0 -1 0 0
1323 2 100.60716025710599 4.555731063283005 0 -1 0 0
1332 8 0 7.972529360745 0 0 0 0
1330 12 1.9726894168060056 6.833596594924003 1.4662882407839994 0 0 0
1338 4 3.945378833612004 7.972529360745 0 0 0 0
1336 10 5.918068250418003 6.833596594924003 1.4662882407839994 0 0 0
1344 8 7.890757667224001 7.972529360745 0 0 0 0
1342 12 9.86344708403 6.833596594924003 1.4662882407839994 0 0 0
1350 4 11.836136500836005 7.972529360745 0 0 0 0
1348 10 13.808825917642004 6.833596594924003 1.4662882407839994 0 0 0
1356 8 15.78151533444801 7.972529360745 0 0 0 0
1354 12 17.754204751254 6.833596594924003 1.4662882407839994 0 0 0
1362 4 19.726894168060007 7.972529360745 0 0 0 0
1360 10 21.699583584865998 6.833596594924003 1.4662882407839994 0 0 0
1368 8 23.672273001672004 7.972529360745 0 0 0 0
1366 12 25.64496241847801 6.833596594924003 1.4662882407839994 0 0 0
1374 4 27.617651835284 7.972529360745 0 0 0 0
1372 10 29.590341252090006 6.833596594924003 1.4662882407839994 0 0 0
1380 8 31.563030668895998 7.972529360745 0 0 0 0
1378 12 33.535720085702 6.833596594924003 1.4662882407839994 0 0 0
1386 4 35.50840950250801 7.972529360745 0 0 0 0
1384 10 37.481098919314 6.833596594924003 1.4662882407839994 0 0 0
1392 8 39.453788336120006 7.972529360745 0 0 0 0
1390 12 41.426477752926 6.833596594924003 1.4662882407839994 0 0 0
1398 4 43.399167169732 7.972529360745 0 0 0 0
1396 10 45.37185658653801 6.833596594924003 1.4662882407839994 0 0 0
1404 8 47.344546003344 7.972529360745 0 0 0 0
1402 12 49.317235420150006 6.833596594924003 1.4662882407839994 0 0 0
1254 4 51.289924836956 7.972529360745 0 -1 0 0
1252 10 53.262614253761996 6.833596594924003 1.4662882407839994 -1 0 0
1260 8 55.235303670567994 7.972529360745 0 -1 0 0
1258 12 57.207993087374 6.833596594924003 1.4662882407839994 -1 0 0
1266 4 59.18068250418 7.972529360745 0 -1 0 0
1264 10 61.153371920986 6.833596594924003 1.4662882407839994 -1 0 0
1272 8 63.126061337791995 7.972529360745 0 -1 0 0
1270 12 65.098750754598 6.833596594924003 1.4662882407839994 -1 0 0
1278 4 67.07144017140399 7.972529360745 0 -1 0 0
1276 10 69.04412958821 6.833596594924003 1.4662882407839994 -1 0 0
1284 8 71.016819005016 7.972529360745 0 -1 0 0
1282 12 72.989508421822 6.833596594924003 1.4662882407839994 -1 0 0
1290 4 74.962197838628 7.972529360745 0 -1 0 0
1288 10 76.93488725543399 6.833596594924003 1.4662882407839994 -1 0 0
1296 8 78.90757667224 7.972529360745 0 -1 0 0
1294 12 80.88026608904599 6.833596594924003 1.4662882407839994 -1 0 0
1302 4 82.852955505852 7.972529360745 0 -1 0 0
1300 10 84.825644922658 6.833596594924003 1.4662882407839994 -1 0 0
1308 8 86.79833433946399 7.972529360745 0 -1 0 0
1306 12 88.77102375627 6.833596594924003 1.4662882407839994 -1 0 0
1314 4 90.743713173076 7.972529360745 0 -1 0 0
1312 10 92.716402589882 6.833596594924003 1.4662882407839994 -1 0 0
1320 8 94.689092006688 7.972529360745 0 -1 0 0
1318 12 96.661781423494 6.833596594924003 1.4662882407839994 -1 0 0
1326 4 98.6344708403 7.972529360745 0 -1 0 0
1324 10 100.60716025710599 6.833596594924003 1.4662882407839994 -1 0 0
1485 6 1.9726894168060056 11.389327658207002 0 0 0 0
1483 11 0 10.250394892386005 1.4662882407839994 0 0 0
1489 9 3.945378833612004 10.250394892386005 1.4662882407839994 0 0 0
1491 2 5.918068250418003 11.389327658207002 0 0 0 0
1495 11 7.890757667224001 10.250394892386005 1.4662882407839994 0 0 0
1497 6 9.86344708403 11.389327658207002 0 0 0 0
1501 9 11.836136500836005 10.250394892386005 1.4662882407839994 0 0 0
1503 2 13.808825917642004 11.389327658207002 0 0 0 0
1507 11 15.78151533444801 10.250394892386005 1.4662882407839994 0 0 0
1509 6 17.754204751254 11.389327658207002 0 0 0 0
1513 9 19.726894168060007 10.250394892386005 1.4662882407839994 0 0 0
1515 2 21.699583584865998 11.389327658207002 0 0 0 0
1519 11 23.672273001672004 10.250394892386005 1.4662882407839994 0 0 0
1521 6 25.64496241847801 11.389327658207002 0 0 0 0
1525 9 27.617651835284 10.250394892386005 1.4662882407839994 0 0 0
1527 2 29.590341252090006 11.389327658207002 0 0 0 0
1531 11 31.563030668895998 10.250394892386005 1.4662882407839994 0 0 0
1533 6 33.535720085702 11.389327658207002 0 0 0 0
1537 9 35.50840950250801 10.250394892386005 1.4662882407839994 0 0 0
1539 2 37.481098919314 11.389327658207002 0 0 0 0
1543 11 39.453788336120006 10.250394892386005 1.4662882407839994 0 0 0
1545 6 41.426477752926 11.389327658207002 0 0 0 0
1549 9 43.399167169732 10.250394892386005 1.4662882407839994 0 0 0
1551 2 45.37185658653801 11.389327658207002 0 0 0 0
1555 11 47.344546003344 10.250394892386005 1.4662882407839994 0 0 0
1557 6 49.317235420150006 11.389327658207002 0 0 0 0
1405 9 51.289924836956 10.250394892386005 1.4662882407839994 -1 0 0
1407 2 53.262614253761996 11.389327658207002 0 -1 0 0
1411 11 55.235303670567994 10.250394892386005 1.4662882407839994 -1 0 0
1413 6 57.207993087374 11.389327658207002 0 -1 0 0
1417 9 59.18068250418 10.250394892386005 1.4662882407839994 -1 0 0
1419 2 61.153371920986 11.389327658207002 0 -1 0 0
1423 11 63.126061337791995 10.250394892386005 1.4662882407839994 -1 0 0
1425 6 65.098750754598 11.389327658207002 0 -1 0 0
1429 9 67.07144017140399 10.250394892386005 1.4662882407839994 -1 0 0
1431 2 69.04412958821 11.389327658207002 0 -1 0 0
1435 11 71.016819005016 10.250394892386005 1.4662882407839994 -1 0 0
1437 6 72.989508421822 11.389327658207002 0 -1 0 0
1441 9 74.962197838628 10.250394892386005 1.4662882407839994 -1 0 0
1443 2 76.93488725543399 11.389327658207002 0 -1 0 0
1447 11 78.90757667224 10.250394892386005 1.4662882407839994 -1 0 0
1449 6 80.88026608904599 11.389327658207002 0 -1 0 0
1453 9 82.852955505852 10.250394892386005 1.4662882407839994 -1 0 0
1455 2 84.825644922658 11.389327658207002 0 -1 0 0
1459 11 86.79833433946399 10.250394892386005 1.4662882407839994 -1 0 0
1461 6 88.77102375627 11.389327658207002 0 -1 0 0
1465 9 90.743713173076 10.250394892386005 1.4662882407839994 -1 0 0
1467 2 92.716402589882 11.389327658207002 0 -1 0 0
1471 11 94.689092006688 10.250394892386005 1.4662882407839994 -1 0 0
1473 6 96.661781423494 11.389327658207002 0 -1 0 0
1477 9 98.6344708403 10.250394892386005 1.4662882407839994 -1 0 0
1479 2 100.60716025710599 11.389327658207002 0 -1 0 0
1486 12 1.9726894168060056 13.667193189848 1.4662882407839994 0 0 0
1492 10 5.918068250418003 13.667193189848 1.4662882407839994 0 0 0
1498 12 9.86344708403 13.667193189848 1.4662882407839994 0 0 0
1504 10 13.808825917642004 13.667193189848 1.4662882407839994 0 0 0
1510 12 17.754204751254 13.667193189848 1.4662882407839994 0 0 0
1516 10 21.699583584865998 13.667193189848 1.4662882407839994 0 0 0
1522 12 25.64496241847801 13.667193189848 1.4662882407839994 0 0 0
1528 10 29.590341252090006 13.667193189848 1.4662882407839994 0 0 0
1534 12 33.535720085702 13.667193189848 1.4662882407839994 0 0 0
1540 10 37.481098919314 13.667193189848 1.4662882407839994 0 0 0
1546 12 41.426477752926 13.667193189848 1.4662882407839994 0 0 0
1552 10 45.37185658653801 13.667193189848 1.4662882407839994 0 0 0
1558 12 49.317235420150006 13.667193189848 1.4662882407839994 0 0 0
1408 10 53.262614253761996 13.667193189848 1.4662882407839994 -1 0 0
1414 12 57.207993087374 13.667193189848 1.4662882407839994 -1 0 0
1420 10 61.153371920986 13.667193189848 1.4662882407839994 -1 0 0
1426 12 65.098750754598 13.667193189848 1.4662882407839994 -1 0 0
1432 10 69.04412958821 13.667193189848 1.4662882407839994 -1 0 0
1438 12 72.989508421822 13.667193189848 1.4662882407839994 -1 0 0
1444 10 76.93488725543399 13.667193189848 1.4662882407839994 -1 0 0
1450 12 80.88026608904599 13.667193189848 1.4662882407839994 -1 0 0
1456 10 84.825644922658 13.667193189848 1.4662882407839994 -1 0 0
1462 12 88.77102375627 13.667193189848 1.4662882407839994 -1 0 0
1468 10 92.716402589882 13.667193189848 1.4662882407839994 -1 0 0
1474 12 96.661781423494 13.667193189848 1.4662882407839994 -1 0 0
1480 10 100.60716025710599 13.667193189848 1.4662882407839994 -1 0 0
1488 8 0 14.806125955668996 0 0 0 0
1494 4 3.945378833612004 14.806125955668996 0 0 0 0
1500 8 7.890757667224001 14.806125955668996 0 0 0 0
1506 4 11.836136500836005 14.806125955668996 0 0 0 0
1512 8 15.78151533444801 14.806125955668996 0 0 0 0
1518 4 19.726894168060007 14.806125955668996 0 0 0 0
1524 8 23.672273001672004 14.806125955668996 0 0 0 0
1530 4 27.617651835284 14.806125955668996 0 0 0 0
1536 8 31.563030668895998 14.806125955668996 0 0 0 0
1542 4 35.50840950250801 14.806125955668996 0 0 0 0
1548 8 39.453788336120006 14.806125955668996 0 0 0 0
1554 4 43.399167169732 14.806125955668996 0 0 0 0
1560 8 47.344546003344 14.806125955668996 0 0 0 0
1410 4 51.289924836956 14.806125955668996 0 -1 0 0
1416 8 55.235303670567994 14.806125955668996 0 -1 0 0
1422 4 59.18068250418 14.806125955668996 0 -1 0 0
1428 8 63.126061337791995 14.806125955668996 0 -1 0 0
1434 4 67.07144017140399 14.806125955668996 0 -1 0 0
1440 8 71.016819005016 14.806125955668996 0 -1 0 0
1446 4 74.962197838628 14.806125955668996 0 -1 0 0
1452 8 78.90757667224 14.806125955668996 0 -1 0 0
1458 4 82.852955505852 14.806125955668996 0 -1 0 0
1464 8 86.79833433946399 14.806125955668996 0 -1 0 0
1470 4 90.743713173076 14.806125955668996 0 -1 0 0
1476 8 94.689092006688 14.806125955668996 0 -1 0 0
1482 4 98.6344708403 14.806125955668996 0 -1 0 0
1639 11 0 17.08399148731001 1.4662882407839994 0 0 0
1645 9 3.945378833612004 17.08399148731001 1.4662882407839994 0 0 0
1651 11 7.890757667224001 17.08399148731001 1.4662882407839994 0 0 0
1657 9 11.836136500836005 17.08399148731001 1.4662882407839994 0 0 0
1663 11 15.78151533444801 17.08399148731001 1.4662882407839994 0 0 0
1669 9 19.726894168060007 17.08399148731001 1.4662882407839994 0 0 0
1675 11 23.672273001672004 17.08399148731001 1.4662882407839994 0 0 0
1681 9 27.617651835284 17.08399148731001 1.4662882407839994 0 0 0
1687 11 31.563030668895998 17.08399148731001 1.4662882407839994 0 0 0
1693 9 35.50840950250801 17.08399148731001 1.4662882407839994 0 0 0
1699 11 39.453788336120006 17.08399148731001 1.4662882407839994 0 0 0
1705 9 43.399167169732 17.08399148731001 1.4662882407839994 0 0 0
1711 11 47.344546003344 17.08399148731001 1.4662882407839994 0 0 0
1561 9 51.289924836956 17.08399148731001 1.4662882407839994 -1 0 0
1567 11 55.235303670567994 17.08399148731001 1.4662882407839994 -1 0 0
1573 9 59.18068250418 17.08399148731001 1.4662882407839994 -1 0 0
1579 11 63.126061337791995 17.08399148731001 1.4662882407839994 -1 0 0
1585 9 67.07144017140399 17.08399148731001 1.4662882407839994 -1 0 0
1591 11 71.016819005016 17.08399148731001 1.4662882407839994 -1 0 0
1597 9 74.962197838628 17.08399148731001 1.4662882407839994 -1 0 0
1603 11 78.90757667224 17.08399148731001 1.4662882407839994 -1 0 0
1609 9 82.852955505852 17.08399148731001 1.4662882407839994 -1 0 0
1615 11 86.79833433946399 17.08399148731001 1.4662882407839994 -1 0 0
1621 9 90.743713173076 17.08399148731001 1.4662882407839994 -1 0 0
1627 11 94.689092006688 17.08399148731001 1.4662882407839994 -1 0 0
1633 9 98.6344708403 17.08399148731001 1.4662882407839994 -1 0 0
1641 6 1.9726894168060056 18.222924253131005 0 0 0 0
1647 2 5.918068250418003 18.222924253131005 0 0 0 0
1653 6 9.86344708403 18.222924253131005 0 0 0 0
1659 2 13.808825917642004 18.222924253131005 0 0 0 0
1665 6 17.754204751254 18.222924253131005 0 0 0 0
1671 2 21.699583584865998 18.222924253131005 0 0 0 0
1677 6 25.64496241847801 18.222924253131005 0 0 0 0
1683 2 29.590341252090006 18.222924253131005 0 0 0 0
1689 6 33.535720085702 18.222924253131005 0 0 0 0
1695 2 37.481098919314 18.222924253131005 0 0 0 0
1701 6 41.426477752926 18.222924253131005 0 0 0 0
1707 2 45.37185658653801 18.222924253131005 0 0 0 0
1713 6 49.317235420150006 18.222924253131005 0 0 0 0
1563 2 53.262614253761996 18.222924253131005 0 -1 0 0
1569 6 57.207993087374 18.222924253131005 0 -1 0 0
1575 2 61.153371920986 18.222924253131005 0 -1 0 0
1581 6 65.098750754598 18.222924253131005 0 -1 0 0
1587 2 69.04412958821 18.222924253131005 0 -1 0 0
1593 6 72.989508421822 18.222924253131005 0 -1 0 0
1599 2 76.93488725543399 18.222924253131005 0 -1 0 0
1605 6 80.88026608904599 18.222924253131005 0 -1 0 0
1611 2 84.825644922658 18.222924253131005 0 -1 0 0
1617 6 88.77102375627 18.222924253131005 0 -1 0 0
1623 2 92.716402589882 18.222924253131005 0 -1 0 0
1629 6 96.661781423494 18.222924253131005 0 -1 0 0
1635 2 100.60716025710599 18.222924253131005 0 -1 0 0
1644 8 0 21.639722550593 0 0 0 0
1642 12 1.9726894168060056 20.500789784772003 1.4662882407839994 0 0 0
1650 4 3.945378833612004 21.639722550593 0 0 0 0
1648 10 5.918068250418003 20.500789784772003 1.4662882407839994 0 0 0
1656 8 7.890757667224001 21.639722550593 0 0 0 0
1654 12 9.86344708403 20.500789784772003 1.4662882407839994 0 0 0
1662 4 11.836136500836005 21.639722550593 0 0 0 0
1660 10 13.808825917642004 20.500789784772003 1.4662882407839994 0 0 0
1668 8 15.78151533444801 21.639722550593 0 0 0 0
1666 12 17.754204751254 20.500789784772003 1.4662882407839994 0 0 0
1674 4 19.726894168060007 21.639722550593 0 0 0 0
1672 10 21.699583584865998 20.500789784772003 1.4662882407839994 0 0 0
1680 8 23.672273001672004 21.639722550593 0 0 0 0
1678 12 25.64496241847801 20.500789784772003 1.4662882407839994 0 0 0
1686 4 27.617651835284 21.639722550593 0 0 0 0
1684 10 29.590341252090006 20.500789784772003 1.4662882407839994 0 0 0
1692 8 31.563030668895998 21.639722550593 0 0 0 0
1690 12 33.535720085702 20.500789784772003 1.4662882407839994 0 0 0
1698 4 35.50840950250801 21.639722550593 0 0 0 0
1696 10 37.481098919314 20.500789784772003 1.4662882407839994 0 0 0
1704 8 39.453788336120006 21.639722550593 0 0 0 0
1702 12 41.426477752926 20.500789784772003 1.4662882407839994 0 0 0
1710 4 43.399167169732 21.639722550593 0 0 0 0
1708 10 45.37185658653801 20.500789784772003 1.4662882407839994 0 0 0
1716 8 47.344546003344 21.639722550593 0 0 0 0
1714 12 49.317235420150006 20.500789784772003 1.4662882407839994 0 0 0
1566 4 51.289924836956 21.639722550593 0 -1 0 0
1564 10 53.262614253761996 20.500789784772003 1.4662882407839994 -1 0 0
1572 8 55.235303670567994 21.639722550593 0 -1 0 0
1570 12 57.207993087374 20.500789784772003 1.4662882407839994 -1 0 0
1578 4 59.18068250418 21.639722550593 0 -1 0 0
1576 10 61.153371920986 20.500789784772003 1.4662882407839994 -1 0 0
1584 8 63.126061337791995 21.639722550593 0 -1 0 0
1582 12 65.098750754598 20.500789784772003 1.4662882407839994 -1 0 0
1590 4 67.07144017140399 21.639722550593 0 -1 0 0
1588 10 69.04412958821 20.500789784772003 1.4662882407839994 -1 0 0
1596 8 71.016819005016 21.639722550593 0 -1 0 0
1594 12 72.989508421822 20.500789784772003 1.4662882407839994 -1 0 0
1602 4 74.962197838628 21.639722550593 0 -1 0 0
1600 10 76.93488725543399 20.500789784772003 1.4662882407839994 -1 0 0
1608 8 78.90757667224 21.639722550593 0 -1 0 0
1606 12 80.88026608904599 20.500789784772003 1.4662882407839994 -1 0 0
1614 4 82.852955505852 21.639722550593 0 -1 0 0
1612 10 84.825644922658 20.500789784772003 1.4662882407839994 -1 0 0
1620 8 86.79833433946399 21.639722550593 0 -1 0 0
1618 12 88.77102375627 20.500789784772003 1.4662882407839994 -1 0 0
1626 4 90.743713173076 21.639722550593 0 -1 0 0
1624 10 92.716402589882 20.500789784772003 1.4662882407839994 -1 0 0
1632 8 94.689092006688 21.639722550593 0 -1 0 0
1630 12 96.661781423494 20.500789784772003 1.4662882407839994 -1 0 0
1638 4 98.6344708403 21.639722550593 0 -1 0 0
1636 10 100.60716025710599 20.500789784772003 1.4662882407839994 -1 0 0
1795 11 0 23.917588082233998 1.4662882407839994 0 0 0
1801 9 3.945378833612004 23.917588082233998 1.4662882407839994 0 0 0
1807 11 7.890757667224001 23.917588082233998 1.4662882407839994 0 0 0
1813 9 11.836136500836005 23.917588082233998 1.4662882407839994 0 0 0
1819 11 15.78151533444801 23.917588082233998 1.4662882407839994 0 0 0
1825 9 19.726894168060007 23.917588082233998 1.4662882407839994 0 0 0
1831 11 23.672273001672004 23.917588082233998 1.4662882407839994 0 0 0
1837 9 27.617651835284 23.917588082233998 1.4662882407839994 0 0 0
1843 11 31.563030668895998 23.917588082233998 1.4662882407839994 0 0 0
1849 9 35.50840950250801 23.917588082233998 1.4662882407839994 0 0 0
1855 11 39.453788336120006 23.917588082233998 1.4662882407839994 0 0 0
1861 9 43.399167169732 23.917588082233998 1.4662882407839994 0 0 0
1867 11 47.344546003344 23.917588082233998 1.4662882407839994 0 0 0
1717 9 51.289924836956 23.917588082233998 1.4662882407839994 -1 0 0
1723 11 55.235303670567994 23.917588082233998 1.4662882407839994 -1 0 0
1729 9 59.18068250418 23.917588082233998 1.4662882407839994 -1 0 0
1735 11 63.126061337791995 23.917588082233998 1.4662882407839994 -1 0 0
1741 9 67.07144017140399 23.917588082233998 1.4662882407839994 -1 0 0
1747 11 71.016819005016 23.917588082233998 1.4662882407839994 -1 0 0
1753 9 74.962197838628 23.917588082233998 1.4662882407839994 -1 0 0
1759 11 78.90757667224 23.917588082233998 1.4662882407839994 -1 0 0
1765 9 82.852955505852 23.917588082233998 1.4662882407839994 -1 0 0
1771 11 86.79833433946399 23.917588082233998 1.4662882407839994 -1 0 0
1777 9 90.743713173076 23.917588082233998 1.4662882407839994 -1 0 0
1783 11 94.689092006688 23.917588082233998 1.4662882407839994 -1 0 0
1789 9 98.6344708403 23.917588082233998 1.4662882407839994 -1 0 0
1797 6 1.9726894168060056 25.05652084805501 0 0 0 0
1803 2 5.918068250418003 25.05652084805501 0 0 0 0
1809 6 9.86344708403 25.05652084805501 0 0 0 0
1815 2 13.808825917642004 25.05652084805501 0 0 0 0
1821 6 17.754204751254 25.05652084805501 0 0 0 0
1827 2 21.699583584865998 25.05652084805501 0 0 0 0
1833 6 25.64496241847801 25.05652084805501 0 0 0 0
1839 2 29.590341252090006 25.05652084805501 0 0 0 0
1845 6 33.535720085702 25.05652084805501 0 0 0 0
1851 2 37.481098919314 25.05652084805501 0 0 0 0
1857 6 41.426477752926 25.05652084805501 0 0 0 0
1863 2 45.37185658653801 25.05652084805501 0 0 0 0
1869 6 49.317235420150006 25.05652084805501 0 0 0 0
1719 2 53.262614253761996 25.05652084805501 0 -1 0 0
1725 6 57.207993087374 25.05652084805501 0 -1 0 0
1731 2 61.153371920986 25.05652084805501 0 -1 0 0
1737 6 65.098750754598 25.05652084805501 0 -1 0 0
1743 2 69.04412958821 25.05652084805501 0 -1 0 0
1749 6 72.989508421822 25.05652084805501 0 -1 0 0
1755 2 76.93488725543399 25.05652084805501 0 -1 0 0
1761 6 80.88026608904599 25.05652084805501 0 -1 0 0
1767 2 84.825644922658 25.05652084805501 0 -1 0 0
1773 6 88.77102375627 25.05652084805501 0 -1 0 0
1779 2 92.716402589882 25.05652084805501 0 -1 0 0
1785 6 96.661781423494 25.05652084805501 0 -1 0 0
1791 2 100.60716025710599 25.05652084805501 0 -1 0 0
1798 12 1.9726894168060056 27.334386379696006 1.4662882407839994 0 0 0
1804 10 5.918068250418003 27.334386379696006 1.4662882407839994 0 0 0
1810 12 9.86344708403 27.334386379696006 1.4662882407839994 0 0 0
1816 10 13.808825917642004 27.334386379696006 1.4662882407839994 0 0 0
1822 12 17.754204751254 27.334386379696006 1.4662882407839994 0 0 0
1828 10 21.699583584865998 27.334386379696006 1.4662882407839994 0 0 0
1834 12 25.64496241847801 27.334386379696006 1.4662882407839994 0 0 0
1840 10 29.590341252090006 27.334386379696006 1.4662882407839994 0 0 0
1846 12 33.535720085702 27.334386379696006 1.4662882407839994 0 0 0
1852 10 37.481098919314 27.334386379696006 1.4662882407839994 0 0 0
1858 12 41.426477752926 27.334386379696006 1.4662882407839994 0 0 0
1864 10 45.37185658653801 27.334386379696006 1.4662882407839994 0 0 0
1870 12 49.317235420150006 27.334386379696006 1.4662882407839994 0 0 0
1720 10 53.262614253761996 27.334386379696006 1.4662882407839994 -1 0 0
1726 12 57.207993087374 27.334386379696006 1.4662882407839994 -1 0 0
1732 10 61.153371920986 27.334386379696006 1.4662882407839994 -1 0 0
1738 12 65.098750754598 27.334386379696006 1.4662882407839994 -1 0 0
1744 10 69.04412958821 27.334386379696006 1.4662882407839994 -1 0 0
1750 12 72.989508421822 27.334386379696006 1.4662882407839994 -1 0 0
1756 10 76.93488725543399 27.334386379696006 1.4662882407839994 -1 0 0
1762 12 80.88026608904599 27.334386379696006 1.4662882407839994 -1 0 0
1768 10 84.825644922658 27.334386379696006 1.4662882407839994 -1 0 0
1774 12 88.77102375627 27.334386379696006 1.4662882407839994 -1 0 0
1780 10 92.716402589882 27.334386379696006 1.4662882407839994 -1 0 0
1786 12 96.661781423494 27.334386379696006 1.4662882407839994 -1 0 0
1792 10 100.60716025710599 27.334386379696006 1.4662882407839994 -1 0 0
1800 8 0 28.473319145517003 0 0 0 0
1806 4 3.945378833612004 28.473319145517003 0 0 0 0
1812 8 7.890757667224001 28.473319145517003 0 0 0 0
1818 4 11.836136500836005 28.473319145517003 0 0 0 0
1824 8 15.78151533444801 28.473319145517003 0 0 0 0
1830 4 19.726894168060007 28.473319145517003 0 0 0 0
1836 8 23.672273001672004 28.473319145517003 0 0 0 0
1842 4 27.617651835284 28.473319145517003 0 0 0 0
1848 8 31.563030668895998 28.473319145517003 0 0 0 0
1854 4 35.50840950250801 28.473319145517003 0 0 0 0
1860 8 39.453788336120006 28.473319145517003 0 0 0 0
1866 4 43.399167169732 28.473319145517003 0 0 0 0
1872 8 47.344546003344 28.473319145517003 0 0 0 0
1722 4 51.289924836956 28.473319145517003 0 -1 0 0
1728 8 55.235303670567994 28.473319145517003 0 -1 0 0
1734 4 59.18068250418 28.473319145517003 0 -1 0 0
1740 8 63.126061337791995 28.473319145517003 0 -1 0 0
1746 4 67.07144017140399 28.473319145517003 0 -1 0 0
1752 8 71.016819005016 28.473319145517003 0 -1 0 0
1758 4 74.962197838628 28.473319145517003 0 -1 0 0
1764 8 78.90757667224 28.473319145517003 0 -1 0 0
1770 4 82.852955505852 28.473319145517003 0 -1 0 0
1776 8 86.79833433946399 28.473319145517003 0 -1 0 0
1782 4 90.743713173076 28.473319145517003 0 -1 0 0
1788 8 94.689092006688 28.473319145517003 0 -1 0 0
1794 4 98.6344708403 28.473319145517003 0 -1 0 0
1953 6 1.9726894168060056 31.890117442978998 0 0 0 0
1951 11 0 30.751184677158 1.4662882407839994 0 0 0
1957 9 3.945378833612004 30.751184677158 1.4662882407839994 0 0 0
1959 2 5.918068250418003 31.890117442978998 0 0 0 0
1963 11 7.890757667224001 30.751184677158 1.4662882407839994 0 0 0
1965 6 9.86344708403 31.890117442978998 0 0 0 0
1969 9 11.836136500836005 30.751184677158 1.4662882407839994 0 0 0
1971 2 13.808825917642004 31.890117442978998 0 0 0 0
1975 11 15.78151533444801 30.751184677158 1.4662882407839994 0 0 0
1977 6 17.754204751254 31.890117442978998 0 0 0 0
1981 9 19.726894168060007 30.751184677158 1.4662882407839994 0 0 0
1983 2 21.699583584865998 31.890117442978998 0 0 0 0
1987 11 23.672273001672004 30.751184677158 1.4662882407839994 0 0 0
1989 6 25.64496241847801 31.890117442978998 0 0 0 0
1993 9 27.617651835284 30.751184677158 1.4662882407839994 0 0 0
1995 2 29.590341252090006 31.890117442978998 0 0 0 0
1999 11 31.563030668895998 30.751184677158 1.4662882407839994 0 0 0
2001 6 33.535720085702 31.890117442978998 0 0 0 0
2005 9 35.50840950250801 30.751184677158 1.4662882407839994 0 0 0
2007 2 37.481098919314 31.890117442978998 0 0 0 0
2011 11 39.453788336120006 30.751184677158 1.4662882407839994 0 0 0
2013 6 41.426477752926 31.890117442978998 0 0 0 0
2017 9 43.399167169732 30.751184677158 1.4662882407839994 0 0 0
2019 2 45.37185658653801 31.890117442978998 0 0 0 0
2023 11 47.344546003344 30.751184677158 1.4662882407839994 0 0 0
2025 6 49.317235420150006 31.890117442978998 0 0 0 0
1873 9 51.289924836956 30.751184677158 1.4662882407839994 -1 0 0
1875 2 53.262614253761996 31.890117442978998 0 -1 0 0
1879 11 55.235303670567994 30.751184677158 1.4662882407839994 -1 0 0
1881 6 57.207993087374 31.890117442978998 0 -1 0 0
1885 9 59.18068250418 30.751184677158 1.4662882407839994 -1 0 0
1887 2 61.153371920986 31.890117442978998 0 -1 0 0
1891 11 63.126061337791995 30.751184677158 1.4662882407839994 -1 0 0
1893 6 65.098750754598 31.890117442978998 0 -1 0 0
1897 9 67.07144017140399 30.751184677158 1.4662882407839994 -1 0 0
1899 2 69.04412958821 31.890117442978998 0 -1 0 0
1903 11 71.016819005016 30.751184677158 1.4662882407839994 -1 0 0