LAMMPS data file via write_data, version 29 Aug 2024, timestep = 203, units = metal

7020 atoms
36 atom types

0 102.579849673912 xlo xhi
0 102.50394892386 ylo yhi
-50 50 zlo zhi

Masses

1 44.955908
2 44.955908
3 44.955908
4 44.955908
5 44.955908
6 44.955908
7 44.955908
8 44.955908
9 44.955908
10 44.955908
11 44.955908
12 44.955908
13 78.971
14 78.971
15 78.971
16 78.971
17 78.971
18 78.971
19 78.971
20 78.971
21 78.971
22 78.971
23 78.971
24 78.971
25 78.971
26 78.971
27 78.971
28 78.971
29 78.971
30 78.971
31 78.971
32 78.971
33 78.971
34 78.971
35 78.971
36 78.971

Atoms # atomic

1174 20 1.628071927711952 0.3086871993872799 1.5666948465224437 0 0 0
1182 4 3.430683204152175 1.0527873753687496 -0.23373074000005814 0 0 0
1327 19 1.0742573764615824 4.088644483908844 2.6693994233979597 0 0 0
1333 17 2.565349169153422 2.6561256525452563 1.6907845391631495 0 0 0
1329 14 1.0884967870641657 4.133916499645471 2.665639113164526 0 0 0
1180 18 5.205862319337534 1.4416125299574634 1.7055301380673722 0 0 0
1323 2 1.2922056022194206 3.9903173783993098 0.016103652698407245 0 0 0
1186 20 9.518829594936 0.3086871993872865 1.5666948465222068 0 0 0
1339 19 8.96501504368555 4.0886444839087135 2.6693994233978318 0 0 0
1335 2 9.182963269443235 3.9903173783989208 0.016103652698268727 0 0 0
1341 14 8.979254454288565 4.133916499644998 2.6656391131644397 0 0 0
1187 15 7.522740205098457 1.1537662326568534 1.792598744351993 0 0 0
1194 4 11.321440871376346 1.0527873753687405 -0.23373074000020916 0 0 0
1345 17 10.456106836377423 2.656125652545142 1.69078453916303 0 0 0
1192 18 13.096619986561558 1.4416125299574813 1.7055301380673364 0 0 0
1351 19 16.85577271090959 4.088644483908902 2.6693994233979215 0 0 0
1347 2 17.073720936667254 3.990317378399037 0.016103652698351383 0 0 0
1199 15 15.413497872322163 1.1537662326571128 1.792598744351966 0 0 0
1353 14 16.870012121512676 4.1339164996451565 2.6656391131645343 0 0 0
1198 20 17.409587262159903 0.30868719938743794 1.5666948465225812 0 0 0
1206 4 19.212198538600152 1.052787375368942 -0.23373073999987104 0 0 0
1204 18 20.987377653785522 1.4416125299574505 1.705530138067569 0 0 0
1357 17 18.346864503601445 2.6561256525452728 1.690784539163494 0 0 0
1359 2 24.964478603891322 3.9903173783991135 0.01610365269833459 0 0 0
1210 20 25.300344929383844 0.3086871993871492 1.5666948465223194 0 0 0
1218 4 27.102956205824132 1.0527873753686372 -0.23373074000013477 0 0 0
1363 19 24.746530378133667 4.0886444839087615 2.6693994233979077 0 0 0
1369 17 26.237622170825226 2.6561256525449433 1.6907845391631924 0 0 0
1365 14 24.76076978873647 4.133916499645181 2.6656391131644956 0 0 0
1211 15 23.304255539546123 1.1537662326569504 1.7925987443521005 0 0 0
1216 18 28.878135321009427 1.4416125299572915 1.705530138067379 0 0 0
1222 20 33.19110259660796 0.3086871993871535 1.5666948465221218 0 0 0
1375 19 32.637288045357884 4.088644483908926 2.669399423398124 0 0 0
1371 2 32.85523627111557 3.990317378399196 0.016103652698562378 0 0 0
1377 14 32.65152745596076 4.133916499645387 2.6656391131647155 0 0 0
1223 15 31.19501320676979 1.1537662326571771 1.7925987443521056 0 0 0
1381 17 34.128379838049256 2.656125652545084 1.690784539162901 0 0 0
1230 4 34.99371387304825 1.052787375368672 -0.23373074000026392 0 0 0
1228 18 36.768892988233475 1.4416125299574956 1.7055301380672792 0 0 0
1235 15 39.08577087399434 1.1537662326570808 1.7925987443518896 0 0 0
1387 19 40.52804571258151 4.088644483908935 2.6693994233980316 0 0 0
1383 2 40.745993938339495 3.9903173783994372 0.016103652698469306 0 0 0
1234 20 41.081860263831985 0.30868719938747363 1.566694846522737 0 0 0
1242 4 42.88447154027219 1.0527873753689896 -0.2337307399997304 0 0 0
1240 18 44.65965065545765 1.4416125299574256 1.7055301380676988 0 0 0
1393 17 42.019137505273555 2.656125652545393 1.6907845391635978 0 0 0
1389 14 40.542285123183945 4.133916499645629 2.6656391131645853 0 0 0
1395 2 48.63675160556341 3.9903173783991233 0.01610365269840636 0 0 0
1246 20 48.97261793105598 0.3086871993869426 1.566694846522027 0 0 0
1399 19 48.4188033798057 4.088644483908675 2.669399423397959 0 0 0
1401 14 48.43304279040829 4.1339164996452125 2.6656391131645276 0 0 0
1247 15 46.97652854121803 1.153766232656993 1.792598744352229 0 0 0
1098 4 50.77522920749636 1.0527873753684456 -0.233730740000336 -1 0 0
1249 17 49.909895172497265 2.6561256525449104 1.6907845391627792 -1 0 0
1096 18 52.55040832268145 1.4416125299574025 1.7055301380672903 -1 0 0
1255 19 56.30956104702963 4.088644483908979 2.669399423397971 -1 0 0
1251 2 56.527509272787405 3.9903173783991237 0.016103652698403005 -1 0 0
1103 15 54.86728620844199 1.153766232657271 1.7925987443519422 -1 0 0
1102 20 56.86337559827983 0.3086871993873534 1.566694846522832 -1 0 0
1257 14 56.323800457632665 4.133916499645281 2.6656391131645796 -1 0 0
1110 4 58.665986874719856 1.052787375368824 -0.23373073999979138 -1 0 0
1108 18 60.441165989905464 1.441612529957441 1.705530138067478 -1 0 0
1261 17 57.80065283972129 2.6561256525451946 1.6907845391635814 -1 0 0
1263 2 64.4182669400114 3.9903173783989545 0.0161036526983717 -1 0 0
1114 20 64.75413326550373 0.3086871993868675 1.5666948465220543 -1 0 0
1122 4 66.55674454194379 1.0527873753683332 -0.2337307400005471 -1 0 0
1267 19 64.20031871425383 4.088644483908724 2.6693994233979224 -1 0 0
1273 17 65.69141050694485 2.6561256525447208 1.6907845391626979 -1 0 0
1269 14 64.21455812485692 4.13391649964504 2.6656391131645374 -1 0 0
1115 15 62.75804387566596 1.1537662326569862 1.7925987443522193 -1 0 0
1120 18 68.33192365712924 1.4416125299573626 1.705530138066842 -1 0 0
1126 20 72.64489093272805 0.3086871993873228 1.5666948465223827 -1 0 0
1279 19 72.0910763814776 4.088644483909062 2.669399423398003 -1 0 0
1275 2 72.30902460723537 3.9903173783991694 0.016103652698414184 -1 0 0
1281 14 72.10531579208067 4.133916499645393 2.6656391131646124 -1 0 0
1127 15 70.64880154289041 1.1537662326567637 1.7925987443516398 -1 0 0
1285 17 73.5821681741695 2.6561256525451165 1.6907845391633936 -1 0 0
1134 4 74.44750220916829 1.052787375368912 -0.23373074000004326 -1 0 0
1132 18 76.22268132435367 1.4416125299573659 1.7055301380674293 -1 0 0
1139 15 78.53955921011422 1.1537662326569054 1.7925987443519946 -1 0 0
1291 19 79.9818340487016 4.088644483908795 2.669399423397891 -1 0 0
1287 2 80.19978227445937 3.9903173783990424 0.016103652698315714 -1 0 0
1138 20 80.53564859995186 0.30868719938711664 1.5666948465222812 -1 0 0
1146 4 82.33825987639212 1.0527873753686112 -0.2337307400001721 -1 0 0
1144 18 84.11343899157741 1.4416125299574214 1.705530138067281 -1 0 0
1297 17 81.47292584139322 2.656125652544894 1.6907845391631504 -1 0 0
1293 14 79.99607345930457 4.133916499645101 2.6656391131644948 -1 0 0
1299 2 88.09053994168356 3.990317378399346 0.01610365269849194 -1 0 0
1150 20 88.42640626717585 0.3086871993870902 1.5666948465221622 -1 0 0
1158 4 90.22901754361612 1.0527873753686365 -0.23373074000028207 -1 0 0
1303 19 87.87259171592596 4.088644483908974 2.6693994233980636 -1 0 0
1309 17 89.36368350861713 2.6561256525448917 1.690784539163077 -1 0 0
1305 14 87.88683112652862 4.1339164996455775 2.665639113164633 -1 0 0
1151 15 86.43031687733793 1.15376623265718 1.792598744352016 -1 0 0
1156 18 92.00419665880139 1.4416125299573295 1.705530138067304 -1 0 0
1162 20 96.31716393439976 0.30868719938734285 1.5666948465224295 -1 0 0
1315 19 95.76334938314986 4.088644483908932 2.6693994233980582 -1 0 0
1311 2 95.98129760890762 3.9903173783991304 0.0161036526984877 -1 0 0
1317 14 95.7775887937528 4.133916499645324 2.665639113164659 -1 0 0
1163 15 94.3210745445616 1.153766232657329 1.792598744352078 -1 0 0
1175 15 102.21183221178629 1.1537662326569058 1.7925987443519704 -1 0 0
1170 4 98.11977521083998 1.0527873753688515 -0.2337307400000678 -1 0 0
1168 18 99.89495432602534 1.4416125299574871 1.705530138067353 -1 0 0
1321 17 97.2544411758412 2.6561256525451995 1.6907845391632585 -1 0 0
1330 20 1.6280719277121183 7.14228379431135 1.5666948465222976 0 0 0
1338 4 3.4306832041524418 7.886383970292807 -0.23373074000008812 0 0 0
1483 19 1.074257376461769 10.922241078832853 2.6693994233979823 0 0 0
1489 17 2.5653491691536225 9.489722247469212 1.690784539163157 0 0 0
1336 18 5.205862319337725 8.275209124881405 1.7055301380674173 0 0 0
1485 14 1.0884967870642994 10.967513094569593 2.6656391131645405 0 0 0
1479 2 1.2922056022196 10.823913973323375 0.01610365269841984 0 0 0
1334 1 6.07909813423392 5.76744532867125 1.6552244123115047 0 0 0
1344 16 7.73968001846309 6.190457399943087 -0.3823728948400973 0 0 0
1342 20 9.518829594936014 7.142283794311259 1.5666948465224158 0 0 0
1495 19 8.965015043685698 10.922241078832732 2.6693994233979335 0 0 0
1343 15 7.522740205098844 7.987362827580674 1.7925987443519338 0 0 0
1350 4 11.321440871376339 7.886383970292676 -0.23373073999998328 0 0 0
1501 17 10.456106836377502 9.48972224746915 1.6907845391631886 0 0 0
1491 2 9.182963269443405 10.823913973323045 0.016103652698365716 0 0 0
1497 14 8.979254454288533 10.967513094569211 2.6656391131645214 0 0 0
1346 1 13.969855801457934 5.767445328671276 1.6552244123116653 0 0 0
1348 18 13.096619986561603 8.275209124881382 1.7055301380675132 0 0 0
1356 16 15.630437685687081 6.190457399943174 -0.38237289483995973 0 0 0
1507 19 16.85577271090998 10.922241078832768 2.6693994233980334 0 0 0
1355 15 15.413497872322663 7.98736282758083 1.7925987443520806 0 0 0
1503 2 17.073720936667478 10.823913973323162 0.016103652698456396 0 0 0
1509 14 16.8700121215127 10.967513094569393 2.6656391131646058 0 0 0
1358 1 21.860613468681905 5.76744532867137 1.6552244123115556 0 0 0
1354 20 17.40958726215998 7.142283794311283 1.5666948465222572 0 0 0
1362 4 19.21219853860027 7.886383970292607 -0.23373074000022412 0 0 0
1360 18 20.987377653785543 8.275209124881483 1.7055301380672436 0 0 0
1513 17 18.34686450360142 9.489722247469212 1.6907845391628482 0 0 0
1368 16 23.521195352911004 6.190457399943133 -0.38237289484015574 0 0 0
1366 20 25.300344929384003 7.142283794311299 1.5666948465223722 0 0 0
1374 4 27.1029562058243 7.886383970292672 -0.23373074000007 0 0 0
1519 19 24.746530378133933 10.92224107883282 2.6693994233979637 0 0 0
1525 17 26.237622170825453 9.489722247469016 1.6907845391632121 0 0 0
1367 15 23.304255539546972 7.987362827580727 1.792598744351857 0 0 0
1515 2 24.96447860389152 10.823913973323151 0.0161036526983921 0 0 0
1521 14 24.76076978873673 10.967513094569378 2.6656391131645454 0 0 0
1370 1 29.751371135905934 5.767445328671233 1.655224412311479 0 0 0
1372 18 28.878135321009616 8.275209124881348 1.7055301380674035 0 0 0
1380 16 31.41195302013528 6.190457399943214 -0.38237289483996145 0 0 0
1378 20 33.191102596607834 7.142283794311158 1.5666948465222483 0 0 0
1531 19 32.6372880453582 10.922241078832894 2.6693994233981977 0 0 0
1379 15 31.195013206770636 7.987362827580812 1.7925987443520381 0 0 0
1537 17 34.1283798380492 9.489722247468999 1.6907845391630154 0 0 0
1527 2 32.85523627111579 10.823913973323306 0.016103652698623218 0 0 0
1533 14 32.65152745596089 10.967513094569597 2.665639113164768 0 0 0
1382 1 37.64212880312983 5.76744532867132 1.655224412311417 0 0 0
1386 4 34.99371387304804 7.886383970292612 -0.2337307400002256 0 0 0
1384 18 36.768892988233404 8.2752091248814 1.7055301380671959 0 0 0
1392 16 39.30271068735877 6.190457399943144 -0.38237289484043363 0 0 0
1391 15 39.08577087399504 7.987362827580594 1.7925987443518054 0 0 0
1394 1 45.532886470353944 5.767445328671294 1.655224412311484 0 0 0
1543 19 40.5280457125819 10.922241078832858 2.669399423398042 0 0 0
1390 20 41.08186026383208 7.1422837943114255 1.566694846522212 0 0 0
1398 4 42.88447154027246 7.88638397029276 -0.23373074000021105 0 0 0
1396 18 44.65965065545769 8.275209124881437 1.705530138067313 0 0 0
1549 17 42.01913750527361 9.489722247469262 1.6907845391629592 0 0 0
1539 2 40.74599393833964 10.82391397332344 0.016103652698464425 0 0 0
1545 14 40.54228512318436 10.967513094569727 2.665639113164589 0 0 0
1404 16 47.193468354583004 6.190457399943028 -0.38237289484022075 0 0 0
1402 20 48.97261793105599 7.142283794311231 1.5666948465223582 0 0 0
1555 19 48.41880337980592 10.922241078832801 2.6693994233980614 0 0 0
1403 15 46.976528541219075 7.9873628275805935 1.7925987443518434 0 0 0
1254 4 50.7752292074963 7.886383970292711 -0.23373074000000846 -1 0 0
1405 17 49.90989517249744 9.489722247468972 1.6907845391633292 -1 0 0
1551 2 48.63675160556363 10.823913973323137 0.01610365269849079 0 0 0
1557 14 48.43304279040865 10.967513094569382 2.6656391131646386 0 0 0
1250 1 53.42364413757793 5.767445328671201 1.6552244123115283 -1 0 0
1252 18 52.5504083226816 8.275209124881313 1.7055301380674952 -1 0 0
1260 16 55.08422602180719 6.19045739994324 -0.3823728948400007 -1 0 0
1411 19 56.309561047030144 10.92224107883286 2.6693994233981475 -1 0 0
1259 15 54.867286208442515 7.987362827580883 1.7925987443520515 -1 0 0
1258 20 56.86337559828 7.142283794311199 1.5666948465220547 -1 0 0
1407 2 56.52750927278773 10.823913973323366 0.016103652698559116 -1 0 0
1413 14 56.32380045763271 10.96751309456965 2.665639113164704 -1 0 0
1262 1 61.314401804801975 5.767445328671376 1.6552244123114954 -1 0 0
1266 4 58.66598687472035 7.88638397029248 -0.23373074000040847 -1 0 0
1264 18 60.44116598990554 8.275209124881451 1.7055301380671306 -1 0 0
1417 17 57.80065283972136 9.489722247469045 1.6907845391626588 -1 0 0
1272 16 62.97498368903135 6.190457399943195 -0.38237289483997733 -1 0 0
1270 20 64.75413326550391 7.142283794311415 1.5666948465223853 -1 0 0
1278 4 66.55674454194414 7.88638397029295 -0.2337307400000124 -1 0 0
1423 19 64.20031871425411 10.922241078833009 2.6693994233982408 -1 0 0
1429 17 65.69141050694539 9.489722247469079 1.6907845391634964 -1 0 0
1271 15 62.758043875666814 7.987362827580875 1.7925987443518285 -1 0 0
1276 18 68.33192365712956 8.275209124881396 1.7055301380674586 -1 0 0
1419 2 64.41826694001186 10.823913973323426 0.016103652698669372 -1 0 0
1425 14 64.21455812485668 10.967513094569803 2.665639113164798 -1 0 0
1274 1 69.20515947202574 5.767445328671221 1.655224412311397 -1 0 0
1284 16 70.8657413562552 6.190457399943356 -0.3823728948400577 -1 0 0
1282 20 72.6448909327279 7.142283794311086 1.5666948465221027 -1 0 0
1435 19 72.09107638147809 10.922241078832856 2.6693994233981564 -1 0 0
1283 15 70.64880154289041 7.987362827580872 1.7925987443520188 -1 0 0
1441 17 73.58216817416925 9.489722247468917 1.6907845391628689 -1 0 0
1431 2 72.30902460723588 10.82391397332352 0.016103652698592326 -1 0 0
1437 14 72.10531579208038 10.967513094569806 2.665639113164692 -1 0 0
1286 1 77.09591713924996 5.767445328671301 1.655224412311523 -1 0 0
1290 4 74.44750220916823 7.886383970292516 -0.2337307400003065 -1 0 0
1288 18 76.22268132435343 8.27520912488136 1.705530138067208 -1 0 0
1296 16 78.75649902347925 6.190457399943249 -0.38237289484010595 -1 0 0
1295 15 78.5395592101147 7.987362827580836 1.7925987443518774 -1 0 0
1298 1 84.98667480647387 5.767445328671354 1.6552244123114688 -1 0 0
1447 19 79.9818340487022 10.92224107883299 2.6693994233982967 -1 0 0
1294 20 80.53564859995198 7.142283794311309 1.566694846522347 -1 0 0
1302 4 82.33825987639224 7.886383970292732 -0.23373074000010075 -1 0 0
1300 18 84.11343899157755 8.275209124881407 1.7055301380673207 -1 0 0
1453 17 81.47292584139346 9.489722247469158 1.6907845391631071 -1 0 0
1443 2 80.19978227445999 10.8239139733235 0.01610365269871784 -1 0 0
1449 14 79.99607345930457 10.967513094569915 2.665639113164835 -1 0 0
1308 16 86.64725669070303 6.190457399943161 -0.38237289484018755 -1 0 0
1306 20 88.42640626717595 7.142283794310915 1.5666948465221677 -1 0 0
1314 4 90.22901754361615 7.886383970292328 -0.2337307400003033 -1 0 0
1459 19 87.87259171592603 10.922241078832842 2.669399423398076 -1 0 0
1465 17 89.36368350861719 9.4897222474687 1.6907845391629186 -1 0 0
1307 15 86.4303168773389 7.987362827580729 1.7925987443518943 -1 0 0
1455 2 88.09053994168374 10.823913973323265 0.016103652698512473 -1 0 0
1461 14 87.88683112652865 10.967513094569538 2.6656391131646426 -1 0 0
1310 1 92.87743247369802 5.767445328671219 1.6552244123115238 -1 0 0
1312 18 92.00419665880152 8.275209124881245 1.70553013806717 -1 0 0
1320 16 94.53801435792741 6.190457399943256 -0.3823728948400985 -1 0 0
1318 20 96.31716393439994 7.142283794311203 1.566694846522186 -1 0 0
1471 19 95.76334938315016 10.922241078832979 2.6693994233981906 -1 0 0
1319 15 94.3210745445626 7.987362827580836 1.7925987443519211 -1 0 0
1467 2 95.98129760890777 10.823913973323375 0.01610365269862034 -1 0 0
1473 14 95.77758879375284 10.9675130945697 2.665639113164762 -1 0 0
1322 1 100.76819014092185 5.767445328671376 1.6552244123114301 -1 0 0
1332 16 102.42877202515086 6.190457399943104 -0.382372894840414 -1 0 0
1331 15 102.21183221178721 7.987362827580616 1.7925987443517297 -1 0 0
1326 4 98.11977521084015 7.8863839702926075 -0.23373074000032415 -1 0 0
1324 18 99.89495432602548 8.275209124881506 1.7055301380670924 -1 0 0
1477 17 97.25444117584128 9.489722247469103 1.6907845391628085 -1 0 0
1486 20 1.6280719277120672 13.975880389235224 1.5666948465223198 0 0 0
1494 4 3.4306832041523436 14.71998056521673 -0.23373074000009464 0 0 0
1492 18 5.205862319337669 15.108805719805318 1.705530138067383 0 0 0
1645 17 2.5653491691535417 16.323318842393103 1.6907845391631926 0 0 0
1498 20 9.51882959493602 13.975880389235325 1.5666948465224193 0 0 0
1500 16 7.7396800184630195 13.024053994867034 -0.3823728948402117 0 0 0
1490 1 6.079098134233857 12.601041923595153 1.6552244123114181 0 0 0
1499 15 7.522740205098908 14.820959422504504 1.7925987443519074 0 0 0
1506 4 11.32144087137625 14.719980565216751 -0.23373074000007774 0 0 0
1657 17 10.45610683637754 16.323318842393274 1.6907845391631247 0 0 0
1504 18 13.096619986561628 15.108805719805423 1.705530138067345 0 0 0
1512 16 15.630437685686928 13.02405399486704 -0.3823728948402351 0 0 0
1502 1 13.969855801457793 12.601041923595263 1.6552244123114817 0 0 0
1511 15 15.413497872323012 14.820959422504476 1.7925987443518503 0 0 0
1510 20 17.409587262159995 13.975880389235211 1.5666948465223292 0 0 0
1516 18 20.987377653785604 15.108805719805295 1.705530138067303 0 0 0
1518 4 19.21219853860023 14.719980565216707 -0.23373074000013563 0 0 0
1514 1 21.860613468681784 12.60104192359518 1.6552244123112996 0 0 0
1669 17 18.346864503601452 16.32331884239306 1.6907845391631877 0 0 0
1522 20 25.300344929383943 13.975880389235174 1.5666948465224133 0 0 0
1524 16 23.521195352911054 13.024053994867053 -0.3823728948402723 0 0 0
1530 4 27.10295620582411 14.719980565216577 -0.2337307400001403 0 0 0
1523 15 23.304255539546862 14.820959422504481 1.7925987443518419 0 0 0
1681 17 26.237622170825354 16.32331884239296 1.6907845391631633 0 0 0
1528 18 28.878135321009548 15.108805719805297 1.7055301380672379 0 0 0
1534 20 33.19110259660782 13.975880389235229 1.5666948465222517 0 0 0
1536 16 31.41195302013524 13.024053994867154 -0.3823728948401444 0 0 0
1526 1 29.75137113590581 12.60104192359517 1.655224412311295 0 0 0
1535 15 31.195013206770774 14.820959422504554 1.792598744351922 0 0 0
1693 17 34.128379838049234 16.323318842393057 1.690784539163111 0 0 0
1540 18 36.76889298823341 15.10880571980539 1.705530138067074 0 0 0
1542 4 34.993713873047966 14.719980565216778 -0.2337307400003008 0 0 0
1548 16 39.30271068735884 13.024053994867076 -0.38237289484062453 0 0 0
1538 1 37.64212880312962 12.601041923595245 1.655224412311118 0 0 0
1547 15 39.08577087399511 14.82095942250431 1.7925987443516045 0 0 0
1546 20 41.08186026383205 13.975880389235215 1.5666948465224066 0 0 0
1552 18 44.659650655457675 15.108805719805234 1.7055301380673364 0 0 0
1554 4 42.884471540272244 14.719980565216733 -0.23373074000007057 0 0 0
1550 1 45.53288647035382 12.60104192359507 1.6552244123112498 0 0 0
1705 17 42.0191375052735 16.32331884239298 1.6907845391633505 0 0 0
1558 20 48.9726179310559 13.97588038923521 1.5666948465223483 0 0 0
1560 16 47.1934683545832 13.02405399486709 -0.38237289484020753 0 0 0
1559 15 46.97652854121877 14.820959422504457 1.7925987443519542 0 0 0
1410 4 50.77522920749604 14.719980565216645 -0.23373074000021107 -1 0 0
1561 17 49.9098951724973 16.323318842393032 1.6907845391630993 -1 0 0
1408 18 52.55040832268149 15.108805719805353 1.7055301380671648 -1 0 0
1416 16 55.08422602180703 13.024053994867103 -0.38237289484036296 -1 0 0
1406 1 53.42364413757773 12.601041923595194 1.655224412311276 -1 0 0
1415 15 54.86728620844292 14.82095942250444 1.792598744351746 -1 0 0
1414 20 56.86337559827985 13.975880389235094 1.566694846522425 -1 0 0
1420 18 60.44116598990547 15.108805719805185 1.7055301380671986 -1 0 0
1422 4 58.66598687471993 14.719980565216622 -0.23373074000013952 -1 0 0
1418 1 61.314401804801754 12.601041923595124 1.6552244123111592 -1 0 0
1573 17 57.8006528397212 16.32331884239278 1.690784539163359 -1 0 0
1426 20 64.7541332655038 13.975880389235138 1.5666948465221517 -1 0 0
1428 16 62.97498368903125 13.024053994867224 -0.38237289484028275 -1 0 0
1434 4 66.55674454194393 14.719980565216577 -0.2337307400004664 -1 0 0
1427 15 62.758043875666594 14.8209594225045 1.792598744351918 -1 0 0
1432 18 68.3319236571294 15.10880571980532 1.7055301380669319 -1 0 0
1585 17 65.69141050694512 16.32331884239289 1.6907845391629464 -1 0 0
1438 20 72.64489093272788 13.975880389235053 1.5666948465223072 -1 0 0
1440 16 70.86574135625504 13.024053994867147 -0.38237289484059206 -1 0 0
1430 1 69.20515947202577 12.60104192359524 1.655224412311092 -1 0 0
1439 15 70.64880154289104 14.820959422504352 1.7925987443515894 -1 0 0
1597 17 73.58216817416928 16.32331884239272 1.6907845391633045 -1 0 0
1444 18 76.22268132435349 15.10880571980513 1.7055301380671881 -1 0 0
1446 4 74.44750220916806 14.719980565216607 -0.23373074000020866 -1 0 0
1452 16 78.75649902347918 13.024053994867097 -0.3823728948404558 -1 0 0
1442 1 77.09591713924979 12.601041923595059 1.6552244123111632 -1 0 0
1451 15 78.53955921011485 14.820959422504346 1.7925987443518092 -1 0 0
1450 20 80.53564859995191 13.97588038923503 1.5666948465221056 -1 0 0
1456 18 84.11343899157747 15.108805719805252 1.7055301380671075 -1 0 0
1458 4 82.3382598763921 14.719980565216561 -0.23373074000034996 -1 0 0
1454 1 84.98667480647387 12.601041923595195 1.6552244123112227 -1 0 0
1609 17 81.47292584139319 16.323318842392744 1.6907845391630292 -1 0 0
1462 20 88.42640626717596 13.975880389235238 1.5666948465224007 -1 0 0
1464 16 86.64725669070319 13.024053994867154 -0.3823728948403539 -1 0 0
1470 4 90.22901754361605 14.719980565216783 -0.2337307400001415 -1 0 0
1463 15 86.43031687733883 14.820959422504476 1.792598744351727 -1 0 0
1621 17 89.36368350861734 16.32331884239301 1.6907845391633307 -1 0 0
1468 18 92.00419665880159 15.108805719805337 1.705530138067249 -1 0 0
1474 20 96.31716393439983 13.975880389235163 1.5666948465222208 -1 0 0
1476 16 94.53801435792722 13.024053994867234 -0.38237289484025894 -1 0 0
1466 1 92.87743247369777 12.60104192359524 1.6552244123112572 -1 0 0
1475 15 94.32107454456273 14.820959422504563 1.792598744351851 -1 0 0
1488 16 102.42877202515093 13.024053994867087 -0.38237289484054054 -1 0 0
1487 15 102.21183221178698 14.820959422504357 1.7925987443516858 -1 0 0
1480 18 99.89495432602541 15.10880571980532 1.7055301380671164 -1 0 0
1482 4 98.11977521083996 14.719980565216693 -0.2337307400002922 -1 0 0
1478 1 100.76819014092172 12.601041923595206 1.655224412311119 -1 0 0
1633 17 97.25444117584121 16.323318842392933 1.690784539163119 -1 0 0
1639 19 1.0742573764614618 17.755837673756766 2.669399423397818 0 0 0
1641 14 1.0884967870645532 17.80110968949307 2.6656391131644295 0 0 0
1642 20 1.6280719277120375 20.80947698415942 1.5666948465224153 0 0 0
1650 4 3.43068320415235 21.55357716014086 -0.23373073999999455 0 0 0
1648 18 5.205862319337672 21.94240231472941 1.7055301380675052 0 0 0
1635 2 1.2922056022191641 17.657510568246995 0.016103652698254846 0 0 0
1651 19 8.965015043685645 17.755837673756677 2.6693994233978904 0 0 0
1647 2 9.182963269443169 17.657510568246934 0.016103652698321043 0 0 0
1653 14 8.97925445428861 17.80110968949309 2.665639113164489 0 0 0
1656 16 7.739680018462872 19.857650589791 -0.38237289484011294 0 0 0
1654 20 9.518829594936 20.809476984159364 1.56669484652231 0 0 0
1646 1 6.079098134233775 19.434638518519254 1.6552244123115716 0 0 0
1655 15 7.5227402050988985 21.65455601742852 1.7925987443519515 0 0 0
1662 4 11.321440871376332 21.553577160140794 -0.2337307400000849 0 0 0
1663 19 16.85577271090963 17.755837673756673 2.6693994233977785 0 0 0
1659 2 17.07372093666718 17.6575105682469 0.016103652698204293 0 0 0
1660 18 13.096619986561633 21.94240231472937 1.7055301380674341 0 0 0
1668 16 15.630437685686962 19.857650589791042 -0.3823728948401509 0 0 0
1658 1 13.96985580145781 19.434638518519225 1.655224412311493 0 0 0
1667 15 15.413497872322825 21.654556017428554 1.7925987443518936 0 0 0
1665 14 16.87001212151268 17.801109689493007 2.665639113164387 0 0 0
1666 20 17.40958726216005 20.809476984159335 1.566694846522294 0 0 0
1674 4 19.212198538600443 21.55357716014078 -0.2337307400000476 0 0 0
1672 18 20.987377653785668 21.942402314729353 1.7055301380675134 0 0 0
1670 1 21.86061346868184 19.43463851851917 1.655224412311553 0 0 0
1671 2 24.964478603891184 17.657510568246867 0.016103652698223208 0 0 0
1675 19 24.746530378133677 17.75583767375672 2.669399423397798 0 0 0
1677 14 24.76076978873685 17.801109689492964 2.665639113164418 0 0 0
1680 16 23.52119535291105 19.857650589791028 -0.3823728948400512 0 0 0
1678 20 25.30034492938395 20.809476984159318 1.5666948465223671 0 0 0
1686 4 27.102956205824295 21.55357716014071 -0.23373074000006094 0 0 0
1679 15 23.304255539546773 21.654556017428636 1.792598744351947 0 0 0
1687 19 32.637288045357934 17.755837673756783 2.6693994233979828 0 0 0
1683 2 32.85523627111536 17.657510568246924 0.016103652698410457 0 0 0
1689 14 32.651527455961116 17.801109689493106 2.665639113164602 0 0 0
1684 18 28.878135321009577 21.942402314729346 1.7055301380674355 0 0 0
1692 16 31.41195302013525 19.857650589791152 -0.38237289483986187 0 0 0
1690 20 33.191102596607834 20.809476984159364 1.5666948465221457 0 0 0
1682 1 29.75137113590579 19.434638518519208 1.6552244123114628 0 0 0
1691 15 31.195013206770565 21.654556017428753 1.7925987443520286 0 0 0
1698 4 34.993713873048165 21.553577160140872 -0.23373074000022181 0 0 0
1696 18 36.76889298823343 21.942402314729414 1.7055301380673011 0 0 0
1704 16 39.30271068735886 19.857650589791117 -0.3823728948402999 0 0 0
1694 1 37.64212880312968 19.434638518519275 1.6552244123112128 0 0 0
1703 15 39.085770873994804 21.654556017428593 1.792598744351758 0 0 0
1699 19 40.52804571258147 17.755837673756798 2.669399423397721 0 0 0
1695 2 40.74599393833919 17.65751056824712 0.016103652698168665 0 0 0
1701 14 40.542285123184435 17.801109689493178 2.665639113164323 0 0 0
1702 20 41.08186026383214 20.80947698415935 1.5666948465223989 0 0 0
1710 4 42.88447154027246 21.553577160140772 -0.2337307400000059 0 0 0
1708 18 44.65965065545778 21.942402314729353 1.7055301380675048 0 0 0
1706 1 45.532886470353894 19.434638518519165 1.6552244123115691 0 0 0
1707 2 48.63675160556327 17.657510568246813 0.016103652698315738 0 0 0
1711 19 48.41880337980581 17.75583767375667 2.6693994233978917 0 0 0
1713 14 48.433042790409 17.801109689492918 2.665639113164513 0 0 0
1716 16 47.193468354583196 19.857650589791046 -0.38237289483991643 0 0 0
1714 20 48.97261793105587 20.809476984159325 1.5666948465223292 0 0 0
1715 15 46.97652854121871 21.65455601742865 1.7925987443520328 0 0 0
1566 4 50.77522920749615 21.553577160140726 -0.23373074000013314 -1 0 0
1567 19 56.309561047029845 17.755837673756858 2.6693994233978504 -1 0 0
1563 2 56.52750927278736 17.657510568247137 0.01610365269828813 -1 0 0
1564 18 52.55040832268149 21.942402314729357 1.7055301380673202 -1 0 0
1572 16 55.084226021807034 19.857650589791128 -0.38237289484014914 -1 0 0
1562 1 53.42364413757774 19.43463851851928 1.6552244123112867 -1 0 0
1571 15 54.867286208442714 21.65455601742863 1.792598744351865 -1 0 0
1569 14 56.32380045763281 17.801109689493266 2.6656391131644495 -1 0 0
1570 20 56.86337559827992 20.809476984159186 1.5666948465222605 -1 0 0
1578 4 58.665986874720204 21.55357716014061 -0.23373074000020808 -1 0 0
1576 18 60.44116598990552 21.94240231472927 1.705530138067252 -1 0 0
1574 1 61.3144018048018 19.43463851851919 1.655224412311263 -1 0 0
1575 2 64.41826694001155 17.657510568247023 0.01610365269843249 -1 0 0
1579 19 64.20031871425411 17.755837673756808 2.6693994233979996 -1 0 0
1581 14 64.21455812485723 17.801109689493213 2.6656391131646116 -1 0 0
1584 16 62.97498368903138 19.85765058979114 -0.3823728948399842 -1 0 0
1582 20 64.75413326550381 20.809476984159126 1.5666948465221915 -1 0 0
1590 4 66.55674454194408 21.553577160140634 -0.2337307400002191 -1 0 0
1583 15 62.75804387566655 21.654556017428682 1.7925987443518905 -1 0 0
1588 18 68.33192365712944 21.942402314729232 1.7055301380672623 -1 0 0
1591 19 72.09107638147779 17.755837673756897 2.669399423397935 -1 0 0
1587 2 72.30902460723546 17.657510568247027 0.016103652698369615 -1 0 0
1593 14 72.10531579208084 17.80110968949324 2.6656391131645463 -1 0 0
1596 16 70.86574135625526 19.857650589791263 -0.3823728948401056 -1 0 0
1594 20 72.6448909327279 20.809476984159346 1.5666948465224144 -1 0 0
1586 1 69.20515947202578 19.43463851851915 1.65522441231126 -1 0 0
1595 15 70.64880154289042 21.654556017428657 1.792598744351895 -1 0 0
1602 4 74.44750220916802 21.553577160140804 -0.23373074000014343 -1 0 0
1600 18 76.22268132435353 21.942402314729453 1.70553013806722 -1 0 0
1608 16 78.75649902347902 19.857650589791184 -0.3823728948402495 -1 0 0
1598 1 77.09591713924968 19.434638518519186 1.6552244123112503 -1 0 0
1607 15 78.53955921011482 21.65455601742857 1.7925987443518452 -1 0 0
1603 19 79.981834048702 17.755837673756897 2.669399423398121 -1 0 0
1599 2 80.1997822744596 17.657510568247307 0.01610365269852683 -1 0 0
1605 14 79.99607345930463 17.801109689493597 2.665639113164685 -1 0 0
1606 20 80.5356485999518 20.80947698415923 1.566694846522322 -1 0 0