LAMMPS data file via write_data, version 29 Aug 2024, timestep = 0, units = metal

2640 atoms
4 atom types

0 101.890537688544 xlo xhi
0 99.18534756273 ylo yhi
0 17.10979291 zlo zhi

Masses

1 30.973762
2 30.973762
3 30.973762
4 30.973761998

Atoms # atomic

1366 2 3.138683765543 7.175353999855361e-06 0 0 0 0
1370 2 7.770071842294996 7.175353999855361e-06 0 0 0 0
1374 2 12.401459919047 7.175353999855361e-06 0 0 0 0
1378 2 17.032847995798996 7.175353999855361e-06 0 0 0 0
1382 2 21.664236072551 7.175353999855361e-06 0 0 0 0
1386 2 26.295624149303002 7.175353999855361e-06 0 0 0 0
1390 2 30.927012226055005 7.175353999855361e-06 0 0 0 0
1394 2 35.558400302806994 7.175353999855361e-06 0 0 0 0
1398 2 40.189788379559 7.175353999855361e-06 0 0 0 0
1402 2 44.821176456311 7.175353999855361e-06 0 0 0 0
1406 2 49.452564533063004 7.175353999855361e-06 0 0 0 0
1322 2 54.083952609815 7.175353999855361e-06 0 -1 0 0
1326 2 58.715340686567004 7.175353999855361e-06 0 -1 0 0
1330 2 63.346728763319 7.175353999855361e-06 0 -1 0 0
1334 2 67.978116840071 7.175353999855361e-06 0 -1 0 0
1338 2 72.609504916823 7.175353999855361e-06 0 -1 0 0
1342 2 77.240892993575 7.175353999855361e-06 0 -1 0 0
1346 2 81.872281070327 7.175353999855361e-06 0 -1 0 0
1350 2 86.503669147079 7.175353999855361e-06 0 -1 0 0
1354 2 91.135057223831 7.175353999855361e-06 0 -1 0 0
1358 2 95.766445300583 7.175353999855361e-06 0 -1 0 0
1362 2 100.39783337733499 7.175353999855361e-06 0 -1 0 0
1365 1 0 1.6531353823299995 2.842600022034958e-08 0 0 0
1369 1 4.631388076751996 1.6531353823299995 2.842600022034958e-08 0 0 0
1373 1 9.262776153504 1.6531353823299995 2.842600022034958e-08 0 0 0
1377 1 13.894164230256003 1.6531353823299995 2.842600022034958e-08 0 0 0
1381 1 18.525552307008006 1.6531353823299995 2.842600022034958e-08 0 0 0
1385 1 23.156940383759995 1.6531353823299995 2.842600022034958e-08 0 0 0
1389 1 27.788328460512 1.6531353823299995 2.842600022034958e-08 0 0 0
1393 1 32.419716537264 1.6531353823299995 2.842600022034958e-08 0 0 0
1397 1 37.051104614016005 1.6531353823299995 2.842600022034958e-08 0 0 0
1401 1 41.682492690767994 1.6531353823299995 2.842600022034958e-08 0 0 0
1405 1 46.31388076752 1.6531353823299995 2.842600022034958e-08 0 0 0
1321 1 50.945268844272 1.6531353823299995 2.842600022034958e-08 -1 0 0
1325 1 55.576656921024 1.6531353823299995 2.842600022034958e-08 -1 0 0
1329 1 60.208044997776 1.6531353823299995 2.842600022034958e-08 -1 0 0
1333 1 64.839433074528 1.6531353823299995 2.842600022034958e-08 -1 0 0
1337 1 69.47082115128 1.6531353823299995 2.842600022034958e-08 -1 0 0
1341 1 74.102209228032 1.6531353823299995 2.842600022034958e-08 -1 0 0
1345 1 78.733597304784 1.6531353823299995 2.842600022034958e-08 -1 0 0
1349 1 83.364985381536 1.6531353823299995 2.842600022034958e-08 -1 0 0
1353 1 87.99637345828799 1.6531353823299995 2.842600022034958e-08 -1 0 0
1357 1 92.62776153504001 1.6531353823299995 2.842600022034958e-08 -1 0 0
1361 1 97.259149611792 1.6531353823299995 2.842600022034958e-08 -1 0 0
1454 2 3.138683765543 3.3061854274450013 0 0 0 0
1458 2 7.770071842294996 3.3061854274450013 0 0 0 0
1462 2 12.401459919047 3.3061854274450013 0 0 0 0
1466 2 17.032847995798996 3.3061854274450013 0 0 0 0
1470 2 21.664236072551 3.3061854274450013 0 0 0 0
1474 2 26.295624149303002 3.3061854274450013 0 0 0 0
1478 2 30.927012226055005 3.3061854274450013 0 0 0 0
1482 2 35.558400302806994 3.3061854274450013 0 0 0 0
1486 2 40.189788379559 3.3061854274450013 0 0 0 0
1490 2 44.821176456311 3.3061854274450013 0 0 0 0
1494 2 49.452564533063004 3.3061854274450013 0 0 0 0
1410 2 54.083952609815 3.3061854274450013 0 -1 0 0
1414 2 58.715340686567004 3.3061854274450013 0 -1 0 0
1418 2 63.346728763319 3.3061854274450013 0 -1 0 0
1422 2 67.978116840071 3.3061854274450013 0 -1 0 0
1426 2 72.609504916823 3.3061854274450013 0 -1 0 0
1430 2 77.240892993575 3.3061854274450013 0 -1 0 0
1434 2 81.872281070327 3.3061854274450013 0 -1 0 0
1438 2 86.503669147079 3.3061854274450013 0 -1 0 0
1442 2 91.135057223831 3.3061854274450013 0 -1 0 0
1446 2 95.766445300583 3.3061854274450013 0 -1 0 0
1450 2 100.39783337733499 3.3061854274450013 0 -1 0 0
1453 1 0 4.959313634421001 2.842600022034958e-08 0 0 0
1457 1 4.631388076751996 4.959313634421001 2.842600022034958e-08 0 0 0
1461 1 9.262776153504 4.959313634421001 2.842600022034958e-08 0 0 0
1465 1 13.894164230256003 4.959313634421001 2.842600022034958e-08 0 0 0
1469 1 18.525552307008006 4.959313634421001 2.842600022034958e-08 0 0 0
1473 1 23.156940383759995 4.959313634421001 2.842600022034958e-08 0 0 0
1477 1 27.788328460512 4.959313634421001 2.842600022034958e-08 0 0 0
1481 1 32.419716537264 4.959313634421001 2.842600022034958e-08 0 0 0
1485 1 37.051104614016005 4.959313634421001 2.842600022034958e-08 0 0 0
1489 1 41.682492690767994 4.959313634421001 2.842600022034958e-08 0 0 0
1493 1 46.31388076752 4.959313634421001 2.842600022034958e-08 0 0 0
1409 1 50.945268844272 4.959313634421001 2.842600022034958e-08 -1 0 0
1413 1 55.576656921024 4.959313634421001 2.842600022034958e-08 -1 0 0
1417 1 60.208044997776 4.959313634421001 2.842600022034958e-08 -1 0 0
1421 1 64.839433074528 4.959313634421001 2.842600022034958e-08 -1 0 0
1425 1 69.47082115128 4.959313634421001 2.842600022034958e-08 -1 0 0
1429 1 74.102209228032 4.959313634421001 2.842600022034958e-08 -1 0 0
1433 1 78.733597304784 4.959313634421001 2.842600022034958e-08 -1 0 0
1437 1 83.364985381536 4.959313634421001 2.842600022034958e-08 -1 0 0
1441 1 87.99637345828799 4.959313634421001 2.842600022034958e-08 -1 0 0
1445 1 92.62776153504001 4.959313634421001 2.842600022034958e-08 -1 0 0
1449 1 97.259149611792 4.959313634421001 2.842600022034958e-08 -1 0 0
1542 2 3.138683765543 6.612363679536003 0 0 0 0
1546 2 7.770071842294996 6.612363679536003 0 0 0 0
1550 2 12.401459919047 6.612363679536003 0 0 0 0
1554 2 17.032847995798996 6.612363679536003 0 0 0 0
1558 2 21.664236072551 6.612363679536003 0 0 0 0
1562 2 26.295624149303002 6.612363679536003 0 0 0 0
1566 2 30.927012226055005 6.612363679536003 0 0 0 0
1570 2 35.558400302806994 6.612363679536003 0 0 0 0
1574 2 40.189788379559 6.612363679536003 0 0 0 0
1578 2 44.821176456311 6.612363679536003 0 0 0 0
1582 2 49.452564533063004 6.612363679536003 0 0 0 0
1498 2 54.083952609815 6.612363679536003 0 -1 0 0
1502 2 58.715340686567004 6.612363679536003 0 -1 0 0
1506 2 63.346728763319 6.612363679536003 0 -1 0 0
1510 2 67.978116840071 6.612363679536003 0 -1 0 0
1514 2 72.609504916823 6.612363679536003 0 -1 0 0
1518 2 77.240892993575 6.612363679536003 0 -1 0 0
1522 2 81.872281070327 6.612363679536003 0 -1 0 0
1526 2 86.503669147079 6.612363679536003 0 -1 0 0
1530 2 91.135057223831 6.612363679536003 0 -1 0 0
1534 2 95.766445300583 6.612363679536003 0 -1 0 0
1538 2 100.39783337733499 6.612363679536003 0 -1 0 0
1541 1 0 8.265491886512002 2.842600022034958e-08 0 0 0
1545 1 4.631388076751996 8.265491886512002 2.842600022034958e-08 0 0 0
1549 1 9.262776153504 8.265491886512002 2.842600022034958e-08 0 0 0
1553 1 13.894164230256003 8.265491886512002 2.842600022034958e-08 0 0 0
1557 1 18.525552307008006 8.265491886512002 2.842600022034958e-08 0 0 0
1561 1 23.156940383759995 8.265491886512002 2.842600022034958e-08 0 0 0
1565 1 27.788328460512 8.265491886512002 2.842600022034958e-08 0 0 0
1569 1 32.419716537264 8.265491886512002 2.842600022034958e-08 0 0 0
1573 1 37.051104614016005 8.265491886512002 2.842600022034958e-08 0 0 0
1577 1 41.682492690767994 8.265491886512002 2.842600022034958e-08 0 0 0
1581 1 46.31388076752 8.265491886512002 2.842600022034958e-08 0 0 0
1497 1 50.945268844272 8.265491886512002 2.842600022034958e-08 -1 0 0
1501 1 55.576656921024 8.265491886512002 2.842600022034958e-08 -1 0 0
1505 1 60.208044997776 8.265491886512002 2.842600022034958e-08 -1 0 0
1509 1 64.839433074528 8.265491886512002 2.842600022034958e-08 -1 0 0
1513 1 69.47082115128 8.265491886512002 2.842600022034958e-08 -1 0 0
1517 1 74.102209228032 8.265491886512002 2.842600022034958e-08 -1 0 0
1521 1 78.733597304784 8.265491886512002 2.842600022034958e-08 -1 0 0
1525 1 83.364985381536 8.265491886512002 2.842600022034958e-08 -1 0 0
1529 1 87.99637345828799 8.265491886512002 2.842600022034958e-08 -1 0 0
1533 1 92.62776153504001 8.265491886512002 2.842600022034958e-08 -1 0 0
1537 1 97.259149611792 8.265491886512002 2.842600022034958e-08 -1 0 0
1630 2 3.138683765543 9.918541931627004 0 0 0 0
1634 2 7.770071842294996 9.918541931627004 0 0 0 0
1638 2 12.401459919047 9.918541931627004 0 0 0 0
1642 2 17.032847995798996 9.918541931627004 0 0 0 0
1646 2 21.664236072551 9.918541931627004 0 0 0 0
1650 2 26.295624149303002 9.918541931627004 0 0 0 0
1654 2 30.927012226055005 9.918541931627004 0 0 0 0
1658 2 35.558400302806994 9.918541931627004 0 0 0 0
1662 2 40.189788379559 9.918541931627004 0 0 0 0
1666 2 44.821176456311 9.918541931627004 0 0 0 0
1670 2 49.452564533063004 9.918541931627004 0 0 0 0
1586 2 54.083952609815 9.918541931627004 0 -1 0 0
1590 2 58.715340686567004 9.918541931627004 0 -1 0 0
1594 2 63.346728763319 9.918541931627004 0 -1 0 0
1598 2 67.978116840071 9.918541931627004 0 -1 0 0
1602 2 72.609504916823 9.918541931627004 0 -1 0 0
1606 2 77.240892993575 9.918541931627004 0 -1 0 0
1610 2 81.872281070327 9.918541931627004 0 -1 0 0
1614 2 86.503669147079 9.918541931627004 0 -1 0 0
1618 2 91.135057223831 9.918541931627004 0 -1 0 0
1622 2 95.766445300583 9.918541931627004 0 -1 0 0
1626 2 100.39783337733499 9.918541931627004 0 -1 0 0
1629 1 0 11.571670138603004 2.842600022034958e-08 0 0 0
1633 1 4.631388076751996 11.571670138603004 2.842600022034958e-08 0 0 0
1637 1 9.262776153504 11.571670138603004 2.842600022034958e-08 0 0 0
1641 1 13.894164230256003 11.571670138603004 2.842600022034958e-08 0 0 0
1645 1 18.525552307008006 11.571670138603004 2.842600022034958e-08 0 0 0
1649 1 23.156940383759995 11.571670138603004 2.842600022034958e-08 0 0 0
1653 1 27.788328460512 11.571670138603004 2.842600022034958e-08 0 0 0
1657 1 32.419716537264 11.571670138603004 2.842600022034958e-08 0 0 0
1661 1 37.051104614016005 11.571670138603004 2.842600022034958e-08 0 0 0
1665 1 41.682492690767994 11.571670138603004 2.842600022034958e-08 0 0 0
1669 1 46.31388076752 11.571670138603004 2.842600022034958e-08 0 0 0
1585 1 50.945268844272 11.571670138603004 2.842600022034958e-08 -1 0 0
1589 1 55.576656921024 11.571670138603004 2.842600022034958e-08 -1 0 0
1593 1 60.208044997776 11.571670138603004 2.842600022034958e-08 -1 0 0
1597 1 64.839433074528 11.571670138603004 2.842600022034958e-08 -1 0 0
1601 1 69.47082115128 11.571670138603004 2.842600022034958e-08 -1 0 0
1605 1 74.102209228032 11.571670138603004 2.842600022034958e-08 -1 0 0
1609 1 78.733597304784 11.571670138603004 2.842600022034958e-08 -1 0 0
1613 1 83.364985381536 11.571670138603004 2.842600022034958e-08 -1 0 0
1617 1 87.99637345828799 11.571670138603004 2.842600022034958e-08 -1 0 0
1621 1 92.62776153504001 11.571670138603004 2.842600022034958e-08 -1 0 0
1625 1 97.259149611792 11.571670138603004 2.842600022034958e-08 -1 0 0
1718 2 3.138683765543 13.224720183717999 0 0 0 0
1722 2 7.770071842294996 13.224720183717999 0 0 0 0
1726 2 12.401459919047 13.224720183717999 0 0 0 0
1730 2 17.032847995798996 13.224720183717999 0 0 0 0
1734 2 21.664236072551 13.224720183717999 0 0 0 0
1738 2 26.295624149303002 13.224720183717999 0 0 0 0
1742 2 30.927012226055005 13.224720183717999 0 0 0 0
1746 2 35.558400302806994 13.224720183717999 0 0 0 0
1750 2 40.189788379559 13.224720183717999 0 0 0 0
1754 2 44.821176456311 13.224720183717999 0 0 0 0
1758 2 49.452564533063004 13.224720183717999 0 0 0 0
1674 2 54.083952609815 13.224720183717999 0 -1 0 0
1678 2 58.715340686567004 13.224720183717999 0 -1 0 0
1682 2 63.346728763319 13.224720183717999 0 -1 0 0
1686 2 67.978116840071 13.224720183717999 0 -1 0 0
1690 2 72.609504916823 13.224720183717999 0 -1 0 0
1694 2 77.240892993575 13.224720183717999 0 -1 0 0
1698 2 81.872281070327 13.224720183717999 0 -1 0 0
1702 2 86.503669147079 13.224720183717999 0 -1 0 0
1706 2 91.135057223831 13.224720183717999 0 -1 0 0
1710 2 95.766445300583 13.224720183717999 0 -1 0 0
1714 2 100.39783337733499 13.224720183717999 0 -1 0 0
1717 1 0 14.877848390694005 2.842600022034958e-08 0 0 0
1721 1 4.631388076751996 14.877848390694005 2.842600022034958e-08 0 0 0
1725 1 9.262776153504 14.877848390694005 2.842600022034958e-08 0 0 0
1729 1 13.894164230256003 14.877848390694005 2.842600022034958e-08 0 0 0
1733 1 18.525552307008006 14.877848390694005 2.842600022034958e-08 0 0 0
1737 1 23.156940383759995 14.877848390694005 2.842600022034958e-08 0 0 0
1741 1 27.788328460512 14.877848390694005 2.842600022034958e-08 0 0 0
1745 1 32.419716537264 14.877848390694005 2.842600022034958e-08 0 0 0
1749 1 37.051104614016005 14.877848390694005 2.842600022034958e-08 0 0 0
1753 1 41.682492690767994 14.877848390694005 2.842600022034958e-08 0 0 0
1757 1 46.31388076752 14.877848390694005 2.842600022034958e-08 0 0 0
1673 1 50.945268844272 14.877848390694005 2.842600022034958e-08 -1 0 0
1677 1 55.576656921024 14.877848390694005 2.842600022034958e-08 -1 0 0
1681 1 60.208044997776 14.877848390694005 2.842600022034958e-08 -1 0 0
1685 1 64.839433074528 14.877848390694005 2.842600022034958e-08 -1 0 0
1689 1 69.47082115128 14.877848390694005 2.842600022034958e-08 -1 0 0
1693 1 74.102209228032 14.877848390694005 2.842600022034958e-08 -1 0 0
1697 1 78.733597304784 14.877848390694005 2.842600022034958e-08 -1 0 0
1701 1 83.364985381536 14.877848390694005 2.842600022034958e-08 -1 0 0
1705 1 87.99637345828799 14.877848390694005 2.842600022034958e-08 -1 0 0
1709 1 92.62776153504001 14.877848390694005 2.842600022034958e-08 -1 0 0
1713 1 97.259149611792 14.877848390694005 2.842600022034958e-08 -1 0 0
1806 2 3.138683765543 16.530898435809 0 0 0 0
1810 2 7.770071842294996 16.530898435809 0 0 0 0
1814 2 12.401459919047 16.530898435809 0 0 0 0
1818 2 17.032847995798996 16.530898435809 0 0 0 0
1822 2 21.664236072551 16.530898435809 0 0 0 0
1826 2 26.295624149303002 16.530898435809 0 0 0 0
1830 2 30.927012226055005 16.530898435809 0 0 0 0
1834 2 35.558400302806994 16.530898435809 0 0 0 0
1838 2 40.189788379559 16.530898435809 0 0 0 0
1842 2 44.821176456311 16.530898435809 0 0 0 0
1846 2 49.452564533063004 16.530898435809 0 0 0 0
1762 2 54.083952609815 16.530898435809 0 -1 0 0
1766 2 58.715340686567004 16.530898435809 0 -1 0 0
1770 2 63.346728763319 16.530898435809 0 -1 0 0
1774 2 67.978116840071 16.530898435809 0 -1 0 0
1778 2 72.609504916823 16.530898435809 0 -1 0 0
1782 2 77.240892993575 16.530898435809 0 -1 0 0
1786 2 81.872281070327 16.530898435809 0 -1 0 0
1790 2 86.503669147079 16.530898435809 0 -1 0 0
1794 2 91.135057223831 16.530898435809 0 -1 0 0
1798 2 95.766445300583 16.530898435809 0 -1 0 0
1802 2 100.39783337733499 16.530898435809 0 -1 0 0
1805 1 0 18.184026642785007 2.842600022034958e-08 0 0 0
1809 1 4.631388076751996 18.184026642785007 2.842600022034958e-08 0 0 0
1813 1 9.262776153504 18.184026642785007 2.842600022034958e-08 0 0 0
1817 1 13.894164230256003 18.184026642785007 2.842600022034958e-08 0 0 0
1821 1 18.525552307008006 18.184026642785007 2.842600022034958e-08 0 0 0
1825 1 23.156940383759995 18.184026642785007 2.842600022034958e-08 0 0 0
1829 1 27.788328460512 18.184026642785007 2.842600022034958e-08 0 0 0
1833 1 32.419716537264 18.184026642785007 2.842600022034958e-08 0 0 0
1837 1 37.051104614016005 18.184026642785007 2.842600022034958e-08 0 0 0
1841 1 41.682492690767994 18.184026642785007 2.842600022034958e-08 0 0 0
1845 1 46.31388076752 18.184026642785007 2.842600022034958e-08 0 0 0
1761 1 50.945268844272 18.184026642785007 2.842600022034958e-08 -1 0 0
1765 1 55.576656921024 18.184026642785007 2.842600022034958e-08 -1 0 0
1769 1 60.208044997776 18.184026642785007 2.842600022034958e-08 -1 0 0
1773 1 64.839433074528 18.184026642785007 2.842600022034958e-08 -1 0 0
1777 1 69.47082115128 18.184026642785007 2.842600022034958e-08 -1 0 0
1781 1 74.102209228032 18.184026642785007 2.842600022034958e-08 -1 0 0
1785 1 78.733597304784 18.184026642785007 2.842600022034958e-08 -1 0 0
1789 1 83.364985381536 18.184026642785007 2.842600022034958e-08 -1 0 0
1793 1 87.99637345828799 18.184026642785007 2.842600022034958e-08 -1 0 0
1797 1 92.62776153504001 18.184026642785007 2.842600022034958e-08 -1 0 0
1801 1 97.259149611792 18.184026642785007 2.842600022034958e-08 -1 0 0
1894 2 3.138683765543 19.8370766879 0 0 0 0
1898 2 7.770071842294996 19.8370766879 0 0 0 0
1902 2 12.401459919047 19.8370766879 0 0 0 0
1906 2 17.032847995798996 19.8370766879 0 0 0 0
1910 2 21.664236072551 19.8370766879 0 0 0 0
1914 2 26.295624149303002 19.8370766879 0 0 0 0
1918 2 30.927012226055005 19.8370766879 0 0 0 0
1922 2 35.558400302806994 19.8370766879 0 0 0 0
1926 2 40.189788379559 19.8370766879 0 0 0 0
1930 2 44.821176456311 19.8370766879 0 0 0 0
1934 2 49.452564533063004 19.8370766879 0 0 0 0
1850 2 54.083952609815 19.8370766879 0 -1 0 0
1854 2 58.715340686567004 19.8370766879 0 -1 0 0
1858 2 63.346728763319 19.8370766879 0 -1 0 0
1862 2 67.978116840071 19.8370766879 0 -1 0 0
1866 2 72.609504916823 19.8370766879 0 -1 0 0
1870 2 77.240892993575 19.8370766879 0 -1 0 0
1874 2 81.872281070327 19.8370766879 0 -1 0 0
1878 2 86.503669147079 19.8370766879 0 -1 0 0
1882 2 91.135057223831 19.8370766879 0 -1 0 0
1886 2 95.766445300583 19.8370766879 0 -1 0 0
1890 2 100.39783337733499 19.8370766879 0 -1 0 0
1893 1 0 21.490204894875994 2.842600022034958e-08 0 0 0
1897 1 4.631388076751996 21.490204894875994 2.842600022034958e-08 0 0 0
1901 1 9.262776153504 21.490204894875994 2.842600022034958e-08 0 0 0
1905 1 13.894164230256003 21.490204894875994 2.842600022034958e-08 0 0 0
1909 1 18.525552307008006 21.490204894875994 2.842600022034958e-08 0 0 0
1913 1 23.156940383759995 21.490204894875994 2.842600022034958e-08 0 0 0
1917 1 27.788328460512 21.490204894875994 2.842600022034958e-08 0 0 0
1921 1 32.419716537264 21.490204894875994 2.842600022034958e-08 0 0 0
1925 1 37.051104614016005 21.490204894875994 2.842600022034958e-08 0 0 0
1929 1 41.682492690767994 21.490204894875994 2.842600022034958e-08 0 0 0
1933 1 46.31388076752 21.490204894875994 2.842600022034958e-08 0 0 0
1849 1 50.945268844272 21.490204894875994 2.842600022034958e-08 -1 0 0
1853 1 55.576656921024 21.490204894875994 2.842600022034958e-08 -1 0 0
1857 1 60.208044997776 21.490204894875994 2.842600022034958e-08 -1 0 0
1861 1 64.839433074528 21.490204894875994 2.842600022034958e-08 -1 0 0
1865 1 69.47082115128 21.490204894875994 2.842600022034958e-08 -1 0 0
1869 1 74.102209228032 21.490204894875994 2.842600022034958e-08 -1 0 0
1873 1 78.733597304784 21.490204894875994 2.842600022034958e-08 -1 0 0
1877 1 83.364985381536 21.490204894875994 2.842600022034958e-08 -1 0 0
1881 1 87.99637345828799 21.490204894875994 2.842600022034958e-08 -1 0 0
1885 1 92.62776153504001 21.490204894875994 2.842600022034958e-08 -1 0 0
1889 1 97.259149611792 21.490204894875994 2.842600022034958e-08 -1 0 0
1982 2 3.138683765543 23.143254939991003 0 0 0 0
1986 2 7.770071842294996 23.143254939991003 0 0 0 0
1990 2 12.401459919047 23.143254939991003 0 0 0 0
1994 2 17.032847995798996 23.143254939991003 0 0 0 0
1998 2 21.664236072551 23.143254939991003 0 0 0 0
2002 2 26.295624149303002 23.143254939991003 0 0 0 0
2006 2 30.927012226055005 23.143254939991003 0 0 0 0
2010 2 35.558400302806994 23.143254939991003 0 0 0 0
2014 2 40.189788379559 23.143254939991003 0 0 0 0
2018 2 44.821176456311 23.143254939991003 0 0 0 0
2022 2 49.452564533063004 23.143254939991003 0 0 0 0
1938 2 54.083952609815 23.143254939991003 0 -1 0 0
1942 2 58.715340686567004 23.143254939991003 0 -1 0 0
1946 2 63.346728763319 23.143254939991003 0 -1 0 0
1950 2 67.978116840071 23.143254939991003 0 -1 0 0
1954 2 72.609504916823 23.143254939991003 0 -1 0 0
1958 2 77.240892993575 23.143254939991003 0 -1 0 0
1962 2 81.872281070327 23.143254939991003 0 -1 0 0
1966 2 86.503669147079 23.143254939991003 0 -1 0 0
1970 2 91.135057223831 23.143254939991003 0 -1 0 0
1974 2 95.766445300583 23.143254939991003 0 -1 0 0
1978 2 100.39783337733499 23.143254939991003 0 -1 0 0
1981 1 0 24.796383146966996 2.842600022034958e-08 0 0 0
1985 1 4.631388076751996 24.796383146966996 2.842600022034958e-08 0 0 0
1989 1 9.262776153504 24.796383146966996 2.842600022034958e-08 0 0 0
1993 1 13.894164230256003 24.796383146966996 2.842600022034958e-08 0 0 0
1997 1 18.525552307008006 24.796383146966996 2.842600022034958e-08 0 0 0
2001 1 23.156940383759995 24.796383146966996 2.842600022034958e-08 0 0 0
2005 1 27.788328460512 24.796383146966996 2.842600022034958e-08 0 0 0
2009 1 32.419716537264 24.796383146966996 2.842600022034958e-08 0 0 0
2013 1 37.051104614016005 24.796383146966996 2.842600022034958e-08 0 0 0
2017 1 41.682492690767994 24.796383146966996 2.842600022034958e-08 0 0 0
2021 1 46.31388076752 24.796383146966996 2.842600022034958e-08 0 0 0
1937 1 50.945268844272 24.796383146966996 2.842600022034958e-08 -1 0 0
1941 1 55.576656921024 24.796383146966996 2.842600022034958e-08 -1 0 0
1945 1 60.208044997776 24.796383146966996 2.842600022034958e-08 -1 0 0
1949 1 64.839433074528 24.796383146966996 2.842600022034958e-08 -1 0 0
1953 1 69.47082115128 24.796383146966996 2.842600022034958e-08 -1 0 0
1957 1 74.102209228032 24.796383146966996 2.842600022034958e-08 -1 0 0
1961 1 78.733597304784 24.796383146966996 2.842600022034958e-08 -1 0 0
1965 1 83.364985381536 24.796383146966996 2.842600022034958e-08 -1 0 0
1969 1 87.99637345828799 24.796383146966996 2.842600022034958e-08 -1 0 0
1973 1 92.62776153504001 24.796383146966996 2.842600022034958e-08 -1 0 0
1977 1 97.259149611792 24.796383146966996 2.842600022034958e-08 -1 0 0
2070 2 3.138683765543 26.449433192082004 0 0 0 0
2074 2 7.770071842294996 26.449433192082004 0 0 0 0
2078 2 12.401459919047 26.449433192082004 0 0 0 0
2082 2 17.032847995798996 26.449433192082004 0 0 0 0
2086 2 21.664236072551 26.449433192082004 0 0 0 0
2090 2 26.295624149303002 26.449433192082004 0 0 0 0
2094 2 30.927012226055005 26.449433192082004 0 0 0 0
2098 2 35.558400302806994 26.449433192082004 0 0 0 0
2102 2 40.189788379559 26.449433192082004 0 0 0 0
2106 2 44.821176456311 26.449433192082004 0 0 0 0
2110 2 49.452564533063004 26.449433192082004 0 0 0 0
2026 2 54.083952609815 26.449433192082004 0 -1 0 0
2030 2 58.715340686567004 26.449433192082004 0 -1 0 0
2034 2 63.346728763319 26.449433192082004 0 -1 0 0
2038 2 67.978116840071 26.449433192082004 0 -1 0 0
2042 2 72.609504916823 26.449433192082004 0 -1 0 0
2046 2 77.240892993575 26.449433192082004 0 -1 0 0
2050 2 81.872281070327 26.449433192082004 0 -1 0 0
2054 2 86.503669147079 26.449433192082004 0 -1 0 0
2058 2 91.135057223831 26.449433192082004 0 -1 0 0
2062 2 95.766445300583 26.449433192082004 0 -1 0 0
2066 2 100.39783337733499 26.449433192082004 0 -1 0 0
2069 1 0 28.102561399057997 2.842600022034958e-08 0 0 0
2073 1 4.631388076751996 28.102561399057997 2.842600022034958e-08 0 0 0
2077 1 9.262776153504 28.102561399057997 2.842600022034958e-08 0 0 0
2081 1 13.894164230256003 28.102561399057997 2.842600022034958e-08 0 0 0
2085 1 18.525552307008006 28.102561399057997 2.842600022034958e-08 0 0 0
2089 1 23.156940383759995 28.102561399057997 2.842600022034958e-08 0 0 0
2093 1 27.788328460512 28.102561399057997 2.842600022034958e-08 0 0 0
2097 1 32.419716537264 28.102561399057997 2.842600022034958e-08 0 0 0
2101 1 37.051104614016005 28.102561399057997 2.842600022034958e-08 0 0 0
2105 1 41.682492690767994 28.102561399057997 2.842600022034958e-08 0 0 0
2109 1 46.31388076752 28.102561399057997 2.842600022034958e-08 0 0 0
2025 1 50.945268844272 28.102561399057997 2.842600022034958e-08 -1 0 0
2029 1 55.576656921024 28.102561399057997 2.842600022034958e-08 -1 0 0
2033 1 60.208044997776 28.102561399057997 2.842600022034958e-08 -1 0 0
2037 1 64.839433074528 28.102561399057997 2.842600022034958e-08 -1 0 0
2041 1 69.47082115128 28.102561399057997 2.842600022034958e-08 -1 0 0
2045 1 74.102209228032 28.102561399057997 2.842600022034958e-08 -1 0 0
2049 1 78.733597304784 28.102561399057997 2.842600022034958e-08 -1 0 0
2053 1 83.364985381536 28.102561399057997 2.842600022034958e-08 -1 0 0
2057 1 87.99637345828799 28.102561399057997 2.842600022034958e-08 -1 0 0
2061 1 92.62776153504001 28.102561399057997 2.842600022034958e-08 -1 0 0
2065 1 97.259149611792 28.102561399057997 2.842600022034958e-08 -1 0 0
2158 2 3.138683765543 29.755611444173006 0 0 0 0
2162 2 7.770071842294996 29.755611444173006 0 0 0 0
2166 2 12.401459919047 29.755611444173006 0 0 0 0
2170 2 17.032847995798996 29.755611444173006 0 0 0 0
2174 2 21.664236072551 29.755611444173006 0 0 0 0
2178 2 26.295624149303002 29.755611444173006 0 0 0 0
2182 2 30.927012226055005 29.755611444173006 0 0 0 0
2186 2 35.558400302806994 29.755611444173006 0 0 0 0
2190 2 40.189788379559 29.755611444173006 0 0 0 0
2194 2 44.821176456311 29.755611444173006 0 0 0 0
2198 2 49.452564533063004 29.755611444173006 0 0 0 0
2114 2 54.083952609815 29.755611444173006 0 -1 0 0
2118 2 58.715340686567004 29.755611444173006 0 -1 0 0
2122 2 63.346728763319 29.755611444173006 0 -1 0 0
2126 2 67.978116840071 29.755611444173006 0 -1 0 0
2130 2 72.609504916823 29.755611444173006 0 -1 0 0
2134 2 77.240892993575 29.755611444173006 0 -1 0 0
2138 2 81.872281070327 29.755611444173006 0 -1 0 0
2142 2 86.503669147079 29.755611444173006 0 -1 0 0
2146 2 91.135057223831 29.755611444173006 0 -1 0 0
2150 2 95.766445300583 29.755611444173006 0 -1 0 0
2154 2 100.39783337733499 29.755611444173006 0 -1 0 0
2157 1 0 31.408739651149 2.842600022034958e-08 0 0 0
2161 1 4.631388076751996 31.408739651149 2.842600022034958e-08 0 0 0
2165 1 9.262776153504 31.408739651149 2.842600022034958e-08 0 0 0
2169 1 13.894164230256003 31.408739651149 2.842600022034958e-08 0 0 0
2173 1 18.525552307008006 31.408739651149 2.842600022034958e-08 0 0 0
2177 1 23.156940383759995 31.408739651149 2.842600022034958e-08 0 0 0
2181 1 27.788328460512 31.408739651149 2.842600022034958e-08 0 0 0
2185 1 32.419716537264 31.408739651149 2.842600022034958e-08 0 0 0
2189 1 37.051104614016005 31.408739651149 2.842600022034958e-08 0 0 0
2193 1 41.682492690767994 31.408739651149 2.842600022034958e-08 0 0 0
2197 1 46.31388076752 31.408739651149 2.842600022034958e-08 0 0 0
2113 1 50.945268844272 31.408739651149 2.842600022034958e-08 -1 0 0
2117 1 55.576656921024 31.408739651149 2.842600022034958e-08 -1 0 0
2121 1 60.208044997776 31.408739651149 2.842600022034958e-08 -1 0 0
2125 1 64.839433074528 31.408739651149 2.842600022034958e-08 -1 0 0
2129 1 69.47082115128 31.408739651149 2.842600022034958e-08 -1 0 0
2133 1 74.102209228032 31.408739651149 2.842600022034958e-08 -1 0 0
2137 1 78.733597304784 31.408739651149 2.842600022034958e-08 -1 0 0
2141 1 83.364985381536 31.408739651149 2.842600022034958e-08 -1 0 0
2145 1 87.99637345828799 31.408739651149 2.842600022034958e-08 -1 0 0
2149 1 92.62776153504001 31.408739651149 2.842600022034958e-08 -1 0 0
2153 1 97.259149611792 31.408739651149 2.842600022034958e-08 -1 0 0
2246 2 3.138683765543 33.06178969626401 0 0 0 0
2250 2 7.770071842294996 33.06178969626401 0 0 0 0
2254 2 12.401459919047 33.06178969626401 0 0 0 0
2258 2 17.032847995798996 33.06178969626401 0 0 0 0
2262 2 21.664236072551 33.06178969626401 0 0 0 0
2266 2 26.295624149303002 33.06178969626401 0 0 0 0
2270 2 30.927012226055005 33.06178969626401 0 0 0 0
2274 2 35.558400302806994 33.06178969626401 0 0 0 0
2278 2 40.189788379559 33.06178969626401 0 0 0 0
2282 2 44.821176456311 33.06178969626401 0 0 0 0
2286 2 49.452564533063004 33.06178969626401 0 0 0 0
2202 2 54.083952609815 33.06178969626401 0 -1 0 0
2206 2 58.715340686567004 33.06178969626401 0 -1 0 0
2210 2 63.346728763319 33.06178969626401 0 -1 0 0
2214 2 67.978116840071 33.06178969626401 0 -1 0 0
2218 2 72.609504916823 33.06178969626401 0 -1 0 0
2222 2 77.240892993575 33.06178969626401 0 -1 0 0
2226 2 81.872281070327 33.06178969626401 0 -1 0 0
2230 2 86.503669147079 33.06178969626401 0 -1 0 0
2234 2 91.135057223831 33.06178969626401 0 -1 0 0
2238 2 95.766445300583 33.06178969626401 0 -1 0 0
2242 2 100.39783337733499 33.06178969626401 0 -1 0 0
2245 1 0 34.71491790324 2.842600022034958e-08 0 0 0
2249 1 4.631388076751996 34.71491790324 2.842600022034958e-08 0 0 0
2253 1 9.262776153504 34.71491790324 2.842600022034958e-08 0 0 0
2257 1 13.894164230256003 34.71491790324 2.842600022034958e-08 0 0 0
2261 1 18.525552307008006 34.71491790324 2.842600022034958e-08 0 0 0
2265 1 23.156940383759995 34.71491790324 2.842600022034958e-08 0 0 0
2269 1 27.788328460512 34.71491790324 2.842600022034958e-08 0 0 0
2273 1 32.419716537264 34.71491790324 2.842600022034958e-08 0 0 0
2277 1 37.051104614016005 34.71491790324 2.842600022034958e-08 0 0 0
2281 1 41.682492690767994 34.71491790324 2.842600022034958e-08 0 0 0
2285 1 46.31388076752 34.71491790324 2.842600022034958e-08 0 0 0
2201 1 50.945268844272 34.71491790324 2.842600022034958e-08 -1 0 0
2205 1 55.576656921024 34.71491790324 2.842600022034958e-08 -1 0 0
2209 1 60.208044997776 34.71491790324 2.842600022034958e-08 -1 0 0
2213 1 64.839433074528 34.71491790324 2.842600022034958e-08 -1 0 0
2217 1 69.47082115128 34.71491790324 2.842600022034958e-08 -1 0 0
2221 1 74.102209228032 34.71491790324 2.842600022034958e-08 -1 0 0
2225 1 78.733597304784 34.71491790324 2.842600022034958e-08 -1 0 0
2229 1 83.364985381536 34.71491790324 2.842600022034958e-08 -1 0 0
2233 1 87.99637345828799 34.71491790324 2.842600022034958e-08 -1 0 0
2237 1 92.62776153504001 34.71491790324 2.842600022034958e-08 -1 0 0
2241 1 97.259149611792 34.71491790324 2.842600022034958e-08 -1 0 0
2334 2 3.138683765543 36.367967948354995 0 0 0 0
2338 2 7.770071842294996 36.367967948354995 0 0 0 0
2342 2 12.401459919047 36.367967948354995 0 0 0 0
2346 2 17.032847995798996 36.367967948354995 0 0 0 0
2350 2 21.664236072551 36.367967948354995 0 0 0 0
2354 2 26.295624149303002 36.367967948354995 0 0 0 0
2358 2 30.927012226055005 36.367967948354995 0 0 0 0
2362 2 35.558400302806994 36.367967948354995 0 0 0 0
2366 2 40.189788379559 36.367967948354995 0 0 0 0
2370 2 44.821176456311 36.367967948354995 0 0 0 0