LAMMPS data file via write_data, version 29 Aug 2024, timestep = 2, units = metal

5280 atoms
8 atom types

0 101.890537688544 xlo xhi
0 99.18534756273 ylo yhi
-50 50 zlo zhi

Masses

1 30.973761998
2 30.973761998
3 30.973761998
4 30.973761998
5 30.973761998
6 30.973761998
7 30.973761998
8 30.973761998

Atoms # atomic

1366 2 3.130152703851898 3.370746847924952e-05 -0.004848067662941366 0 0 0
1365 1 0.008531084422102502 1.6531088545164823 -0.004848061072500494 0 0 0
1369 1 4.639919161174109 1.653108854516483 -0.004848061072499749 0 0 0
1454 2 3.130152703851899 3.3062119595594788 -0.00484806766294149 0 0 0
1453 1 0.008531084422106159 4.959287106607485 -0.0048480610724999955 0 0 0
1457 1 4.639919161174109 4.9592871066074835 -0.004848061072499748 0 0 0
1368 4 2.3254560712271544 3.6945872489363614e-05 2.1092323611797856 0 0 0
1367 3 0.8132277651875683 1.6531056240723065 2.109232365937129 0 0 0
1371 3 5.444615841939566 1.6531056240723065 2.1092323659371295 0 0 0
1456 4 2.325456071227154 3.3062151979634904 2.1092323611797856 0 0 0
1455 3 0.8132277651875685 4.959283876163307 2.1092323659371286 0 0 0
1459 3 5.444615841939565 4.959283876163308 2.1092323659371295 0 0 0
1370 2 7.761540780603898 3.3707468479273164e-05 -0.004848067662941188 0 0 0
1373 1 9.271307237926107 1.6531088545164827 -0.004848061072499311 0 0 0
1458 2 7.7615407806039 3.3062119595594788 -0.0048480676629410946 0 0 0
1461 1 9.271307237926107 4.9592871066074835 -0.004848061072499216 0 0 0
1372 4 6.956844147979152 3.6945872489383895e-05 2.109232361179786 0 0 0
1375 3 10.076003918691569 1.6531056240723068 2.109232365937129 0 0 0
1460 4 6.956844147979151 3.3062151979634904 2.109232361179786 0 0 0
1463 3 10.076003918691569 4.959283876163308 2.109232365937129 0 0 0
1374 2 12.392928857355901 3.370746847927151e-05 -0.004848067662941592 0 0 0
1377 1 13.902695314678109 1.6531088545164827 -0.00484806107249987 0 0 0
1462 2 12.392928857355903 3.3062119595594788 -0.004848067662941721 0 0 0
1465 1 13.902695314678109 4.9592871066074835 -0.004848061072499825 0 0 0
1376 4 11.588232224731154 3.694587248931679e-05 2.1092323611797856 0 0 0
1380 4 16.21962030148315 3.694587248935677e-05 2.109232361179786 0 0 0
1379 3 14.707391995443565 1.6531056240723068 2.1092323659371295 0 0 0
1464 4 11.588232224731154 3.30621519796349 2.109232361179785 0 0 0
1468 4 16.21962030148315 3.30621519796349 2.109232361179786 0 0 0
1467 3 14.707391995443565 4.959283876163308 2.109232365937129 0 0 0
1378 2 17.0243169341079 3.3707468479293466e-05 -0.004848067662941157 0 0 0
1382 2 21.655705010859897 3.3707468479251365e-05 -0.004848067662940497 0 0 0
1381 1 18.53408339143011 1.6531088545164825 -0.004848061072499562 0 0 0
1466 2 17.024316934107905 3.3062119595594788 -0.0048480676629411275 0 0 0
1470 2 21.655705010859897 3.3062119595594783 -0.004848067662940774 0 0 0
1469 1 18.53408339143011 4.959287106607484 -0.004848061072499407 0 0 0
1384 4 20.851008378235154 3.694587248935268e-05 2.1092323611797865 0 0 0
1383 3 19.33878007219557 1.6531056240723068 2.1092323659371295 0 0 0
1472 4 20.851008378235154 3.30621519796349 2.1092323611797865 0 0 0
1471 3 19.33878007219557 4.959283876163308 2.1092323659371295 0 0 0
1386 2 26.2870930876119 3.3707468479247075e-05 -0.004848067662941408 0 0 0
1385 1 23.16547146818211 1.653108854516483 -0.004848061072499493 0 0 0
1389 1 27.79685954493411 1.653108854516483 -0.004848061072500227 0 0 0
1474 2 26.2870930876119 3.3062119595594783 -0.0048480676629414805 0 0 0
1473 1 23.16547146818211 4.959287106607484 -0.004848061072499494 0 0 0
1477 1 27.79685954493411 4.959287106607484 -0.004848061072500226 0 0 0
1388 4 25.482396454987157 3.694587248935366e-05 2.1092323611797856 0 0 0
1387 3 23.97016814894757 1.6531056240723068 2.109232365937129 0 0 0
1476 4 25.482396454987157 3.30621519796349 2.1092323611797856 0 0 0
1475 3 23.97016814894757 4.959283876163307 2.109232365937129 0 0 0
1390 2 30.9184811643639 3.3707468479264456e-05 -0.0048480676629414615 0 0 0
1393 1 32.42824762168611 1.653108854516483 -0.004848061072499037 0 0 0
1478 2 30.9184811643639 3.3062119595594783 -0.004848067662941728 0 0 0
1481 1 32.42824762168611 4.9592871066074835 -0.004848061072498926 0 0 0
1392 4 30.113784531739157 3.694587248911659e-05 2.1092323611797847 0 0 0
1391 3 28.601556225699564 1.653105624072307 2.1092323659371286 0 0 0
1395 3 33.232944302451564 1.6531056240723068 2.1092323659371295 0 0 0
1480 4 30.113784531739157 3.30621519796349 2.1092323611797847 0 0 0
1479 3 28.601556225699564 4.959283876163307 2.1092323659371286 0 0 0
1483 3 33.232944302451564 4.959283876163308 2.1092323659371295 0 0 0
1394 2 35.5498692411159 3.370746847927377e-05 -0.004848067662941002 0 0 0
1397 1 37.05963569843811 1.6531088545164832 -0.004848061072499458 0 0 0
1482 2 35.5498692411159 3.3062119595594788 -0.00484806766294113 0 0 0
1485 1 37.05963569843811 4.959287106607484 -0.004848061072499411 0 0 0
1396 4 34.74517260849115 3.694587248935761e-05 2.109232361179786 0 0 0
1400 4 39.37656068524315 3.694587248935475e-05 2.1092323611797865 0 0 0
1399 3 37.86433237920357 1.6531056240723068 2.1092323659371295 0 0 0
1484 4 34.74517260849115 3.30621519796349 2.109232361179786 0 0 0
1488 4 39.376560685243156 3.30621519796349 2.109232361179786 0 0 0
1487 3 37.86433237920357 4.959283876163308 2.1092323659371295 0 0 0
1398 2 40.181257317867896 3.370746847924745e-05 -0.0048480676629402445 0 0 0
1402 2 44.8126453946199 3.370746847925433e-05 -0.004848067662940981 0 0 0
1401 1 41.691023775190104 1.653108854516482 -0.004848061072499345 0 0 0
1486 2 40.181257317867896 3.3062119595594788 -0.004848067662940407 0 0 0
1490 2 44.8126453946199 3.3062119595594788 -0.0048480676629409055 0 0 0
1489 1 41.69102377519011 4.9592871066074835 -0.004848061072499111 0 0 0
1404 4 44.00794876199515 3.694587248934758e-05 2.1092323611797856 0 0 0
1403 3 42.49572045595557 1.6531056240723065 2.109232365937129 0 0 0
1492 4 44.00794876199515 3.30621519796349 2.109232361179785 0 0 0
1491 3 42.49572045595557 4.959283876163308 2.1092323659371286 0 0 0
1406 2 49.444033471371895 3.3707468479067694e-05 -0.004848067662940702 0 0 0
1405 1 46.32241185194211 1.653108854516482 -0.004848061072499893 0 0 0
1494 2 49.444033471371895 3.3062119595594783 -0.0048480676629409705 0 0 0
1493 1 46.32241185194211 4.9592871066074835 -0.004848061072499667 0 0 0
1408 4 48.639336838747155 3.6945872489337945e-05 2.1092323611797847 0 0 0
1407 3 47.12710853270756 1.6531056240723068 2.109232365937128 0 0 0
1496 4 48.639336838747155 3.30621519796349 2.1092323611797847 0 0 0
1495 3 47.12710853270757 4.959283876163308 2.109232365937128 0 0 0
1322 2 54.0754215481239 3.3707468479250186e-05 -0.004848067662940857 -1 0 0
1321 1 50.95379992869411 1.653108854516483 -0.0048480610724987334 -1 0 0
1325 1 55.585188005446106 1.653108854516482 -0.004848061072499598 -1 0 0
1410 2 54.0754215481239 3.3062119595594788 -0.0048480676629409965 -1 0 0
1409 1 50.95379992869411 4.959287106607484 -0.004848061072498729 -1 0 0
1413 1 55.585188005446106 4.9592871066074835 -0.004848061072499365 -1 0 0
1324 4 53.27072491549915 3.694587248934457e-05 2.109232361179786 -1 0 0
1323 3 51.75849660945957 1.6531056240723068 2.10923236593713 -1 0 0
1327 3 56.389884686211566 1.6531056240723068 2.1092323659371286 -1 0 0
1412 4 53.27072491549916 3.30621519796349 2.1092323611797856 -1 0 0
1411 3 51.75849660945957 4.959283876163308 2.1092323659371295 -1 0 0
1415 3 56.389884686211566 4.959283876163308 2.1092323659371286 -1 0 0
1326 2 58.706809624875895 3.370746847922901e-05 -0.004848067662941314 -1 0 0
1329 1 60.21657608219811 1.653108854516482 -0.004848061072499248 -1 0 0
1414 2 58.7068096248759 3.3062119595594788 -0.0048480676629410555 -1 0 0
1417 1 60.21657608219811 4.9592871066074835 -0.004848061072499052 -1 0 0
1328 4 57.902112992251155 3.694587248936267e-05 2.1092323611797856 -1 0 0
1331 3 61.02127276296357 1.6531056240723068 2.1092323659371295 -1 0 0
1416 4 57.902112992251155 3.30621519796349 2.1092323611797847 -1 0 0
1419 3 61.02127276296357 4.959283876163308 2.1092323659371295 -1 0 0
1330 2 63.338197701627905 3.370746847940799e-05 -0.004848067662941698 -1 0 0
1333 1 64.8479641589501 1.653108854516483 -0.004848061072500092 -1 0 0
1418 2 63.338197701627905 3.3062119595594783 -0.004848067662941781 -1 0 0
1421 1 64.8479641589501 4.959287106607484 -0.0048480610725001 -1 0 0
1332 4 62.53350106900316 3.694587248935717e-05 2.1092323611797856 -1 0 0
1336 4 67.16488914575515 3.694587248935342e-05 2.1092323611797865 -1 0 0
1335 3 65.65266083971557 1.6531056240723068 2.10923236593713 -1 0 0
1420 4 62.53350106900316 3.30621519796349 2.109232361179785 -1 0 0
1424 4 67.16488914575515 3.30621519796349 2.1092323611797865 -1 0 0
1423 3 65.65266083971557 4.959283876163308 2.10923236593713 -1 0 0
1334 2 67.96958577837991 3.370746847928287e-05 -0.004848067662941746 -1 0 0
1338 2 72.6009738551319 3.3707468479247075e-05 -0.00484806766294011 -1 0 0
1337 1 69.47935223570211 1.6531088545164832 -0.004848061072500224 -1 0 0
1422 2 67.96958577837991 3.3062119595594788 -0.004848067662941867 -1 0 0
1426 2 72.6009738551319 3.3062119595594788 -0.004848067662940405 -1 0 0
1425 1 69.47935223570211 4.9592871066074835 -0.004848061072500171 -1 0 0
1340 4 71.79627722250716 3.694587248934207e-05 2.109232361179787 -1 0 0
1339 3 70.28404891646757 1.6531056240723068 2.10923236593713 -1 0 0
1428 4 71.79627722250716 3.30621519796349 2.1092323611797865 -1 0 0
1427 3 70.28404891646757 4.959283876163308 2.10923236593713 -1 0 0
1342 2 77.2323619318839 3.3707468479242833e-05 -0.004848067662941958 -1 0 0
1341 1 74.11074031245411 1.653108854516483 -0.004848061072499126 -1 0 0
1345 1 78.74212838920612 1.653108854516483 -0.004848061072500154 -1 0 0
1430 2 77.2323619318839 3.3062119595594788 -0.004848067662942049 -1 0 0
1429 1 74.11074031245411 4.9592871066074835 -0.004848061072499108 -1 0 0
1433 1 78.74212838920612 4.9592871066074835 -0.004848061072500151 -1 0 0
1344 4 76.42766529925916 3.6945872489346687e-05 2.1092323611797847 -1 0 0
1343 3 74.91543699321957 1.6531056240723068 2.109232365937129 -1 0 0
1432 4 76.42766529925916 3.30621519796349 2.1092323611797847 -1 0 0
1431 3 74.91543699321957 4.959283876163308 2.1092323659371286 -1 0 0
1346 2 81.8637500086359 3.370746847924618e-05 -0.004848067662939973 -1 0 0
1349 1 83.37351646595812 1.653108854516483 -0.00484806107249817 -1 0 0
1434 2 81.8637500086359 3.3062119595594788 -0.004848067662940065 -1 0 0
1437 1 83.37351646595812 4.9592871066074835 -0.004848061072498152 -1 0 0
1348 4 81.05905337601115 3.6945872489339815e-05 2.1092323611797856 -1 0 0
1347 3 79.54682506997156 1.6531056240723068 2.1092323659371277 -1 0 0
1351 3 84.17821314672356 1.653105624072307 2.1092323659371304 -1 0 0
1436 4 81.05905337601115 3.30621519796349 2.1092323611797856 -1 0 0
1435 3 79.54682506997156 4.959283876163308 2.1092323659371277 -1 0 0
1439 3 84.17821314672356 4.959283876163307 2.1092323659371304 -1 0 0
1350 2 86.4951380853879 3.370746847925677e-05 -0.004848067662940888 -1 0 0
1353 1 88.00490454271011 1.653108854516483 -0.004848061072499847 -1 0 0
1438 2 86.4951380853879 3.3062119595594788 -0.0048480676629412064 -1 0 0
1441 1 88.00490454271011 4.9592871066074835 -0.004848061072499842 -1 0 0
1352 4 85.69044145276315 3.694587248920594e-05 2.1092323611797865 -1 0 0
1356 4 90.32182952951516 3.694587248936072e-05 2.109232361179785 -1 0 0
1355 3 88.80960122347557 1.6531056240723068 2.1092323659371286 -1 0 0
1440 4 85.69044145276315 3.30621519796349 2.109232361179786 -1 0 0
1444 4 90.32182952951516 3.30621519796349 2.1092323611797847 -1 0 0
1443 3 88.80960122347557 4.959283876163308 2.1092323659371286 -1 0 0
1354 2 91.12652616213991 3.370746847928117e-05 -0.004848067662942895 -1 0 0
1358 2 95.7579142388919 3.370746847924692e-05 -0.004848067662939615 -1 0 0
1357 1 92.63629261946211 1.6531088545164832 -0.004848061072500941 -1 0 0
1442 2 91.12652616213991 3.3062119595594788 -0.004848067662943 -1 0 0
1446 2 95.7579142388919 3.3062119595594783 -0.004848067662939691 -1 0 0
1445 1 92.63629261946211 4.9592871066074835 -0.004848061072500916 -1 0 0
1360 4 94.95321760626715 3.694587248921146e-05 2.109232361179787 -1 0 0
1359 3 93.44098930022756 1.6531056240723068 2.1092323659371295 -1 0 0
1448 4 94.95321760626716 3.30621519796349 2.1092323611797865 -1 0 0
1447 3 93.44098930022756 4.959283876163307 2.1092323659371295 -1 0 0
1362 2 100.3893023156439 3.370746847814393e-05 -0.0048480676629419515 -1 0 0
1361 1 97.26768069621411 1.653108854516483 -0.004848061072497985 -1 0 0
1450 2 100.3893023156439 3.306211959559478 -0.004848067662941616 -1 0 0
1449 1 97.26768069621411 4.9592871066074835 -0.004848061072497984 -1 0 0
1364 4 99.58460568301916 3.6945872489343095e-05 2.109232361179786 -1 0 0
1363 3 98.07237737697957 1.6531056240723065 2.1092323659371304 -1 0 0
1452 4 99.58460568301916 3.30621519796349 2.109232361179785 -1 0 0
1451 3 98.07237737697957 4.959283876163308 2.10923236593713 -1 0 0
1542 2 3.130152703851899 6.61239021165048 -0.004848067662941723 0 0 0
1541 1 0.008531084422106407 8.265465358698485 -0.004848061072500659 0 0 0
1545 1 4.639919161174109 8.265465358698485 -0.0048480610725001915 0 0 0
1630 2 3.1301527038518993 9.91856846374148 -0.004848067662941512 0 0 0
1629 1 0.008531084422107526 11.571643610789485 -0.0048480610724999824 0 0 0
1633 1 4.6399191611741095 11.571643610789485 -0.004848061072499489 0 0 0
1544 4 2.3254560712271535 6.612393450054491 2.1092323611797856 0 0 0
1543 3 0.8132277651875673 8.265462128254308 2.1092323659371286 0 0 0
1547 3 5.444615841939564 8.265462128254308 2.109232365937129 0 0 0
1632 4 2.3254560712271535 9.918571702145492 2.1092323611797856 0 0 0
1631 3 0.8132277651875685 11.571640380345306 2.109232365937129 0 0 0
1635 3 5.444615841939565 11.571640380345306 2.1092323659371295 0 0 0
1546 2 7.7615407806039 6.61239021165048 -0.004848067662941254 0 0 0
1549 1 9.271307237926107 8.265465358698485 -0.004848061072499964 0 0 0
1634 2 7.7615407806039 9.91856846374148 -0.004848067662941211 0 0 0
1637 1 9.27130723792611 11.571643610789485 -0.0048480610724992565 0 0 0
1548 4 6.95684414797915 6.6123934500544905 2.1092323611797856 0 0 0
1551 3 10.076003918691567 8.265462128254308 2.109232365937129 0 0 0
1636 4 6.95684414797915 9.918571702145492 2.109232361179786 0 0 0
1639 3 10.076003918691569 11.571640380345306 2.1092323659371295 0 0 0
1550 2 12.392928857355903 6.61239021165048 -0.004848067662941907 0 0 0
1553 1 13.902695314678109 8.265465358698485 -0.00484806107250037 0 0 0
1638 2 12.392928857355903 9.91856846374148 -0.004848067662941794 0 0 0
1641 1 13.90269531467811 11.571643610789485 -0.004848061072499511 0 0 0
1552 4 11.588232224731154 6.612393450054491 2.109232361179785 0 0 0
1556 4 16.21962030148315 6.612393450054491 2.1092323611797856 0 0 0
1555 3 14.707391995443565 8.265462128254308 2.109232365937129 0 0 0
1640 4 11.588232224731154 9.918571702145492 2.1092323611797856 0 0 0
1644 4 16.21962030148315 9.918571702145492 2.109232361179786 0 0 0
1643 3 14.707391995443565 11.571640380345306 2.1092323659371295 0 0 0
1554 2 17.024316934107905 6.61239021165048 -0.0048480676629412 0 0 0
1558 2 21.655705010859897 6.61239021165048 -0.0048480676629409965 0 0 0
1557 1 18.53408339143011 8.265465358698485 -0.0048480610724998 0 0 0
1642 2 17.024316934107905 9.91856846374148 -0.004848067662941325 0 0 0
1646 2 21.655705010859897 9.91856846374148 -0.0048480676629409115 0 0 0
1645 1 18.53408339143011 11.571643610789485 -0.004848061072499298 0 0 0
1560 4 20.851008378235154 6.6123934500544905 2.109232361179786 0 0 0
1559 3 19.33878007219557 8.265462128254308 2.109232365937129 0 0 0
1648 4 20.851008378235154 9.918571702145492 2.1092323611797865 0 0 0
1647 3 19.33878007219557 11.571640380345306 2.1092323659371304 0 0 0
1562 2 26.2870930876119 6.61239021165048 -0.004848067662941632 0 0 0
1561 1 23.16547146818211 8.265465358698485 -0.004848061072500029 0 0 0
1565 1 27.79685954493411 8.265465358698485 -0.004848061072500591 0 0 0
1650 2 26.2870930876119 9.91856846374148 -0.004848067662941536 0 0 0
1649 1 23.16547146818211 11.571643610789485 -0.004848061072499157 0 0 0
1653 1 27.79685954493411 11.571643610789485 -0.004848061072499894 0 0 0
1564 4 25.482396454987157 6.612393450054491 2.1092323611797856 0 0 0
1563 3 23.970168148947568 8.265462128254308 2.109232365937129 0 0 0
1652 4 25.482396454987157 9.918571702145492 2.1092323611797856 0 0 0
1651 3 23.97016814894757 11.571640380345306 2.1092323659371295 0 0 0
1566 2 30.9184811643639 6.61239021165048 -0.004848067662941888 0 0 0
1569 1 32.42824762168611 8.265465358698485 -0.004848061072499202 0 0 0
1654 2 30.9184811643639 9.91856846374148 -0.004848067662941771 0 0 0
1657 1 32.42824762168611 11.571643610789485 -0.004848061072498619 0 0 0
1568 4 30.113784531739157 6.6123934500544905 2.1092323611797847 0 0 0
1567 3 28.601556225699564 8.265462128254308 2.1092323659371277 0 0 0
1571 3 33.232944302451564 8.265462128254308 2.109232365937129 0 0 0
1656 4 30.113784531739157 9.918571702145492 2.1092323611797847 0 0 0
1655 3 28.601556225699564 11.571640380345308 2.109232365937129 0 0 0
1659 3 33.232944302451564 11.571640380345306 2.10923236593713 0 0 0
1570 2 35.5498692411159 6.61239021165048 -0.004848067662941199 0 0 0
1573 1 37.05963569843811 8.265465358698485 -0.004848061072499802 0 0 0
1658 2 35.5498692411159 9.91856846374148 -0.0048480676629412125 0 0 0
1661 1 37.05963569843811 11.571643610789485 -0.004848061072499126 0 0 0
1572 4 34.74517260849115 6.6123934500544905 2.1092323611797856 0 0 0
1576 4 39.376560685243156 6.6123934500544905 2.109232361179786 0 0 0
1575 3 37.86433237920357 8.265462128254308 2.109232365937129 0 0 0
1660 4 34.74517260849115 9.918571702145492 2.109232361179786 0 0 0
1664 4 39.376560685243156 9.918571702145492 2.109232361179786 0 0 0
1663 3 37.86433237920357 11.571640380345306 2.10923236593713 0 0 0
1574 2 40.181257317867896 6.61239021165048 -0.004848067662940544 0 0 0
1578 2 44.8126453946199 6.61239021165048 -0.004848067662941044 0 0 0
1577 1 41.69102377519011 8.265465358698485 -0.004848061072499491 0 0 0
1662 2 40.181257317867896 9.918568463741481 -0.0048480676629406635 0 0 0
1666 2 44.8126453946199 9.918568463741481 -0.004848067662941168 0 0 0
1665 1 41.69102377519011 11.571643610789485 -0.004848061072499118 0 0 0
1580 4 44.00794876199515 6.6123934500544905 2.1092323611797847 0 0 0
1579 3 42.49572045595557 8.265462128254308 2.109232365937128 0 0 0
1668 4 44.00794876199515 9.918571702145492 2.109232361179785 0 0 0
1667 3 42.49572045595557 11.571640380345306 2.1092323659371295 0 0 0
1582 2 49.4440334713719 6.61239021165048 -0.004848067662941095 0 0 0
1581 1 46.32241185194211 8.265465358698485 -0.004848061072500242 0 0 0
1670 2 49.444033471371895 9.91856846374148 -0.004848067662941002 0 0 0
1669 1 46.322411851942114 11.571643610789485 -0.004848061072499676 0 0 0
1584 4 48.639336838747155 6.6123934500544905 2.1092323611797847 0 0 0
1583 3 47.12710853270756 8.265462128254308 2.109232365937128 0 0 0
1672 4 48.639336838747155 9.918571702145492 2.1092323611797847 0 0 0
1671 3 47.12710853270757 11.571640380345306 2.109232365937129 0 0 0
1498 2 54.0754215481239 6.61239021165048 -0.004848067662941123 -1 0 0
1497 1 50.95379992869411 8.265465358698485 -0.004848061072499092 -1 0 0
1501 1 55.58518800544611 8.265465358698485 -0.004848061072499752 -1 0 0
1586 2 54.0754215481239 9.918568463741481 -0.004848067662941219 -1 0 0
1585 1 50.95379992869411 11.571643610789485 -0.004848061072498423 -1 0 0
1589 1 55.58518800544611 11.571643610789485 -0.004848061072499384 -1 0 0
1500 4 53.27072491549915 6.6123934500544905 2.1092323611797856 -1 0 0
1499 3 51.75849660945957 8.265462128254308 2.109232365937129 -1 0 0
1503 3 56.389884686211566 8.265462128254308 2.109232365937128 -1 0 0
1588 4 53.27072491549915 9.918571702145492 2.1092323611797856 -1 0 0
1587 3 51.75849660945957 11.571640380345306 2.10923236593713 -1 0 0
1591 3 56.389884686211566 11.571640380345306 2.1092323659371295 -1 0 0
1502 2 58.7068096248759 6.61239021165048 -0.004848067662941193 -1 0 0
1505 1 60.21657608219811 8.265465358698485 -0.004848061072499656 -1 0 0
1590 2 58.7068096248759 9.918568463741481 -0.0048480676629413045 -1 0 0
1593 1 60.21657608219812 11.571643610789485 -0.004848061072499089 -1 0 0
1504 4 57.902112992251155 6.6123934500544905 2.1092323611797847 -1 0 0
1507 3 61.02127276296357 8.265462128254308 2.1092323659371295 -1 0 0
1592 4 57.902112992251155 9.918571702145492 2.109232361179785 -1 0 0
1595 3 61.02127276296357 11.571640380345306 2.10923236593713 -1 0 0
1506 2 63.338197701627905 6.61239021165048 -0.004848067662941922 -1 0 0
1509 1 64.8479641589501 8.265465358698485 -0.004848061072500468 -1 0 0
1594 2 63.338197701627905 9.91856846374148 -0.004848067662941819 -1 0 0
1597 1 64.8479641589501 11.571643610789485 -0.004848061072499791 -1 0 0
1508 4 62.53350106900316 6.6123934500544905 2.109232361179785 -1 0 0
1512 4 67.16488914575515 6.6123934500544905 2.109232361179786 -1 0 0
1511 3 65.65266083971557 8.265462128254308 2.1092323659371295 -1 0 0
1596 4 62.53350106900316 9.918571702145492 2.1092323611797856 -1 0 0
1600 4 67.16488914575515 9.918571702145492 2.1092323611797865 -1 0 0
1599 3 65.65266083971557 11.571640380345306 2.1092323659371304 -1 0 0
1510 2 67.96958577837991 6.61239021165048 -0.004848067662941942 -1 0 0
1514 2 72.6009738551319 6.61239021165048 -0.004848067662940542 -1 0 0
1513 1 69.47935223570211 8.265465358698485 -0.004848061072500562 -1 0 0
1598 2 67.96958577837991 9.91856846374148 -0.004848067662941965 -1 0 0
1602 2 72.6009738551319 9.91856846374148 -0.0048480676629404406 -1 0 0
1601 1 69.47935223570211 11.571643610789485 -0.004848061072499875 -1 0 0
1516 4 71.79627722250716 6.6123934500544905 2.1092323611797865 -1 0 0
1515 3 70.28404891646757 8.265462128254308 2.1092323659371295 -1 0 0
1604 4 71.79627722250716 9.918571702145492 2.1092323611797865 -1 0 0
1603 3 70.28404891646757 11.571640380345306 2.1092323659371304 -1 0 0
1518 2 77.2323619318839 6.61239021165048 -0.004848067662942167 -1 0 0
1517 1 74.11074031245411 8.265465358698485 -0.004848061072499488 -1 0 0
1521 1 78.74212838920612 8.265465358698485 -0.004848061072500538 -1 0 0
1606 2 77.2323619318839 9.91856846374148 -0.004848067662942068 -1 0 0
1605 1 74.11074031245411 11.571643610789485 -0.004848061072498791 -1 0 0
1609 1 78.74212838920612 11.571643610789485 -0.004848061072499841 -1 0 0
1520 4 76.42766529925916 6.6123934500544905 2.1092323611797847 -1 0 0
1519 3 74.91543699321957 8.265462128254308 2.1092323659371286 -1 0 0
1608 4 76.42766529925916 9.918571702145492 2.1092323611797847 -1 0 0
1607 3 74.91543699321957 11.571640380345306 2.1092323659371295 -1 0 0
1522 2 81.8637500086359 6.61239021165048 -0.0048480676629402 -1 0 0
1525 1 83.37351646595812 8.265465358698485 -0.004848061072498532 -1 0 0
1610 2 81.8637500086359 9.91856846374148 -0.004848067662940107 -1 0 0
1613 1 83.37351646595812 11.571643610789485 -0.004848061072497835 -1 0 0
1524 4 81.05905337601115 6.6123934500544905 2.109232361179785 -1 0 0
1523 3 79.54682506997156 8.265462128254308 2.1092323659371273 -1 0 0
1527 3 84.17821314672356 8.265462128254308 2.10923236593713 -1 0 0
1612 4 81.05905337601115 9.918571702145492 2.1092323611797856 -1 0 0
1611 3 79.54682506997156 11.571640380345306 2.109232365937128 -1 0 0
1615 3 84.17821314672356 11.571640380345306 2.1092323659371304 -1 0 0
1526 2 86.4951380853879 6.61239021165048 -0.00484806766294133 -1 0 0
1529 1 88.00490454271011 8.265465358698485 -0.00484806107250022 -1 0 0
1614 2 86.4951380853879 9.91856846374148 -0.00484806766294123 -1 0 0
1617 1 88.00490454271011 11.571643610789485 -0.0048480610724995305 -1 0 0
1528 4 85.69044145276315 6.6123934500544905 2.109232361179786 -1 0 0
1532 4 90.32182952951516 6.6123934500544905 2.1092323611797847 -1 0 0
1531 3 88.80960122347557 8.265462128254308 2.109232365937128 -1 0 0
1616 4 85.69044145276315 9.918571702145492 2.109232361179786 -1 0 0
1620 4 90.32182952951516 9.918571702145492 2.1092323611797847 -1 0 0
1619 3 88.80960122347557 11.571640380345306 2.1092323659371295 -1 0 0
1530 2 91.12652616213991 6.61239021165048 -0.0048480676629430635 -1 0 0
1534 2 95.7579142388919 6.61239021165048 -0.0048480676629398325 -1 0 0
1533 1 92.63629261946211 8.265465358698485 -0.0048480610725013095 -1 0 0
1618 2 91.12652616213991 9.91856846374148 -0.004848067662943099 -1 0 0
1622 2 95.7579142388919 9.91856846374148 -0.004848067662939726 -1 0 0
1621 1 92.63629261946211 11.571643610789485 -0.0048480610725006295 -1 0 0
1536 4 94.95321760626716 6.6123934500544905 2.1092323611797865 -1 0 0
1535 3 93.44098930022756 8.265462128254308 2.109232365937129 -1 0 0
1624 4 94.95321760626716 9.918571702145492 2.1092323611797865 -1 0 0
1623 3 93.44098930022756 11.571640380345306 2.10923236593713 -1 0 0
1538 2 100.3893023156439 6.612390211650478 -0.00484806766294171 -1 0 0
1537 1 97.26768069621411 8.265465358698485 -0.004848061072498364 -1 0 0
1626 2 100.3893023156439 9.918568463741478 -0.0048480676629417165 -1 0 0
1625 1 97.26768069621411 11.571643610789485 -0.0048480610724976865 -1 0 0
1540 4 99.58460568301916 6.6123934500544905 2.109232361179785 -1 0 0
1539 3 98.07237737697957 8.265462128254308 2.1092323659371295 -1 0 0
1628 4 99.58460568301916 9.918571702145492 2.109232361179785 -1 0 0
1627 3 98.07237737697957 11.571640380345306 2.10923236593713 -1 0 0
1718 2 3.1301527038518993 13.224746715832481 -0.004848067662941542 0 0 0
1717 1 0.0085310844221027 14.877821862880486 -0.0048480610725003355 0 0 0
1721 1 4.639919161174109 14.877821862880483 -0.00484806107249964 0 0 0
1806 2 3.1301527038518984 16.530924967923482 -0.0048480676629414615 0 0 0
1720 4 2.325456071227154 13.224749954236492 2.1092323611797856 0 0 0
1719 3 0.8132277651875686 14.877818632436307 2.109232365937129 0 0 0
1723 3 5.444615841939565 14.877818632436307 2.1092323659371295 0 0 0
1808 4 2.325456071227154 16.530928206327495 2.1092323611797856 0 0 0
1722 2 7.7615407806039 13.224746715832481 -0.004848067662941069 0 0 0
1725 1 9.271307237926107 14.877821862880484 -0.004848061072499124 0 0 0
1810 2 7.7615407806039 16.530924967923482 -0.00484806766294106 0 0 0
1724 4 6.95684414797915 13.224749954236492 2.109232361179786 0 0 0
1727 3 10.076003918691569 14.877818632436307 2.109232365937129 0 0 0
1812 4 6.95684414797915 16.530928206327495 2.109232361179786 0 0 0
1726 2 12.392928857355903 13.224746715832481 -0.004848067662941647 0 0 0
1729 1 13.902695314678109 14.877821862880483 -0.004848061072499746 0 0 0
1814 2 12.392928857355903 16.530924967923482 -0.004848067662941681 0 0 0
1728 4 11.588232224731154 13.224749954236492 2.1092323611797856 0 0 0
1732 4 16.21962030148315 13.224749954236492 2.109232361179786 0 0 0
1731 3 14.707391995443565 14.877818632436307 2.1092323659371295 0 0 0
1816 4 11.588232224731154 16.530928206327495 2.1092323611797856 0 0 0
1820 4 16.21962030148315 16.530928206327495 2.109232361179786 0 0 0
1730 2 17.024316934107905 13.224746715832481 -0.004848067662941146 0 0 0
1734 2 21.655705010859897 13.224746715832481 -0.004848067662940736 0 0 0
1733 1 18.53408339143011 14.877821862880483 -0.0048480610724993675 0 0 0
1818 2 17.024316934107905 16.530924967923482 -0.0048480676629410685 0 0 0
1822 2 21.655705010859897 16.530924967923482 -0.004848067662940752 0 0 0
1736 4 20.851008378235154 13.224749954236492 2.1092323611797865 0 0 0
1735 3 19.33878007219557 14.877818632436307 2.1092323659371295 0 0 0
1824 4 20.851008378235154 16.530928206327495 2.1092323611797865 0 0 0
1738 2 26.2870930876119 13.224746715832481 -0.004848067662941452 0 0 0
1737 1 23.16547146818211 14.877821862880483 -0.004848061072499374 0 0 0
1741 1 27.79685954493411 14.877821862880483 -0.004848061072500125 0 0 0
1826 2 26.2870930876119 16.530924967923482 -0.004848067662941476 0 0 0
1740 4 25.482396454987157 13.224749954236492 2.1092323611797856 0 0 0
1739 3 23.97016814894757 14.877818632436307 2.109232365937129 0 0 0
1828 4 25.482396454987157 16.530928206327495 2.1092323611797856 0 0 0
1742 2 30.9184811643639 13.224746715832481 -0.004848067662941654 0 0 0
1745 1 32.42824762168611 14.877821862880483 -0.004848061072498948 0 0 0
1830 2 30.9184811643639 16.530924967923482 -0.00484806766294168 0 0 0
1744 4 30.113784531739157 13.224749954236492 2.109232361179785 0 0 0
1743 3 28.601556225699564 14.877818632436307 2.1092323659371286 0 0 0
1747 3 33.232944302451564 14.877818632436307 2.1092323659371295 0 0 0
1832 4 30.113784531739157 16.530928206327495 2.109232361179785 0 0 0
1746 2 35.5498692411159 13.224746715832481 -0.004848067662941045 0 0 0
1749 1 37.05963569843811 14.877821862880483 -0.00484806107249937 0 0 0
1834 2 35.5498692411159 16.530924967923482 -0.004848067662941071 0 0 0
1748 4 34.74517260849115 13.224749954236492 2.109232361179786 0 0 0
1752 4 39.376560685243156 13.224749954236492 2.109232361179786 0 0 0
1751 3 37.86433237920357 14.877818632436307 2.1092323659371295 0 0 0
1836 4 34.74517260849115 16.530928206327495 2.109232361179786 0 0 0
1840 4 39.376560685243156 16.530928206327495 2.109232361179786 0 0 0
1750 2 40.181257317867896 13.224746715832481 -0.004848067662940567 0 0 0
1754 2 44.8126453946199 13.224746715832481 -0.004848067662941094 0 0 0
1753 1 41.69102377519011 14.877821862880484 -0.004848061072499007 0 0 0
1838 2 40.181257317867896 16.530924967923482 -0.004848067662940385 0 0 0
1842 2 44.8126453946199 16.530924967923482 -0.004848067662940906 0 0 0
1756 4 44.00794876199515 13.224749954236492 2.1092323611797856 0 0 0
1755 3 42.49572045595557 14.877818632436307 2.109232365937129 0 0 0
1844 4 44.00794876199515 16.530928206327495 2.109232361179785 0 0 0
1758 2 49.444033471371895 13.224746715832481 -0.004848067662940903 0 0 0
1757 1 46.32241185194211 14.877821862880484 -0.004848061072499563 0 0 0
1846 2 49.444033471371895 16.530924967923482 -0.004848067662940937 0 0 0
1760 4 48.639336838747155 13.224749954236492 2.109232361179785 0 0 0
1759 3 47.12710853270757 14.877818632436307 2.109232365937128 0 0 0
1848 4 48.639336838747155 16.53092820632749 2.1092323611797847 0 0 0
1674 2 54.0754215481239 13.224746715832481 -0.004848067662941147 -1 0 0
1673 1 50.95379992869411 14.877821862880483 -0.004848061072498626 -1 0 0