LAMMPS data file via write_data, version 29 Aug 2024, timestep = 2, units = metal

7920 atoms
12 atom types

0 101.890537688544 xlo xhi
0 99.18534756273 ylo yhi
-50 50 zlo zhi

Masses

1 30.973761998
2 30.973761998
3 30.973761998
4 30.973761998
5 30.973761998
6 30.973761998
7 30.973761998
8 30.973761998
9 30.973761998
10 30.973761998
11 30.973761998
12 30.973761998

Atoms # atomic

1366 2 3.1306034702811134 3.089163408087617e-05 -0.004002811576819736 0 0 0
1365 1 0.008080314805654552 1.6531116697587132 -0.004002801554753257 0 0 0
1369 1 4.6394683915576564 1.6531116697587134 -0.004002801554752843 0 0 0
1454 2 3.130603470281115 3.3062091437250793 -0.0040028115768195914 0 0 0
1453 1 0.008080314805654762 4.959289921849714 -0.004002801554753211 0 0 0
1457 1 4.6394683915576564 4.959289921849714 -0.00400280155475275 0 0 0
1368 4 2.3249292035618074 3.364453395107352e-05 2.109302537022896 0 0 0
1367 3 0.8137546360421537 1.6531089260093839 2.109302545568854 0 0 0
1371 3 5.4451427127941505 1.6531089260093839 2.1093025455688545 0 0 0
1456 4 2.3249292035618057 3.3062118966249487 2.109302537022896 0 0 0
1455 3 0.8137546360421533 4.959287178100385 2.109302545568854 0 0 0
1459 3 5.4451427127941505 4.959287178100385 2.1093025455688545 0 0 0
1370 2 7.761991547033114 3.089163408102276e-05 -0.004002811576819528 0 0 0
1373 1 9.270856468309654 1.6531116697587134 -0.004002801554752606 0 0 0
1458 2 7.761991547033117 3.3062091437250793 -0.004002811576819405 0 0 0
1461 1 9.270856468309656 4.959289921849714 -0.004002801554752508 0 0 0
1372 4 6.9563172803138045 3.364453395105979e-05 2.109302537022896 0 0 0
1375 3 10.076530789546153 1.6531089260093836 2.109302545568854 0 0 0
1460 4 6.956317280313803 3.306211896624949 2.109302537022896 0 0 0
1463 3 10.076530789546153 4.959287178100385 2.109302545568854 0 0 0
1374 2 12.393379623785117 3.0891634080885785e-05 -0.004002811576820049 0 0 0
1377 1 13.902244545061656 1.6531116697587136 -0.00400280155475287 0 0 0
1462 2 12.393379623785119 3.30620914372508 -0.004002811576820006 0 0 0
1465 1 13.902244545061658 4.959289921849714 -0.004002801554752767 0 0 0
1376 4 11.587705357065808 3.364453395107201e-05 2.1093025370228955 0 0 0
1380 4 16.219093433817804 3.364453395105661e-05 2.1093025370228964 0 0 0
1379 3 14.70791886629815 1.6531089260093839 2.1093025455688545 0 0 0
1464 4 11.587705357065806 3.3062118966249487 2.109302537022896 0 0 0
1468 4 16.219093433817804 3.3062118966249487 2.1093025370228964 0 0 0
1467 3 14.70791886629815 4.959287178100385 2.1093025455688545 0 0 0
1378 2 17.02476770053712 3.0891634081135904e-05 -0.004002811576819839 0 0 0
1382 2 21.65615577728911 3.089163408097982e-05 -0.00400281157681886 0 0 0
1381 1 18.533632621813656 1.6531116697587136 -0.004002801554752822 0 0 0
1466 2 17.02476770053712 3.3062091437250793 -0.004002811576819673 0 0 0
1470 2 21.656155777289115 3.3062091437250793 -0.0040028115768186694 0 0 0
1469 1 18.533632621813656 4.959289921849714 -0.004002801554752832 0 0 0
1384 4 20.850481510569807 3.364453395119414e-05 2.1093025370228964 0 0 0
1383 3 19.339306943050154 1.653108926009384 2.109302545568855 0 0 0
1472 4 20.850481510569804 3.3062118966249487 2.109302537022897 0 0 0
1471 3 19.339306943050154 4.959287178100385 2.109302545568855 0 0 0
1386 2 26.287543854041115 3.089163408098805e-05 -0.004002811576819465 0 0 0
1385 1 23.165020698565655 1.6531116697587136 -0.0040028015547525315 0 0 0
1389 1 27.79640877531766 1.6531116697587136 -0.0040028015547528 0 0 0
1474 2 26.287543854041118 3.3062091437250793 -0.004002811576819264 0 0 0
1473 1 23.165020698565655 4.959289921849714 -0.00400280155475249 0 0 0
1477 1 27.79640877531766 4.959289921849714 -0.00400280155475277 0 0 0
1388 4 25.48186958732181 3.3644533951070375e-05 2.1093025370228955 0 0 0
1387 3 23.970695019802157 1.6531089260093839 2.1093025455688545 0 0 0
1476 4 25.481869587321807 3.3062118966249487 2.1093025370228955 0 0 0
1475 3 23.970695019802157 4.959287178100385 2.1093025455688545 0 0 0
1390 2 30.918931930793114 3.0891634080988974e-05 -0.004002811576819924 0 0 0
1393 1 32.42779685206966 1.6531116697587132 -0.004002801554751978 0 0 0
1478 2 30.918931930793118 3.3062091437250793 -0.004002811576819431 0 0 0
1481 1 32.42779685206966 4.959289921849714 -0.004002801554751789 0 0 0
1392 4 30.11325766407381 3.364453395119236e-05 2.109302537022895 0 0 0
1391 3 28.60208309655415 1.6531089260093836 2.1093025455688537 0 0 0
1395 3 33.23347117330615 1.6531089260093839 2.109302545568855 0 0 0
1480 4 30.113257664073807 3.3062118966249487 2.1093025370228946 0 0 0
1479 3 28.60208309655415 4.959287178100385 2.109302545568853 0 0 0
1483 3 33.23347117330615 4.959287178100385 2.109302545568855 0 0 0
1394 2 35.55032000754512 3.089163408103616e-05 -0.004002811576819512 0 0 0
1397 1 37.05918492882165 1.6531116697587136 -0.004002801554752563 0 0 0
1482 2 35.55032000754512 3.3062091437250793 -0.00400281157681933 0 0 0
1485 1 37.05918492882165 4.959289921849714 -0.004002801554752566 0 0 0
1396 4 34.7446457408258 3.3644533951181716e-05 2.109302537022896 0 0 0
1400 4 39.376033817577806 3.364453395117793e-05 2.1093025370228964 0 0 0
1399 3 37.86485925005815 1.653108926009384 2.109302545568855 0 0 0
1484 4 34.7446457408258 3.3062118966249487 2.1093025370228964 0 0 0
1488 4 39.376033817577806 3.3062118966249487 2.1093025370228964 0 0 0
1487 3 37.86485925005815 4.959287178100385 2.109302545568855 0 0 0
1398 2 40.181708084297114 3.0891634080988805e-05 -0.004002811576819184 0 0 0
1402 2 44.81309616104912 3.089163408098597e-05 -0.0040028115768198005 0 0 0
1401 1 41.690573005573654 1.6531116697587134 -0.004002801554752648 0 0 0
1486 2 40.181708084297114 3.3062091437250793 -0.0040028115768189765 0 0 0
1490 2 44.81309616104912 3.3062091437250793 -0.004002811576819611 0 0 0
1489 1 41.690573005573654 4.959289921849714 -0.004002801554752622 0 0 0
1404 4 44.00742189432981 3.364453395120179e-05 2.109302537022896 0 0 0
1403 3 42.496247326810156 1.6531089260093839 2.1093025455688545 0 0 0
1492 4 44.00742189432981 3.3062118966249487 2.109302537022896 0 0 0
1491 3 42.496247326810156 4.959287178100385 2.1093025455688545 0 0 0
1406 2 49.44448423780111 3.089163408098882e-05 -0.004002811576819023 0 0 0
1405 1 46.32196108232566 1.6531116697587134 -0.004002801554753056 0 0 0
1494 2 49.44448423780112 3.3062091437250802 -0.004002811576819159 0 0 0
1493 1 46.32196108232566 4.959289921849714 -0.004002801554753032 0 0 0
1408 4 48.638809971081805 3.3644533951202756e-05 2.109302537022895 0 0 0
1407 3 47.127635403562145 1.653108926009384 2.1093025455688537 0 0 0
1496 4 48.638809971081805 3.3062118966249487 2.1093025370228955 0 0 0
1495 3 47.127635403562145 4.959287178100385 2.1093025455688537 0 0 0
1322 2 54.075872314553116 3.089163408097766e-05 -0.004002811576819329 -1 0 0
1321 1 50.95334915907766 1.6531116697587134 -0.0040028015547517 -1 0 0
1325 1 55.58473723582966 1.6531116697587134 -0.004002801554752692 -1 0 0
1410 2 54.075872314553116 3.3062091437250793 -0.004002811576819149 -1 0 0
1409 1 50.95334915907766 4.959289921849714 -0.004002801554752059 -1 0 0
1413 1 55.58473723582966 4.959289921849714 -0.004002801554752655 -1 0 0
1324 4 53.27019804783381 3.364453395118332e-05 2.109302537022896 -1 0 0
1323 3 51.759023480314156 1.6531089260093836 2.109302545568855 -1 0 0
1327 3 56.39041155706615 1.6531089260093832 2.109302545568854 -1 0 0
1412 4 53.27019804783381 3.3062118966249496 2.1093025370228964 -1 0 0
1411 3 51.759023480314156 4.959287178100385 2.109302545568855 -1 0 0
1415 3 56.39041155706615 4.959287178100385 2.1093025455688537 -1 0 0
1326 2 58.70726039130512 3.0891634081817285e-05 -0.004002811576819517 -1 0 0
1329 1 60.21612531258166 1.6531116697587132 -0.004002801554752313 -1 0 0
1414 2 58.70726039130512 3.3062091437250793 -0.004002811576819407 -1 0 0
1417 1 60.21612531258166 4.959289921849714 -0.004002801554752399 -1 0 0
1328 4 57.90158612458581 3.364453395107756e-05 2.1093025370228955 -1 0 0
1331 3 61.021799633818155 1.6531089260093836 2.1093025455688545 -1 0 0
1416 4 57.901586124585805 3.306211896624949 2.109302537022895 -1 0 0
1419 3 61.021799633818155 4.959287178100385 2.1093025455688545 -1 0 0
1330 2 63.338648468057116 3.0891634081022605e-05 -0.004002811576820023 -1 0 0
1333 1 64.84751338933366 1.6531116697587127 -0.0040028015547529106 -1 0 0
1418 2 63.338648468057116 3.3062091437250793 -0.004002811576819717 -1 0 0
1421 1 64.84751338933366 4.959289921849714 -0.004002801554752671 -1 0 0
1332 4 62.53297420133781 3.3644533951244566e-05 2.1093025370228955 -1 0 0
1336 4 67.16436227808981 3.3644533951082125e-05 2.1093025370228964 -1 0 0
1335 3 65.65318771057015 1.653108926009382 2.109302545568855 -1 0 0
1420 4 62.53297420133781 3.3062118966249496 2.109302537022896 -1 0 0
1424 4 67.1643622780898 3.306211896624949 2.109302537022896 -1 0 0
1423 3 65.65318771057015 4.959287178100385 2.109302545568854 -1 0 0
1334 2 67.97003654480912 3.089163408103175e-05 -0.004002811576820248 -1 0 0
1338 2 72.60142462156112 3.0891634080984726e-05 -0.00400281157681948 -1 0 0
1337 1 69.47890146608566 1.6531116697587118 -0.004002801554752816 -1 0 0
1422 2 67.97003654480912 3.30620914372508 -0.004002811576819274 -1 0 0
1426 2 72.60142462156112 3.3062091437250793 -0.004002811576818907 -1 0 0
1425 1 69.47890146608566 4.959289921849714 -0.004002801554752122 -1 0 0
1340 4 71.79575035484181 3.364453395120344e-05 2.109302537022897 -1 0 0
1339 3 70.28457578732215 1.6531089260093823 2.109302545568855 -1 0 0
1428 4 71.7957503548418 3.306211896624949 2.109302537022896 -1 0 0
1427 3 70.28457578732215 4.959287178100385 2.1093025455688545 -1 0 0
1342 2 77.23281269831311 3.08916340809804e-05 -0.0040028115768206505 -1 0 0
1341 1 74.11028954283766 1.6531116697587134 -0.004002801554752605 -1 0 0
1345 1 78.74167761958967 1.6531116697587134 -0.004002801554753403 -1 0 0
1430 2 77.23281269831313 3.3062091437250793 -0.00400281157682045 -1 0 0
1429 1 74.11028954283766 4.959289921849714 -0.004002801554752262 -1 0 0
1433 1 78.74167761958967 4.959289921849714 -0.004002801554753371 -1 0 0
1344 4 76.4271384315938 3.364453395118691e-05 2.1093025370228955 -1 0 0
1343 3 74.91596386407416 1.6531089260093839 2.109302545568854 -1 0 0
1432 4 76.4271384315938 3.306211896624949 2.1093025370228955 -1 0 0
1431 3 74.91596386407416 4.959287178100385 2.109302545568854 -1 0 0
1346 2 81.86420077506511 3.0891634080990214e-05 -0.004002811576818801 -1 0 0
1349 1 83.37306569634167 1.6531116697587134 -0.004002801554751669 -1 0 0
1434 2 81.86420077506511 3.3062091437250793 -0.004002811576818608 -1 0 0
1437 1 83.37306569634167 4.959289921849714 -0.004002801554751651 -1 0 0
1348 4 81.0585265083458 3.364453395077836e-05 2.1093025370228964 -1 0 0
1347 3 79.54735194082615 1.6531089260093839 2.1093025455688545 -1 0 0
1351 3 84.17874001757815 1.653108926009384 2.109302545568855 -1 0 0
1436 4 81.0585265083458 3.3062118966249487 2.109302537022897 -1 0 0
1435 3 79.54735194082615 4.959287178100385 2.1093025455688545 -1 0 0
1439 3 84.17874001757815 4.959287178100385 2.109302545568855 -1 0 0
1350 2 86.49558885181712 3.0891634080987484e-05 -0.004002811576819647 -1 0 0
1353 1 88.00445377309366 1.6531116697587134 -0.0040028015547529 -1 0 0
1438 2 86.49558885181712 3.3062091437250793 -0.004002811576819594 -1 0 0
1441 1 88.00445377309366 4.959289921849714 -0.004002801554752833 -1 0 0
1352 4 85.68991458509781 3.3644533951181066e-05 2.109302537022896 -1 0 0
1356 4 90.32130266184981 3.364453395108612e-05 2.109302537022896 -1 0 0
1355 3 88.81012809433015 1.6531089260093823 2.109302545568854 -1 0 0
1440 4 85.68991458509781 3.3062118966249487 2.109302537022896 -1 0 0
1444 4 90.3213026618498 3.306211896624949 2.109302537022895 -1 0 0
1443 3 88.81012809433015 4.959287178100385 2.1093025455688537 -1 0 0
1354 2 91.12697692856912 3.089163408102793e-05 -0.004002811576820508 -1 0 0
1358 2 95.75836500532111 3.089163408098458e-05 -0.004002811576818705 -1 0 0
1357 1 92.63584184984566 1.6531116697587118 -0.004002801554752831 -1 0 0
1442 2 91.12697692856912 3.30620914372508 -0.004002811576819559 -1 0 0
1446 2 95.75836500532111 3.3062091437250793 -0.004002811576818513 -1 0 0
1445 1 92.63584184984566 4.959289921849714 -0.004002801554752172 -1 0 0
1360 4 94.9526907386018 3.3644533951181974e-05 2.109302537022896 -1 0 0
1359 3 93.44151617108214 1.653108926009384 2.1093025455688537 -1 0 0
1448 4 94.9526907386018 3.3062118966249487 2.109302537022896 -1 0 0
1447 3 93.44151617108214 4.959287178100385 2.1093025455688537 -1 0 0
1362 2 100.38975308207311 3.089163408156354e-05 -0.004002811576819744 -1 0 0
1361 1 97.26722992659766 1.6531116697587134 -0.00400280155475128 -1 0 0
1450 2 100.38975308207311 3.30620914372508 -0.004002811576819566 -1 0 0
1449 1 97.26722992659766 4.959289921849714 -0.0040028015547512435 -1 0 0
1364 4 99.5840788153538 3.364453395117253e-05 2.109302537022896 -1 0 0
1363 3 98.07290424783416 1.6531089260093839 2.109302545568855 -1 0 0
1452 4 99.5840788153538 3.3062118966249487 2.109302537022896 -1 0 0
1451 3 98.07290424783416 4.959287178100385 2.109302545568855 -1 0 0
1542 2 3.130603470281115 6.61238739581608 -0.004002811576819714 0 0 0
1541 1 0.008080314805654808 8.265468173940715 -0.004002801554753674 0 0 0
1545 1 4.6394683915576564 8.265468173940715 -0.00400280155475306 0 0 0
1630 2 3.1306034702811156 9.91856564790708 -0.004002811576819579 0 0 0
1629 1 0.008080314805656078 11.571646426031714 -0.004002801554752801 0 0 0
1633 1 4.639468391557657 11.571646426031714 -0.004002801554752556 0 0 0
1544 4 2.324929203561805 6.61239014871595 2.109302537022896 0 0 0
1543 3 0.8137546360421521 8.265465430191384 2.109302545568854 0 0 0
1547 3 5.44514271279415 8.265465430191384 2.109302545568854 0 0 0
1632 4 2.3249292035618057 9.91856840080695 2.109302537022896 0 0 0
1631 3 0.813754636042153 11.571643682282383 2.1093025455688545 0 0 0
1635 3 5.4451427127941505 11.571643682282383 2.109302545568855 0 0 0
1546 2 7.761991547033117 6.61238739581608 -0.004002811576819548 0 0 0
1549 1 9.270856468309656 8.265468173940715 -0.004002801554752903 0 0 0
1634 2 7.761991547033117 9.91856564790708 -0.004002811576819396 0 0 0
1637 1 9.270856468309656 11.571646426031714 -0.004002801554752394 0 0 0
1548 4 6.956317280313803 6.61239014871595 2.109302537022896 0 0 0
1551 3 10.076530789546151 8.265465430191384 2.109302545568854 0 0 0
1636 4 6.956317280313803 9.91856840080695 2.109302537022896 0 0 0
1639 3 10.076530789546153 11.571643682282383 2.109302545568855 0 0 0
1550 2 12.393379623785119 6.61238739581608 -0.004002811576820156 0 0 0
1553 1 13.902244545061658 8.265468173940715 -0.004002801554753178 0 0 0
1638 2 12.393379623785119 9.91856564790708 -0.004002811576820099 0 0 0
1641 1 13.902244545061658 11.571646426031714 -0.004002801554752546 0 0 0
1552 4 11.587705357065804 6.61239014871595 2.109302537022896 0 0 0
1556 4 16.219093433817804 6.61239014871595 2.1093025370228964 0 0 0
1555 3 14.70791886629815 8.265465430191384 2.109302545568854 0 0 0
1640 4 11.587705357065804 9.91856840080695 2.109302537022896 0 0 0
1644 4 16.219093433817804 9.91856840080695 2.1093025370228964 0 0 0
1643 3 14.70791886629815 11.571643682282383 2.109302545568855 0 0 0
1554 2 17.02476770053712 6.612387395816081 -0.004002811576819755 0 0 0
1558 2 21.656155777289115 6.61238739581608 -0.004002811576818844 0 0 0
1557 1 18.533632621813656 8.265468173940716 -0.004002801554753236 0 0 0
1642 2 17.02476770053712 9.918565647907082 -0.004002811576819692 0 0 0
1646 2 21.656155777289115 9.91856564790708 -0.004002811576818871 0 0 0
1645 1 18.533632621813656 11.571646426031714 -0.0040028015547525385 0 0 0
1560 4 20.850481510569804 6.61239014871595 2.1093025370228964 0 0 0
1559 3 19.339306943050154 8.265465430191384 2.1093025455688545 0 0 0
1648 4 20.850481510569804 9.91856840080695 2.109302537022897 0 0 0
1647 3 19.339306943050154 11.571643682282383 2.109302545568855 0 0 0
1562 2 26.287543854041118 6.61238739581608 -0.004002811576819435 0 0 0
1561 1 23.165020698565655 8.265468173940715 -0.00400280155475289 0 0 0
1565 1 27.79640877531766 8.265468173940715 -0.004002801554753307 0 0 0
1650 2 26.287543854041118 9.91856564790708 -0.004002811576819451 0 0 0
1649 1 23.16502069856566 11.571646426031714 -0.00400280155475225 0 0 0
1653 1 27.796408775317662 11.571646426031714 -0.0040028015547526555 0 0 0
1564 4 25.481869587321807 6.61239014871595 2.1093025370228955 0 0 0
1563 3 23.970695019802154 8.265465430191384 2.109302545568854 0 0 0
1652 4 25.481869587321807 9.91856840080695 2.109302537022896 0 0 0
1651 3 23.970695019802157 11.571643682282383 2.1093025455688545 0 0 0
1566 2 30.918931930793118 6.61238739581608 -0.004002811576819689 0 0 0
1569 1 32.42779685206966 8.265468173940715 -0.004002801554752459 0 0 0
1654 2 30.91893193079312 9.91856564790708 -0.004002811576819788 0 0 0
1657 1 32.42779685206966 11.571646426031714 -0.004002801554751809 0 0 0
1568 4 30.113257664073807 6.61239014871595 2.1093025370228946 0 0 0
1567 3 28.602083096554146 8.265465430191384 2.109302545568853 0 0 0
1571 3 33.23347117330615 8.265465430191384 2.1093025455688545 0 0 0
1656 4 30.113257664073807 9.91856840080695 2.109302537022895 0 0 0
1655 3 28.60208309655415 11.571643682282383 2.1093025455688537 0 0 0
1659 3 33.23347117330615 11.571643682282383 2.1093025455688554 0 0 0
1570 2 35.55032000754512 6.612387395816081 -0.004002811576819584 0 0 0
1573 1 37.05918492882165 8.265468173940716 -0.00400280155475324 0 0 0
1658 2 35.55032000754512 9.91856564790708 -0.004002811576819521 0 0 0
1661 1 37.05918492882165 11.571646426031714 -0.004002801554752274 0 0 0
1572 4 34.7446457408258 6.612390148715951 2.1093025370228964 0 0 0
1576 4 39.376033817577806 6.61239014871595 2.1093025370228964 0 0 0
1575 3 37.86485925005815 8.265465430191384 2.1093025455688545 0 0 0
1660 4 34.7446457408258 9.918568400806949 2.1093025370228964 0 0 0
1664 4 39.376033817577806 9.918568400806949 2.1093025370228964 0 0 0
1663 3 37.86485925005815 11.571643682282383 2.109302545568855 0 0 0
1574 2 40.181708084297114 6.61238739581608 -0.004002811576819091 0 0 0
1578 2 44.81309616104912 6.61238739581608 -0.0040028115768196895 0 0 0
1577 1 41.690573005573654 8.265468173940715 -0.004002801554753023 0 0 0
1662 2 40.181708084297114 9.91856564790708 -0.004002811576819027 0 0 0
1666 2 44.81309616104912 9.91856564790708 -0.004002811576819619 0 0 0
1665 1 41.690573005573654 11.571646426031714 -0.004002801554752367 0 0 0
1580 4 44.00742189432981 6.61239014871595 2.109302537022896 0 0 0
1579 3 42.496247326810156 8.265465430191384 2.109302545568854 0 0 0
1668 4 44.00742189432981 9.91856840080695 2.109302537022896 0 0 0
1667 3 42.496247326810156 11.571643682282383 2.1093025455688545 0 0 0
1582 2 49.44448423780112 6.61238739581608 -0.004002811576819587 0 0 0
1581 1 46.32196108232566 8.265468173940715 -0.004002801554753444 0 0 0
1670 2 49.44448423780112 9.91856564790708 -0.004002811576819524 0 0 0
1669 1 46.32196108232566 11.571646426031714 -0.004002801554752786 0 0 0
1584 4 48.638809971081805 6.61239014871595 2.109302537022895 0 0 0
1583 3 47.127635403562145 8.265465430191384 2.109302545568853 0 0 0
1672 4 48.638809971081805 9.91856840080695 2.1093025370228955 0 0 0
1671 3 47.127635403562145 11.571643682282383 2.1093025455688537 0 0 0
1498 2 54.075872314553116 6.61238739581608 -0.004002811576819249 -1 0 0
1497 1 50.95334915907766 8.265468173940715 -0.004002801554752294 -1 0 0
1501 1 55.58473723582966 8.265468173940715 -0.0040028015547530675 -1 0 0
1586 2 54.075872314553116 9.91856564790708 -0.004002811576819174 -1 0 0
1585 1 50.95334915907766 11.571646426031714 -0.004002801554751638 -1 0 0
1589 1 55.58473723582966 11.571646426031714 -0.00400280155475242 -1 0 0
1500 4 53.27019804783381 6.612390148715949 2.1093025370228964 -1 0 0
1499 3 51.759023480314156 8.265465430191384 2.109302545568855 -1 0 0
1503 3 56.39041155706615 8.265465430191384 2.109302545568853 -1 0 0
1588 4 53.27019804783381 9.91856840080695 2.1093025370228964 -1 0 0
1587 3 51.759023480314156 11.571643682282383 2.1093025455688554 -1 0 0
1591 3 56.39041155706615 11.571643682282383 2.109302545568854 -1 0 0
1502 2 58.70726039130512 6.61238739581608 -0.0040028115768196626 -1 0 0
1505 1 60.21612531258166 8.265468173940715 -0.004002801554752638 -1 0 0
1590 2 58.70726039130512 9.91856564790708 -0.004002811576819586 -1 0 0
1593 1 60.21612531258166 11.571646426031714 -0.004002801554752 -1 0 0
1504 4 57.901586124585805 6.612390148715949 2.109302537022895 -1 0 0
1507 3 61.021799633818155 8.265465430191384 2.1093025455688545 -1 0 0
1592 4 57.901586124585805 9.91856840080695 2.109302537022895 -1 0 0
1595 3 61.021799633818155 11.571643682282383 2.109302545568855 -1 0 0
1506 2 63.338648468057116 6.61238739581608 -0.00400281157681983 -1 0 0
1509 1 64.84751338933366 8.265468173940715 -0.004002801554753081 -1 0 0
1594 2 63.33864846805712 9.918565647907082 -0.004002811576820102 -1 0 0
1597 1 64.84751338933367 11.571646426031714 -0.004002801554752858 -1 0 0
1508 4 62.53297420133781 6.612390148715949 2.109302537022896 -1 0 0
1512 4 67.1643622780898 6.61239014871595 2.109302537022896 -1 0 0
1511 3 65.65318771057015 8.265465430191384 2.1093025455688537 -1 0 0
1596 4 62.53297420133781 9.91856840080695 2.109302537022896 -1 0 0
1600 4 67.1643622780898 9.91856840080695 2.109302537022896 -1 0 0
1599 3 65.65318771057015 11.571643682282383 2.1093025455688545 -1 0 0
1510 2 67.97003654480912 6.612387395816081 -0.00400281157681937 -1 0 0
1514 2 72.60142462156112 6.61238739581608 -0.004002811576819004 -1 0 0
1513 1 69.47890146608566 8.265468173940716 -0.0040028015547525445 -1 0 0
1598 2 67.97003654480912 9.918565647907082 -0.004002811576819296 -1 0 0
1602 2 72.60142462156112 9.91856564790708 -0.004002811576818937 -1 0 0
1601 1 69.47890146608566 11.571646426031714 -0.004002801554751829 -1 0 0
1516 4 71.7957503548418 6.61239014871595 2.109302537022896 -1 0 0
1515 3 70.28457578732215 8.265465430191384 2.109302545568854 -1 0 0
1604 4 71.7957503548418 9.91856840080695 2.109302537022896 -1 0 0
1603 3 70.28457578732215 11.571643682282383 2.109302545568855 -1 0 0
1518 2 77.23281269831313 6.61238739581608 -0.004002811576820546 -1 0 0
1517 1 74.11028954283766 8.265468173940715 -0.004002801554752666 -1 0 0
1521 1 78.74167761958967 8.265468173940715 -0.004002801554753773 -1 0 0
1606 2 77.23281269831313 9.91856564790708 -0.004002811576820482 -1 0 0
1605 1 74.11028954283766 11.571646426031714 -0.00400280155475201 -1 0 0
1609 1 78.74167761958967 11.571646426031714 -0.004002801554753116 -1 0 0
1520 4 76.4271384315938 6.61239014871595 2.1093025370228955 -1 0 0
1519 3 74.91596386407416 8.265465430191384 2.1093025455688537 -1 0 0
1608 4 76.4271384315938 9.91856840080695 2.1093025370228955 -1 0 0
1607 3 74.91596386407416 11.571643682282383 2.1093025455688545 -1 0 0
1522 2 81.86420077506511 6.61238739581608 -0.004002811576818704 -1 0 0
1525 1 83.37306569634167 8.265468173940715 -0.004002801554751886 -1 0 0
1610 2 81.86420077506511 9.91856564790708 -0.0040028115768186365 -1 0 0
1613 1 83.37306569634167 11.571646426031714 -0.004002801554751227 -1 0 0
1524 4 81.0585265083458 6.61239014871595 2.1093025370228964 -1 0 0
1523 3 79.54735194082615 8.265465430191384 2.109302545568854 -1 0 0
1527 3 84.17874001757815 8.265465430191384 2.1093025455688545 -1 0 0
1612 4 81.0585265083458 9.91856840080695 2.1093025370228964 -1 0 0
1611 3 79.54735194082615 11.571643682282383 2.1093025455688545 -1 0 0
1615 3 84.17874001757815 11.571643682282383 2.109302545568855 -1 0 0
1526 2 86.49558885181712 6.61238739581608 -0.004002811576819691 -1 0 0
1529 1 88.00445377309366 8.265468173940715 -0.004002801554753245 -1 0 0
1614 2 86.49558885181712 9.91856564790708 -0.004002811576819627 -1 0 0
1617 1 88.00445377309366 11.571646426031714 -0.004002801554752598 -1 0 0
1528 4 85.68991458509781 6.612390148715949 2.109302537022896 -1 0 0
1532 4 90.3213026618498 6.61239014871595 2.109302537022895 -1 0 0
1531 3 88.81012809433015 8.265465430191384 2.109302545568853 -1 0 0
1616 4 85.68991458509781 9.91856840080695 2.1093025370228964 -1 0 0
1620 4 90.3213026618498 9.91856840080695 2.109302537022895 -1 0 0
1619 3 88.81012809433015 11.571643682282383 2.1093025455688537 -1 0 0
1530 2 91.12697692856912 6.612387395816081 -0.004002811576819646 -1 0 0
1534 2 95.75836500532112 6.61238739581608 -0.0040028115768186035 -1 0 0
1533 1 92.63584184984566 8.265468173940716 -0.004002801554752583 -1 0 0
1618 2 91.12697692856912 9.918565647907082 -0.00400281157681958 -1 0 0
1622 2 95.75836500532111 9.91856564790708 -0.004002811576818527 -1 0 0
1621 1 92.63584184984566 11.571646426031714 -0.0040028015547518775 -1 0 0
1536 4 94.9526907386018 6.61239014871595 2.109302537022896 -1 0 0
1535 3 93.44151617108214 8.265465430191384 2.109302545568853 -1 0 0
1624 4 94.9526907386018 9.91856840080695 2.109302537022896 -1 0 0
1623 3 93.44151617108214 11.571643682282383 2.1093025455688537 -1 0 0
1538 2 100.38975308207311 6.612387395816081 -0.00400281157681971 -1 0 0
1537 1 97.26722992659766 8.265468173940715 -0.004002801554751644 -1 0 0
1626 2 100.38975308207311 9.918565647907082 -0.00400281157681965 -1 0 0
1625 1 97.26722992659766 11.571646426031714 -0.004002801554750997 -1 0 0
1540 4 99.5840788153538 6.61239014871595 2.109302537022896 -1 0 0
1539 3 98.07290424783416 8.265465430191384 2.109302545568855 -1 0 0
1628 4 99.5840788153538 9.91856840080695 2.109302537022896 -1 0 0
1627 3 98.07290424783416 11.571643682282383 2.1093025455688554 -1 0 0
1718 2 3.1306034702811156 13.224743899998082 -0.00400281157681949 0 0 0
1717 1 0.008080314805654647 14.877824678122714 -0.004002801554753238 0 0 0
1721 1 4.6394683915576564 14.877824678122714 -0.004002801554752789 0 0 0
1806 2 3.1306034702811156 16.530922152089083 -0.004002811576819676 0 0 0
1720 4 2.3249292035618057 13.22474665289795 2.109302537022896 0 0 0
1719 3 0.8137546360421531 14.877821934373385 2.109302545568854 0 0 0
1723 3 5.4451427127941505 14.877821934373385 2.1093025455688545 0 0 0
1808 4 2.3249292035618057 16.53092490498895 2.109302537022896 0 0 0
1722 2 7.761991547033117 13.224743899998082 -0.004002811576819271 0 0 0
1725 1 9.270856468309654 14.877824678122714 -0.004002801554752587 0 0 0
1810 2 7.761991547033116 16.530922152089083 -0.0040028115768192644 0 0 0
1724 4 6.956317280313803 13.22474665289795 2.109302537022896 0 0 0
1727 3 10.076530789546153 14.877821934373385 2.109302545568854 0 0 0
1812 4 6.956317280313803 16.53092490498895 2.109302537022896 0 0 0
1726 2 12.393379623785119 13.224743899998082 -0.004002811576820005 0 0 0
1729 1 13.902244545061658 14.877824678122714 -0.004002801554752842 0 0 0
1814 2 12.393379623785119 16.530922152089083 -0.004002811576820082 0 0 0
1728 4 11.587705357065806 13.22474665289795 2.109302537022896 0 0 0
1732 4 16.219093433817804 13.22474665289795 2.1093025370228964 0 0 0
1731 3 14.70791886629815 14.877821934373385 2.1093025455688545 0 0 0
1816 4 11.587705357065806 16.53092490498895 2.109302537022896 0 0 0
1820 4 16.219093433817804 16.53092490498895 2.1093025370228964 0 0 0
1730 2 17.02476770053712 13.224743899998082 -0.0040028115768195914 0 0 0
1734 2 21.656155777289115 13.224743899998082 -0.004002811576818723 0 0 0
1733 1 18.533632621813656 14.877824678122714 -0.0040028015547528915 0 0 0
1818 2 17.02476770053712 16.530922152089083 -0.00400281157681971 0 0 0
1822 2 21.656155777289115 16.530922152089083 -0.004002811576818755 0 0 0
1736 4 20.850481510569804 13.22474665289795 2.109302537022897 0 0 0
1735 3 19.339306943050154 14.877821934373385 2.109302545568855 0 0 0
1824 4 20.850481510569804 16.53092490498895 2.1093025370228964 0 0 0
1738 2 26.287543854041118 13.224743899998082 -0.004002811576819323 0 0 0
1737 1 23.165020698565655 14.877824678122714 -0.0040028015547525315 0 0 0
1741 1 27.79640877531766 14.877824678122714 -0.004002801554752812 0 0 0
1826 2 26.287543854041118 16.530922152089083 -0.004002811576819352 0 0 0
1740 4 25.481869587321807 13.22474665289795 2.109302537022896 0 0 0
1739 3 23.970695019802157 14.877821934373385 2.1093025455688545 0 0 0
1828 4 25.481869587321807 16.53092490498895 2.1093025370228955 0 0 0
1742 2 30.91893193079312 13.22474389999808 -0.004002811576819554 0 0 0
1745 1 32.42779685206966 14.877824678122714 -0.00400280155475185 0 0 0
1830 2 30.918931930793118 16.530922152089083 -0.0040028115768195 0 0 0
1744 4 30.113257664073807 13.22474665289795 2.109302537022895 0 0 0
1743 3 28.60208309655415 14.877821934373385 2.109302545568853 0 0 0
1747 3 33.23347117330615 14.877821934373385 2.109302545568855 0 0 0
1832 4 30.113257664073807 16.53092490498895 2.1093025370228946 0 0 0
1746 2 35.55032000754512 13.224743899998082 -0.004002811576819254 0 0 0
1749 1 37.05918492882165 14.877824678122714 -0.004002801554752624 0 0 0
1834 2 35.55032000754512 16.530922152089083 -0.004002811576819381 0 0 0
1748 4 34.7446457408258 13.22474665289795 2.1093025370228964 0 0 0
1752 4 39.376033817577806 13.22474665289795 2.1093025370228964 0 0 0
1751 3 37.86485925005815 14.877821934373385 2.1093025455688545 0 0 0
1836 4 34.7446457408258 16.53092490498895 2.109302537022896 0 0 0
1840 4 39.376033817577806 16.53092490498895 2.1093025370228964 0 0 0
1750 2 40.181708084297114 13.224743899998082 -0.004002811576818948 0 0 0
1754 2 44.81309616104912 13.224743899998082 -0.004002811576819568 0 0 0
1753 1 41.690573005573654 14.877824678122714 -0.00400280155475266 0 0 0
1838 2 40.181708084297114 16.530922152089083 -0.004002811576819064 0 0 0
1842 2 44.81309616104912 16.530922152089083 -0.004002811576819691 0 0 0
1756 4 44.0074218943298 13.22474665289795 2.109302537022896 0 0 0
1755 3 42.496247326810156 14.877821934373385 2.1093025455688545 0 0 0
1844 4 44.0074218943298 16.53092490498895 2.109302537022896 0 0 0
1758 2 49.44448423780112 13.224743899998082 -0.004002811576819443 0 0 0
1757 1 46.32196108232566 14.877824678122714 -0.00400280155475307 0 0 0
1846 2 49.44448423780112 16.530922152089083 -0.0040028115768193755 0 0 0
1760 4 48.638809971081805 13.22474665289795 2.1093025370228955 0 0 0
1759 3 47.127635403562145 14.877821934373385 2.1093025455688537 0 0 0
1848 4 48.638809971081805 16.53092490498895 2.109302537022895 0 0 0
1674 2 54.075872314553116 13.224743899998082 -0.004002811576819112 -1 0 0