LAMMPS data file via write_data, version 29 Aug 2024, timestep = 0, units = metal

2508 atoms
2 atom types

0 99.358560153303 xlo xhi
0 99.084467051406 ylo yhi
0 15.99234727524 zlo zhi

Masses

1 72.63
2 15.999

Atoms # atomic

1260 1 1.5054327295954977 0 0.9944417982830007 0 0 0
1258 2 3.010865459190498 0.8691619916790003 0 0 0 0
1264 1 4.5162981887865 0 0.9944417982830007 0 0 0
1262 2 6.0217309183815 0.8691619916790003 0 0 0 0
1268 1 7.5271636479774955 0 0.9944417982830007 0 0 0
1266 2 9.032596377572496 0.8691619916790003 0 0 0 0
1272 1 10.538029107168498 0 0.9944417982830007 0 0 0
1270 2 12.043461836763498 0.8691619916790003 0 0 0 0
1276 1 13.5488945663595 0 0.9944417982830007 0 0 0
1274 2 15.0543272959545 0.8691619916790003 0 0 0 0
1280 1 16.559760025550496 0 0.9944417982830007 0 0 0
1278 2 18.065192755145496 0.8691619916790003 0 0 0 0
1284 1 19.570625484741505 0 0.9944417982830007 0 0 0
1282 2 21.076058214336506 0.8691619916790003 0 0 0 0
1288 1 22.5814909439325 0 0.9944417982830007 0 0 0
1286 2 24.0869236735275 0.8691619916790003 0 0 0 0
1292 1 25.592356403123496 0 0.9944417982830007 0 0 0
1290 2 27.097789132718496 0.8691619916790003 0 0 0 0
1296 1 28.603221862314506 0 0.9944417982830007 0 0 0
1294 2 30.10865459190949 0.8691619916790003 0 0 0 0
1300 1 31.6140873215055 0 0.9944417982830007 0 0 0
1298 2 33.1195200511005 0.8691619916790003 0 0 0 0
1304 1 34.624952780696496 0 0.9944417982830007 0 0 0
1302 2 36.1303855102915 0.8691619916790003 0 0 0 0
1308 1 37.63581823988749 0 0.9944417982830007 0 0 0
1306 2 39.14125096948249 0.8691619916790003 0 0 0 0
1312 1 40.6466836990785 0 0.9944417982830007 0 0 0
1310 2 42.1521164286735 0.8691619916790003 0 0 0 0
1316 1 43.6575491582695 0 0.9944417982830007 0 0 0
1314 2 45.1629818878645 0.8691619916790003 0 0 0 0
1320 1 46.66841461746049 0 0.9944417982830007 0 0 0
1318 2 48.17384734705549 0.8691619916790003 0 0 0 0
1190 2 51.1847128062465 0.8691619916790003 0 -1 0 0
1192 1 49.6792800766515 0 0.9944417982830007 -1 0 0
1196 1 52.690145535842504 0 0.9944417982830007 -1 0 0
1194 2 54.195578265437504 0.8691619916790003 0 -1 0 0
1200 1 55.7010109950335 0 0.9944417982830007 -1 0 0
1198 2 57.2064437246285 0.8691619916790003 0 -1 0 0
1204 1 58.7118764542245 0 0.9944417982830007 -1 0 0
1202 2 60.2173091838195 0.8691619916790003 0 -1 0 0
1208 1 61.722741913415504 0 0.9944417982830007 -1 0 0
1206 2 63.228174643010504 0.8691619916790003 0 -1 0 0
1212 1 64.7336073726065 0 0.9944417982830007 -1 0 0
1210 2 66.2390401022015 0.8691619916790003 0 -1 0 0
1216 1 67.74447283179751 0 0.9944417982830007 -1 0 0
1214 2 69.2499055613925 0.8691619916790003 0 -1 0 0
1220 1 70.7553382909885 0 0.9944417982830007 -1 0 0
1218 2 72.2607710205835 0.8691619916790003 0 -1 0 0
1222 2 75.2716364797745 0.8691619916790003 0 -1 0 0
1224 1 73.7662037501795 0 0.9944417982830007 -1 0 0
1228 1 76.7770692093705 0 0.9944417982830007 -1 0 0
1226 2 78.28250193896551 0.8691619916790003 0 -1 0 0
1232 1 79.7879346685615 0 0.9944417982830007 -1 0 0
1230 2 81.2933673981565 0.8691619916790003 0 -1 0 0
1236 1 82.7988001277525 0 0.9944417982830007 -1 0 0
1234 2 84.3042328573475 0.8691619916790003 0 -1 0 0
1240 1 85.80966558694351 0 0.9944417982830007 -1 0 0
1238 2 87.3150983165385 0.8691619916790003 0 -1 0 0
1244 1 88.8205310461345 0 0.9944417982830007 -1 0 0
1242 2 90.32596377572949 0.8691619916790003 0 -1 0 0
1248 1 91.8313965053255 0 0.9944417982830007 -1 0 0
1246 2 93.3368292349205 0.8691619916790003 0 -1 0 0
1252 1 94.8422619645165 0 0.9944417982830007 -1 0 0
1250 2 96.34769469411151 0.8691619916790003 0 -1 0 0
1254 2 99.3585601533025 0.8691619916790003 0 -1 0 0
1256 1 97.85312742370749 0 0.9944417982830007 -1 0 0
1387 1 4.973799150320701e-13 2.607485975037001 0.9944417982830007 0 0 0
1391 1 3.0108654591915 2.607485975037001 0.9944417982830007 0 0 0
1395 1 6.021730918382495 2.607485975037001 0.9944417982830007 0 0 0
1399 1 9.032596377573498 2.607485975037001 0.9944417982830007 0 0 0
1403 1 12.0434618367645 2.607485975037001 0.9944417982830007 0 0 0
1407 1 15.054327295955495 2.607485975037001 0.9944417982830007 0 0 0
1411 1 18.065192755146505 2.607485975037001 0.9944417982830007 0 0 0
1415 1 21.0760582143375 2.607485975037001 0.9944417982830007 0 0 0
1419 1 24.086923673528496 2.607485975037001 0.9944417982830007 0 0 0
1423 1 27.097789132719505 2.607485975037001 0.9944417982830007 0 0 0
1427 1 30.1086545919105 2.607485975037001 0.9944417982830007 0 0 0
1431 1 33.119520051101496 2.607485975037001 0.9944417982830007 0 0 0
1435 1 36.130385510292506 2.607485975037001 0.9944417982830007 0 0 0
1439 1 39.1412509694835 2.607485975037001 0.9944417982830007 0 0 0
1443 1 42.152116428674496 2.607485975037001 0.9944417982830007 0 0 0
1447 1 45.16298188786549 2.607485975037001 0.9944417982830007 0 0 0
1451 1 48.1738473470565 2.607485975037001 0.9944417982830007 0 0 0
1323 1 51.184712806247504 2.607485975037001 0.9944417982830007 -1 0 0
1327 1 54.1955782654385 2.607485975037001 0.9944417982830007 -1 0 0
1331 1 57.2064437246295 2.607485975037001 0.9944417982830007 -1 0 0
1335 1 60.217309183820504 2.607485975037001 0.9944417982830007 -1 0 0
1339 1 63.2281746430115 2.607485975037001 0.9944417982830007 -1 0 0
1343 1 66.2390401022025 2.607485975037001 0.9944417982830007 -1 0 0
1347 1 69.2499055613935 2.607485975037001 0.9944417982830007 -1 0 0
1351 1 72.2607710205845 2.607485975037001 0.9944417982830007 -1 0 0
1355 1 75.27163647977551 2.607485975037001 0.9944417982830007 -1 0 0
1359 1 78.2825019389665 2.607485975037001 0.9944417982830007 -1 0 0
1363 1 81.2933673981575 2.607485975037001 0.9944417982830007 -1 0 0
1367 1 84.3042328573485 2.607485975037001 0.9944417982830007 -1 0 0
1371 1 87.3150983165395 2.607485975037001 0.9944417982830007 -1 0 0
1375 1 90.3259637757305 2.607485975037001 0.9944417982830007 -1 0 0
1379 1 93.33682923492151 2.607485975037001 0.9944417982830007 -1 0 0
1383 1 96.3476946941125 2.607485975037001 0.9944417982830007 -1 0 0
1389 2 1.5054327295954977 3.4766479667160013 0 0 0 0
1393 2 4.5162981887865 3.4766479667160013 0 0 0 0
1397 2 7.5271636479774955 3.4766479667160013 0 0 0 0
1401 2 10.538029107168498 3.4766479667160013 0 0 0 0
1405 2 13.5488945663595 3.4766479667160013 0 0 0 0
1409 2 16.559760025550496 3.4766479667160013 0 0 0 0
1413 2 19.570625484741505 3.4766479667160013 0 0 0 0
1417 2 22.5814909439325 3.4766479667160013 0 0 0 0
1421 2 25.592356403123496 3.4766479667160013 0 0 0 0
1425 2 28.603221862314506 3.4766479667160013 0 0 0 0
1429 2 31.6140873215055 3.4766479667160013 0 0 0 0
1433 2 34.624952780696496 3.4766479667160013 0 0 0 0
1437 2 37.63581823988749 3.4766479667160013 0 0 0 0
1441 2 40.6466836990785 3.4766479667160013 0 0 0 0
1445 2 43.6575491582695 3.4766479667160013 0 0 0 0
1449 2 46.66841461746049 3.4766479667160013 0 0 0 0
1321 2 49.6792800766515 3.4766479667160013 0 -1 0 0
1325 2 52.690145535842504 3.4766479667160013 0 -1 0 0
1329 2 55.7010109950335 3.4766479667160013 0 -1 0 0
1333 2 58.7118764542245 3.4766479667160013 0 -1 0 0
1337 2 61.722741913415504 3.4766479667160013 0 -1 0 0
1341 2 64.7336073726065 3.4766479667160013 0 -1 0 0
1345 2 67.74447283179751 3.4766479667160013 0 -1 0 0
1349 2 70.7553382909885 3.4766479667160013 0 -1 0 0
1353 2 73.7662037501795 3.4766479667160013 0 -1 0 0
1357 2 76.7770692093705 3.4766479667160013 0 -1 0 0
1361 2 79.7879346685615 3.4766479667160013 0 -1 0 0
1365 2 82.7988001277525 3.4766479667160013 0 -1 0 0
1369 2 85.80966558694351 3.4766479667160013 0 -1 0 0
1373 2 88.8205310461345 3.4766479667160013 0 -1 0 0
1377 2 91.8313965053255 3.4766479667160013 0 -1 0 0
1381 2 94.8422619645165 3.4766479667160013 0 -1 0 0
1385 2 97.85312742370749 3.4766479667160013 0 -1 0 0
1392 1 1.5054327295954977 5.214971950074002 0.9944417982830007 0 0 0
1390 2 3.010865459190498 6.084133941753002 0 0 0 0
1396 1 4.5162981887865 5.214971950074002 0.9944417982830007 0 0 0
1394 2 6.0217309183815 6.084133941753002 0 0 0 0
1400 1 7.5271636479774955 5.214971950074002 0.9944417982830007 0 0 0
1398 2 9.032596377572496 6.084133941753002 0 0 0 0
1404 1 10.538029107168498 5.214971950074002 0.9944417982830007 0 0 0
1402 2 12.043461836763498 6.084133941753002 0 0 0 0
1408 1 13.5488945663595 5.214971950074002 0.9944417982830007 0 0 0
1406 2 15.0543272959545 6.084133941753002 0 0 0 0
1412 1 16.559760025550496 5.214971950074002 0.9944417982830007 0 0 0
1410 2 18.065192755145496 6.084133941753002 0 0 0 0
1416 1 19.570625484741505 5.214971950074002 0.9944417982830007 0 0 0
1414 2 21.076058214336506 6.084133941753002 0 0 0 0
1420 1 22.5814909439325 5.214971950074002 0.9944417982830007 0 0 0
1418 2 24.0869236735275 6.084133941753002 0 0 0 0
1424 1 25.592356403123496 5.214971950074002 0.9944417982830007 0 0 0
1422 2 27.097789132718496 6.084133941753002 0 0 0 0
1428 1 28.603221862314506 5.214971950074002 0.9944417982830007 0 0 0
1426 2 30.10865459190949 6.084133941753002 0 0 0 0
1432 1 31.6140873215055 5.214971950074002 0.9944417982830007 0 0 0
1430 2 33.1195200511005 6.084133941753002 0 0 0 0
1436 1 34.624952780696496 5.214971950074002 0.9944417982830007 0 0 0
1434 2 36.1303855102915 6.084133941753002 0 0 0 0
1440 1 37.63581823988749 5.214971950074002 0.9944417982830007 0 0 0
1438 2 39.14125096948249 6.084133941753002 0 0 0 0
1444 1 40.6466836990785 5.214971950074002 0.9944417982830007 0 0 0
1442 2 42.1521164286735 6.084133941753002 0 0 0 0
1448 1 43.6575491582695 5.214971950074002 0.9944417982830007 0 0 0
1446 2 45.1629818878645 6.084133941753002 0 0 0 0
1452 1 46.66841461746049 5.214971950074002 0.9944417982830007 0 0 0
1450 2 48.17384734705549 6.084133941753002 0 0 0 0
1322 2 51.1847128062465 6.084133941753002 0 -1 0 0
1324 1 49.6792800766515 5.214971950074002 0.9944417982830007 -1 0 0
1328 1 52.690145535842504 5.214971950074002 0.9944417982830007 -1 0 0
1326 2 54.195578265437504 6.084133941753002 0 -1 0 0
1332 1 55.7010109950335 5.214971950074002 0.9944417982830007 -1 0 0
1330 2 57.2064437246285 6.084133941753002 0 -1 0 0
1336 1 58.7118764542245 5.214971950074002 0.9944417982830007 -1 0 0
1334 2 60.2173091838195 6.084133941753002 0 -1 0 0
1340 1 61.722741913415504 5.214971950074002 0.9944417982830007 -1 0 0
1338 2 63.228174643010504 6.084133941753002 0 -1 0 0
1344 1 64.7336073726065 5.214971950074002 0.9944417982830007 -1 0 0
1342 2 66.2390401022015 6.084133941753002 0 -1 0 0
1348 1 67.74447283179751 5.214971950074002 0.9944417982830007 -1 0 0
1346 2 69.2499055613925 6.084133941753002 0 -1 0 0
1352 1 70.7553382909885 5.214971950074002 0.9944417982830007 -1 0 0
1350 2 72.2607710205835 6.084133941753002 0 -1 0 0
1354 2 75.2716364797745 6.084133941753002 0 -1 0 0
1356 1 73.7662037501795 5.214971950074002 0.9944417982830007 -1 0 0
1360 1 76.7770692093705 5.214971950074002 0.9944417982830007 -1 0 0
1358 2 78.28250193896551 6.084133941753002 0 -1 0 0
1364 1 79.7879346685615 5.214971950074002 0.9944417982830007 -1 0 0
1362 2 81.2933673981565 6.084133941753002 0 -1 0 0
1368 1 82.7988001277525 5.214971950074002 0.9944417982830007 -1 0 0
1366 2 84.3042328573475 6.084133941753002 0 -1 0 0
1372 1 85.80966558694351 5.214971950074002 0.9944417982830007 -1 0 0
1370 2 87.3150983165385 6.084133941753002 0 -1 0 0
1376 1 88.8205310461345 5.214971950074002 0.9944417982830007 -1 0 0
1374 2 90.32596377572949 6.084133941753002 0 -1 0 0
1380 1 91.8313965053255 5.214971950074002 0.9944417982830007 -1 0 0
1378 2 93.3368292349205 6.084133941753002 0 -1 0 0
1384 1 94.8422619645165 5.214971950074002 0.9944417982830007 -1 0 0
1382 2 96.34769469411151 6.084133941753002 0 -1 0 0
1386 2 99.3585601533025 6.084133941753002 0 -1 0 0
1388 1 97.85312742370749 5.214971950074002 0.9944417982830007 -1 0 0
1519 1 4.973799150320701e-13 7.822457925111003 0.9944417982830007 0 0 0
1523 1 3.0108654591915 7.822457925111003 0.9944417982830007 0 0 0
1527 1 6.021730918382495 7.822457925111003 0.9944417982830007 0 0 0
1531 1 9.032596377573498 7.822457925111003 0.9944417982830007 0 0 0
1535 1 12.0434618367645 7.822457925111003 0.9944417982830007 0 0 0
1539 1 15.054327295955495 7.822457925111003 0.9944417982830007 0 0 0
1543 1 18.065192755146505 7.822457925111003 0.9944417982830007 0 0 0
1547 1 21.0760582143375 7.822457925111003 0.9944417982830007 0 0 0
1551 1 24.086923673528496 7.822457925111003 0.9944417982830007 0 0 0
1555 1 27.097789132719505 7.822457925111003 0.9944417982830007 0 0 0
1559 1 30.1086545919105 7.822457925111003 0.9944417982830007 0 0 0
1563 1 33.119520051101496 7.822457925111003 0.9944417982830007 0 0 0
1567 1 36.130385510292506 7.822457925111003 0.9944417982830007 0 0 0
1571 1 39.1412509694835 7.822457925111003 0.9944417982830007 0 0 0
1575 1 42.152116428674496 7.822457925111003 0.9944417982830007 0 0 0
1579 1 45.16298188786549 7.822457925111003 0.9944417982830007 0 0 0
1583 1 48.1738473470565 7.822457925111003 0.9944417982830007 0 0 0
1455 1 51.184712806247504 7.822457925111003 0.9944417982830007 -1 0 0
1459 1 54.1955782654385 7.822457925111003 0.9944417982830007 -1 0 0
1463 1 57.2064437246295 7.822457925111003 0.9944417982830007 -1 0 0
1467 1 60.217309183820504 7.822457925111003 0.9944417982830007 -1 0 0
1471 1 63.2281746430115 7.822457925111003 0.9944417982830007 -1 0 0
1475 1 66.2390401022025 7.822457925111003 0.9944417982830007 -1 0 0
1479 1 69.2499055613935 7.822457925111003 0.9944417982830007 -1 0 0
1483 1 72.2607710205845 7.822457925111003 0.9944417982830007 -1 0 0
1487 1 75.27163647977551 7.822457925111003 0.9944417982830007 -1 0 0
1491 1 78.2825019389665 7.822457925111003 0.9944417982830007 -1 0 0
1495 1 81.2933673981575 7.822457925111003 0.9944417982830007 -1 0 0
1499 1 84.3042328573485 7.822457925111003 0.9944417982830007 -1 0 0
1503 1 87.3150983165395 7.822457925111003 0.9944417982830007 -1 0 0
1507 1 90.3259637757305 7.822457925111003 0.9944417982830007 -1 0 0
1511 1 93.33682923492151 7.822457925111003 0.9944417982830007 -1 0 0
1515 1 96.3476946941125 7.822457925111003 0.9944417982830007 -1 0 0
1521 2 1.5054327295954977 8.691619916790003 0 0 0 0
1525 2 4.5162981887865 8.691619916790003 0 0 0 0
1529 2 7.5271636479774955 8.691619916790003 0 0 0 0
1533 2 10.538029107168498 8.691619916790003 0 0 0 0
1537 2 13.5488945663595 8.691619916790003 0 0 0 0
1541 2 16.559760025550496 8.691619916790003 0 0 0 0
1545 2 19.570625484741505 8.691619916790003 0 0 0 0
1549 2 22.5814909439325 8.691619916790003 0 0 0 0
1553 2 25.592356403123496 8.691619916790003 0 0 0 0
1557 2 28.603221862314506 8.691619916790003 0 0 0 0
1561 2 31.6140873215055 8.691619916790003 0 0 0 0
1565 2 34.624952780696496 8.691619916790003 0 0 0 0
1569 2 37.63581823988749 8.691619916790003 0 0 0 0
1573 2 40.6466836990785 8.691619916790003 0 0 0 0
1577 2 43.6575491582695 8.691619916790003 0 0 0 0
1581 2 46.66841461746049 8.691619916790003 0 0 0 0
1453 2 49.6792800766515 8.691619916790003 0 -1 0 0
1457 2 52.690145535842504 8.691619916790003 0 -1 0 0
1461 2 55.7010109950335 8.691619916790003 0 -1 0 0
1465 2 58.7118764542245 8.691619916790003 0 -1 0 0
1469 2 61.722741913415504 8.691619916790003 0 -1 0 0
1473 2 64.7336073726065 8.691619916790003 0 -1 0 0
1477 2 67.74447283179751 8.691619916790003 0 -1 0 0
1481 2 70.7553382909885 8.691619916790003 0 -1 0 0
1485 2 73.7662037501795 8.691619916790003 0 -1 0 0
1489 2 76.7770692093705 8.691619916790003 0 -1 0 0
1493 2 79.7879346685615 8.691619916790003 0 -1 0 0
1497 2 82.7988001277525 8.691619916790003 0 -1 0 0
1501 2 85.80966558694351 8.691619916790003 0 -1 0 0
1505 2 88.8205310461345 8.691619916790003 0 -1 0 0
1509 2 91.8313965053255 8.691619916790003 0 -1 0 0
1513 2 94.8422619645165 8.691619916790003 0 -1 0 0
1517 2 97.85312742370749 8.691619916790003 0 -1 0 0
1524 1 1.5054327295954977 10.429943900148004 0.9944417982830007 0 0 0
1528 1 4.5162981887865 10.429943900148004 0.9944417982830007 0 0 0
1532 1 7.5271636479774955 10.429943900148004 0.9944417982830007 0 0 0
1536 1 10.538029107168498 10.429943900148004 0.9944417982830007 0 0 0
1540 1 13.5488945663595 10.429943900148004 0.9944417982830007 0 0 0
1544 1 16.559760025550496 10.429943900148004 0.9944417982830007 0 0 0
1548 1 19.570625484741505 10.429943900148004 0.9944417982830007 0 0 0
1552 1 22.5814909439325 10.429943900148004 0.9944417982830007 0 0 0
1556 1 25.592356403123496 10.429943900148004 0.9944417982830007 0 0 0
1560 1 28.603221862314506 10.429943900148004 0.9944417982830007 0 0 0
1564 1 31.6140873215055 10.429943900148004 0.9944417982830007 0 0 0
1568 1 34.624952780696496 10.429943900148004 0.9944417982830007 0 0 0
1572 1 37.63581823988749 10.429943900148004 0.9944417982830007 0 0 0
1576 1 40.6466836990785 10.429943900148004 0.9944417982830007 0 0 0
1580 1 43.6575491582695 10.429943900148004 0.9944417982830007 0 0 0
1584 1 46.66841461746049 10.429943900148004 0.9944417982830007 0 0 0
1456 1 49.6792800766515 10.429943900148004 0.9944417982830007 -1 0 0
1460 1 52.690145535842504 10.429943900148004 0.9944417982830007 -1 0 0
1464 1 55.7010109950335 10.429943900148004 0.9944417982830007 -1 0 0
1468 1 58.7118764542245 10.429943900148004 0.9944417982830007 -1 0 0
1472 1 61.722741913415504 10.429943900148004 0.9944417982830007 -1 0 0
1476 1 64.7336073726065 10.429943900148004 0.9944417982830007 -1 0 0
1480 1 67.74447283179751 10.429943900148004 0.9944417982830007 -1 0 0
1484 1 70.7553382909885 10.429943900148004 0.9944417982830007 -1 0 0
1488 1 73.7662037501795 10.429943900148004 0.9944417982830007 -1 0 0
1492 1 76.7770692093705 10.429943900148004 0.9944417982830007 -1 0 0
1496 1 79.7879346685615 10.429943900148004 0.9944417982830007 -1 0 0
1500 1 82.7988001277525 10.429943900148004 0.9944417982830007 -1 0 0
1504 1 85.80966558694351 10.429943900148004 0.9944417982830007 -1 0 0
1508 1 88.8205310461345 10.429943900148004 0.9944417982830007 -1 0 0
1512 1 91.8313965053255 10.429943900148004 0.9944417982830007 -1 0 0
1516 1 94.8422619645165 10.429943900148004 0.9944417982830007 -1 0 0
1520 1 97.85312742370749 10.429943900148004 0.9944417982830007 -1 0 0
1522 2 3.010865459190498 11.299105891827004 0 0 0 0
1526 2 6.0217309183815 11.299105891827004 0 0 0 0
1530 2 9.032596377572496 11.299105891827004 0 0 0 0
1534 2 12.043461836763498 11.299105891827004 0 0 0 0
1538 2 15.0543272959545 11.299105891827004 0 0 0 0
1542 2 18.065192755145496 11.299105891827004 0 0 0 0
1546 2 21.076058214336506 11.299105891827004 0 0 0 0
1550 2 24.0869236735275 11.299105891827004 0 0 0 0
1554 2 27.097789132718496 11.299105891827004 0 0 0 0
1558 2 30.10865459190949 11.299105891827004 0 0 0 0
1562 2 33.1195200511005 11.299105891827004 0 0 0 0
1566 2 36.1303855102915 11.299105891827004 0 0 0 0
1570 2 39.14125096948249 11.299105891827004 0 0 0 0
1574 2 42.1521164286735 11.299105891827004 0 0 0 0
1578 2 45.1629818878645 11.299105891827004 0 0 0 0
1582 2 48.17384734705549 11.299105891827004 0 0 0 0
1454 2 51.1847128062465 11.299105891827004 0 -1 0 0
1458 2 54.195578265437504 11.299105891827004 0 -1 0 0
1462 2 57.2064437246285 11.299105891827004 0 -1 0 0
1466 2 60.2173091838195 11.299105891827004 0 -1 0 0
1470 2 63.228174643010504 11.299105891827004 0 -1 0 0
1474 2 66.2390401022015 11.299105891827004 0 -1 0 0
1478 2 69.2499055613925 11.299105891827004 0 -1 0 0
1482 2 72.2607710205835 11.299105891827004 0 -1 0 0
1486 2 75.2716364797745 11.299105891827004 0 -1 0 0
1490 2 78.28250193896551 11.299105891827004 0 -1 0 0
1494 2 81.2933673981565 11.299105891827004 0 -1 0 0
1498 2 84.3042328573475 11.299105891827004 0 -1 0 0
1502 2 87.3150983165385 11.299105891827004 0 -1 0 0
1506 2 90.32596377572949 11.299105891827004 0 -1 0 0
1510 2 93.3368292349205 11.299105891827004 0 -1 0 0
1514 2 96.34769469411151 11.299105891827004 0 -1 0 0
1518 2 99.3585601533025 11.299105891827004 0 -1 0 0
1653 2 1.5054327295954977 13.906591866863998 0 0 0 0
1651 1 4.973799150320701e-13 13.037429875185005 0.9944417982830007 0 0 0
1655 1 3.0108654591915 13.037429875185005 0.9944417982830007 0 0 0
1657 2 4.5162981887865 13.906591866863998 0 0 0 0
1659 1 6.021730918382495 13.037429875185005 0.9944417982830007 0 0 0
1661 2 7.5271636479774955 13.906591866863998 0 0 0 0
1663 1 9.032596377573498 13.037429875185005 0.9944417982830007 0 0 0
1665 2 10.538029107168498 13.906591866863998 0 0 0 0
1667 1 12.0434618367645 13.037429875185005 0.9944417982830007 0 0 0
1669 2 13.5488945663595 13.906591866863998 0 0 0 0
1671 1 15.054327295955495 13.037429875185005 0.9944417982830007 0 0 0
1673 2 16.559760025550496 13.906591866863998 0 0 0 0
1675 1 18.065192755146505 13.037429875185005 0.9944417982830007 0 0 0
1677 2 19.570625484741505 13.906591866863998 0 0 0 0
1679 1 21.0760582143375 13.037429875185005 0.9944417982830007 0 0 0
1681 2 22.5814909439325 13.906591866863998 0 0 0 0
1685 2 25.592356403123496 13.906591866863998 0 0 0 0
1683 1 24.086923673528496 13.037429875185005 0.9944417982830007 0 0 0
1687 1 27.097789132719505 13.037429875185005 0.9944417982830007 0 0 0
1689 2 28.603221862314506 13.906591866863998 0 0 0 0
1691 1 30.1086545919105 13.037429875185005 0.9944417982830007 0 0 0
1693 2 31.6140873215055 13.906591866863998 0 0 0 0
1695 1 33.119520051101496 13.037429875185005 0.9944417982830007 0 0 0
1697 2 34.624952780696496 13.906591866863998 0 0 0 0
1699 1 36.130385510292506 13.037429875185005 0.9944417982830007 0 0 0
1701 2 37.63581823988749 13.906591866863998 0 0 0 0
1703 1 39.1412509694835 13.037429875185005 0.9944417982830007 0 0 0
1705 2 40.6466836990785 13.906591866863998 0 0 0 0
1707 1 42.152116428674496 13.037429875185005 0.9944417982830007 0 0 0
1709 2 43.6575491582695 13.906591866863998 0 0 0 0
1711 1 45.16298188786549 13.037429875185005 0.9944417982830007 0 0 0
1713 2 46.66841461746049 13.906591866863998 0 0 0 0
1715 1 48.1738473470565 13.037429875185005 0.9944417982830007 0 0 0
1585 2 49.6792800766515 13.906591866863998 0 -1 0 0
1587 1 51.184712806247504 13.037429875185005 0.9944417982830007 -1 0 0
1589 2 52.690145535842504 13.906591866863998 0 -1 0 0
1591 1 54.1955782654385 13.037429875185005 0.9944417982830007 -1 0 0
1593 2 55.7010109950335 13.906591866863998 0 -1 0 0
1595 1 57.2064437246295 13.037429875185005 0.9944417982830007 -1 0 0
1597 2 58.7118764542245 13.906591866863998 0 -1 0 0
1599 1 60.217309183820504 13.037429875185005 0.9944417982830007 -1 0 0
1601 2 61.722741913415504 13.906591866863998 0 -1 0 0
1603 1 63.2281746430115 13.037429875185005 0.9944417982830007 -1 0 0
1605 2 64.7336073726065 13.906591866863998 0 -1 0 0
1607 1 66.2390401022025 13.037429875185005 0.9944417982830007 -1 0 0
1609 2 67.74447283179751 13.906591866863998 0 -1 0 0
1611 1 69.2499055613935 13.037429875185005 0.9944417982830007 -1 0 0
1613 2 70.7553382909885 13.906591866863998 0 -1 0 0
1615 1 72.2607710205845 13.037429875185005 0.9944417982830007 -1 0 0
1617 2 73.7662037501795 13.906591866863998 0 -1 0 0
1619 1 75.27163647977551 13.037429875185005 0.9944417982830007 -1 0 0
1621 2 76.7770692093705 13.906591866863998 0 -1 0 0
1623 1 78.2825019389665 13.037429875185005 0.9944417982830007 -1 0 0
1625 2 79.7879346685615 13.906591866863998 0 -1 0 0
1627 1 81.2933673981575 13.037429875185005 0.9944417982830007 -1 0 0
1629 2 82.7988001277525 13.906591866863998 0 -1 0 0
1631 1 84.3042328573485 13.037429875185005 0.9944417982830007 -1 0 0
1633 2 85.80966558694351 13.906591866863998 0 -1 0 0
1635 1 87.3150983165395 13.037429875185005 0.9944417982830007 -1 0 0
1637 2 88.8205310461345 13.906591866863998 0 -1 0 0
1639 1 90.3259637757305 13.037429875185005 0.9944417982830007 -1 0 0
1641 2 91.8313965053255 13.906591866863998 0 -1 0 0
1643 1 93.33682923492151 13.037429875185005 0.9944417982830007 -1 0 0
1645 2 94.8422619645165 13.906591866863998 0 -1 0 0
1647 1 96.3476946941125 13.037429875185005 0.9944417982830007 -1 0 0
1649 2 97.85312742370749 13.906591866863998 0 -1 0 0
1656 1 1.5054327295954977 15.644915850221999 0.9944417982830007 0 0 0
1660 1 4.5162981887865 15.644915850221999 0.9944417982830007 0 0 0
1664 1 7.5271636479774955 15.644915850221999 0.9944417982830007 0 0 0
1668 1 10.538029107168498 15.644915850221999 0.9944417982830007 0 0 0
1672 1 13.5488945663595 15.644915850221999 0.9944417982830007 0 0 0
1676 1 16.559760025550496 15.644915850221999 0.9944417982830007 0 0 0
1680 1 19.570625484741505 15.644915850221999 0.9944417982830007 0 0 0
1684 1 22.5814909439325 15.644915850221999 0.9944417982830007 0 0 0
1688 1 25.592356403123496 15.644915850221999 0.9944417982830007 0 0 0
1692 1 28.603221862314506 15.644915850221999 0.9944417982830007 0 0 0
1696 1 31.6140873215055 15.644915850221999 0.9944417982830007 0 0 0
1700 1 34.624952780696496 15.644915850221999 0.9944417982830007 0 0 0
1704 1 37.63581823988749 15.644915850221999 0.9944417982830007 0 0 0
1708 1 40.6466836990785 15.644915850221999 0.9944417982830007 0 0 0
1712 1 43.6575491582695 15.644915850221999 0.9944417982830007 0 0 0
1716 1 46.66841461746049 15.644915850221999 0.9944417982830007 0 0 0
1588 1 49.6792800766515 15.644915850221999 0.9944417982830007 -1 0 0
1592 1 52.690145535842504 15.644915850221999 0.9944417982830007 -1 0 0
1596 1 55.7010109950335 15.644915850221999 0.9944417982830007 -1 0 0
1600 1 58.7118764542245 15.644915850221999 0.9944417982830007 -1 0 0
1604 1 61.722741913415504 15.644915850221999 0.9944417982830007 -1 0 0
1608 1 64.7336073726065 15.644915850221999 0.9944417982830007 -1 0 0
1612 1 67.74447283179751 15.644915850221999 0.9944417982830007 -1 0 0
1616 1 70.7553382909885 15.644915850221999 0.9944417982830007 -1 0 0
1620 1 73.7662037501795 15.644915850221999 0.9944417982830007 -1 0 0
1624 1 76.7770692093705 15.644915850221999 0.9944417982830007 -1 0 0
1628 1 79.7879346685615 15.644915850221999 0.9944417982830007 -1 0 0
1632 1 82.7988001277525 15.644915850221999 0.9944417982830007 -1 0 0
1636 1 85.80966558694351 15.644915850221999 0.9944417982830007 -1 0 0
1640 1 88.8205310461345 15.644915850221999 0.9944417982830007 -1 0 0
1644 1 91.8313965053255 15.644915850221999 0.9944417982830007 -1 0 0
1648 1 94.8422619645165 15.644915850221999 0.9944417982830007 -1 0 0
1652 1 97.85312742370749 15.644915850221999 0.9944417982830007 -1 0 0
1654 2 3.010865459190498 16.514077841901006 0 0 0 0
1658 2 6.0217309183815 16.514077841901006 0 0 0 0
1662 2 9.032596377572496 16.514077841901006 0 0 0 0
1666 2 12.043461836763498 16.514077841901006 0 0 0 0
1670 2 15.0543272959545 16.514077841901006 0 0 0 0
1674 2 18.065192755145496 16.514077841901006 0 0 0 0
1678 2 21.076058214336506 16.514077841901006 0 0 0 0
1682 2 24.0869236735275 16.514077841901006 0 0 0 0
1686 2 27.097789132718496 16.514077841901006 0 0 0 0
1690 2 30.10865459190949 16.514077841901006 0 0 0 0
1694 2 33.1195200511005 16.514077841901006 0 0 0 0
1698 2 36.1303855102915 16.514077841901006 0 0 0 0
1702 2 39.14125096948249 16.514077841901006 0 0 0 0
1706 2 42.1521164286735 16.514077841901006 0 0 0 0
1710 2 45.1629818878645 16.514077841901006 0 0 0 0
1714 2 48.17384734705549 16.514077841901006 0 0 0 0
1586 2 51.1847128062465 16.514077841901006 0 -1 0 0
1590 2 54.195578265437504 16.514077841901006 0 -1 0 0
1594 2 57.2064437246285 16.514077841901006 0 -1 0 0
1598 2 60.2173091838195 16.514077841901006 0 -1 0 0
1602 2 63.228174643010504 16.514077841901006 0 -1 0 0
1606 2 66.2390401022015 16.514077841901006 0 -1 0 0
1610 2 69.2499055613925 16.514077841901006 0 -1 0 0
1614 2 72.2607710205835 16.514077841901006 0 -1 0 0
1618 2 75.2716364797745 16.514077841901006 0 -1 0 0
1622 2 78.28250193896551 16.514077841901006 0 -1 0 0
1626 2 81.2933673981565 16.514077841901006 0 -1 0 0
1630 2 84.3042328573475 16.514077841901006 0 -1 0 0
1634 2 87.3150983165385 16.514077841901006 0 -1 0 0
1638 2 90.32596377572949 16.514077841901006 0 -1 0 0
1642 2 93.3368292349205 16.514077841901006 0 -1 0 0
1646 2 96.34769469411151 16.514077841901006 0 -1 0 0
1650 2 99.3585601533025 16.514077841901006 0 -1 0 0
1785 2 1.5054327295954977 19.121563816938 0 0 0 0
1783 1 4.973799150320701e-13 18.252401825259007 0.9944417982830007 0 0 0
1787 1 3.0108654591915 18.252401825259007 0.9944417982830007 0 0 0
1789 2 4.5162981887865 19.121563816938 0 0 0 0
1791 1 6.021730918382495 18.252401825259007 0.9944417982830007 0 0 0
1793 2 7.5271636479774955 19.121563816938 0 0 0 0
1795 1 9.032596377573498 18.252401825259007 0.9944417982830007 0 0 0
1797 2 10.538029107168498 19.121563816938 0 0 0 0
1799 1 12.0434618367645 18.252401825259007 0.9944417982830007 0 0 0
1801 2 13.5488945663595 19.121563816938 0 0 0 0
1803 1 15.054327295955495 18.252401825259007 0.9944417982830007 0 0 0
1805 2 16.559760025550496 19.121563816938 0 0 0 0
1807 1 18.065192755146505 18.252401825259007 0.9944417982830007 0 0 0
1809 2 19.570625484741505 19.121563816938 0 0 0 0
1811 1 21.0760582143375 18.252401825259007 0.9944417982830007 0 0 0
1813 2 22.5814909439325 19.121563816938 0 0 0 0
1817 2 25.592356403123496 19.121563816938 0 0 0 0
1815 1 24.086923673528496 18.252401825259007 0.9944417982830007 0 0 0
1819 1 27.097789132719505 18.252401825259007 0.9944417982830007 0 0 0
1821 2 28.603221862314506 19.121563816938 0 0 0 0
1823 1 30.1086545919105 18.252401825259007 0.9944417982830007 0 0 0
1825 2 31.6140873215055 19.121563816938 0 0 0 0
1827 1 33.119520051101496 18.252401825259007 0.9944417982830007 0 0 0
1829 2 34.624952780696496 19.121563816938 0 0 0 0
1831 1 36.130385510292506 18.252401825259007 0.9944417982830007 0 0 0
1833 2 37.63581823988749 19.121563816938 0 0 0 0
1835 1 39.1412509694835 18.252401825259007 0.9944417982830007 0 0 0
1837 2 40.6466836990785 19.121563816938 0 0 0 0
1839 1 42.152116428674496 18.252401825259007 0.9944417982830007 0 0 0
1841 2 43.6575491582695 19.121563816938 0 0 0 0
1843 1 45.16298188786549 18.252401825259007 0.9944417982830007 0 0 0
1845 2 46.66841461746049 19.121563816938 0 0 0 0
1847 1 48.1738473470565 18.252401825259007 0.9944417982830007 0 0 0
1717 2 49.6792800766515 19.121563816938 0 -1 0 0
1719 1 51.184712806247504 18.252401825259007 0.9944417982830007 -1 0 0
1721 2 52.690145535842504 19.121563816938 0 -1 0 0
1723 1 54.1955782654385 18.252401825259007 0.9944417982830007 -1 0 0
1725 2 55.7010109950335 19.121563816938 0 -1 0 0
1727 1 57.2064437246295 18.252401825259007 0.9944417982830007 -1 0 0
1729 2 58.7118764542245 19.121563816938 0 -1 0 0
1731 1 60.217309183820504 18.252401825259007 0.9944417982830007 -1 0 0