LAMMPS data file via write_data, version 29 Aug 2024, timestep = 2, units = metal

5016 atoms
4 atom types

0 99.358560153303 xlo xhi
0 99.084467051406 ylo yhi
-50 50 zlo zhi

Masses

1 72.63
2 72.63
3 15.999
4 15.999

Atoms # atomic

1260 1 1.5054396978570184 2.666414825861729e-07 0.9903357087584954 0 0 0
1258 3 3.0108706557852094 0.8691631079452327 0.012155685688623626 0 0 0
1264 1 4.5163051570480155 2.666414837714803e-07 0.9903357087584921 0 0 0
1387 1 6.968261767033092e-06 2.6074862416784885 0.9903357087584965 0 0 0
1391 1 3.010872427452766 2.6074862416784903 0.9903357087584955 0 0 0
1389 3 1.5054379261899598 3.4766490829822345 0.012155685688623687 0 0 0
1393 3 4.51630338538096 3.4766490829822354 0.01215568568862309 0 0 0
1392 1 1.5054396978570184 5.2149722167154895 0.9903357087584986 0 0 0
1396 1 4.516305157048016 5.21497221671549 0.9903357087584954 0 0 0
1254 3 5.196594202061533e-06 0.8691631079452353 0.012155685688622991 0 0 0
1262 3 6.021736114976209 0.8691631079452334 0.012155685688622781 0 0 0
1268 1 7.527170616239015 2.6664148407629633e-07 0.9903357087584933 0 0 0
1266 3 9.032601574167208 0.8691631079452327 0.012155685688623779 0 0 0
1272 1 10.538036075430016 2.6664148387238516e-07 0.9903357087584932 0 0 0
1395 1 6.021737886643766 2.6074862416784894 0.9903357087584966 0 0 0
1399 1 9.032603345834765 2.60748624167849 0.9903357087584957 0 0 0
1397 3 7.527168844571959 3.476649082982235 0.01215568568862373 0 0 0
1401 3 10.53803430376296 3.476649082982235 0.012155685688624247 0 0 0
1400 1 7.527170616239015 5.214972216715491 0.9903357087584964 0 0 0
1404 1 10.538036075430016 5.21497221671549 0.9903357087584963 0 0 0
1270 3 12.04346703335821 0.8691631079452329 0.012155685688623841 0 0 0
1276 1 13.548901534621015 2.6664148377427254e-07 0.9903357087584922 0 0 0
1274 3 15.054332492549209 0.8691631079452335 0.012155685688622707 0 0 0
1280 1 16.559766993812016 2.666414847332532e-07 0.9903357087584937 0 0 0
1403 1 12.043468805025768 2.6074862416784903 0.9903357087584957 0 0 0
1407 1 15.054334264216767 2.607486241678489 0.9903357087584973 0 0 0
1405 3 13.54889976295396 3.476649082982235 0.01215568568862362 0 0 0
1409 3 16.559765222144964 3.476649082982234 0.012155685688625413 0 0 0
1408 1 13.548901534621015 5.21497221671549 0.9903357087584955 0 0 0
1412 1 16.559766993812016 5.214972216715491 0.9903357087584965 0 0 0
1278 3 18.06519795174021 0.8691631079452323 0.012155685688624709 0 0 0
1284 1 19.570632453003018 2.6664148439755755e-07 0.990335708758491 0 0 0
1282 3 21.076063410931212 0.8691631079452341 0.012155685688623281 0 0 0
1288 1 22.58149791219402 2.6664149353327937e-07 0.9903357087584987 0 0 0
1411 1 18.065199723407765 2.6074862416784907 0.9903357087584947 0 0 0
1415 1 21.076065182598768 2.60748624167849 0.9903357087584967 0 0 0
1413 3 19.570630681335967 3.476649082982235 0.012155685688622499 0 0 0
1417 3 22.581496140526962 3.4766490829822354 0.012155685688623082 0 0 0
1416 1 19.570632453003018 5.214972216715491 0.9903357087584941 0 0 0
1420 1 22.58149791219402 5.21497221671549 0.9903357087584964 0 0 0
1286 3 24.08692887012221 0.8691631079452338 0.012155685688623203 0 0 0
1292 1 25.592363371385016 2.6664148446839084e-07 0.9903357087584942 0 0 0
1290 3 27.09779432931321 0.869163107945233 0.012155685688625056 0 0 0
1296 1 28.60322883057602 2.6664149335789755e-07 0.9903357087584987 0 0 0
1419 1 24.086930641789767 2.6074862416784894 0.9903357087584964 0 0 0
1423 1 27.097796100980766 2.6074862416784903 0.9903357087584944 0 0 0
1421 3 25.592361599717965 3.4766490829822345 0.012155685688625385 0 0 0
1425 3 28.603227058908963 3.476649082982236 0.012155685688621926 0 0 0
1424 1 25.592363371385016 5.214972216715491 0.990335708758497 0 0 0
1428 1 28.60322883057602 5.21497221671549 0.9903357087584966 0 0 0
1294 3 30.10865978850421 0.8691631079452341 0.01215568568862327 0 0 0
1300 1 31.614094289767017 2.666414844432028e-07 0.990335708758491 0 0 0
1298 3 33.11952524769521 0.8691631079452333 0.012155685688622873 0 0 0
1304 1 34.62495974895801 2.6664148433772675e-07 0.9903357087584941 0 0 0
1427 1 30.108661560171768 2.60748624167849 0.9903357087584966 0 0 0
1431 1 33.119527019362764 2.60748624167849 0.9903357087584967 0 0 0
1429 3 31.614092518099962 3.476649082982234 0.01215568568862371 0 0 0
1433 3 34.62495797729096 3.4766490829822345 0.012155685688625108 0 0 0
1432 1 31.614094289767017 5.214972216715492 0.9903357087584942 0 0 0
1436 1 34.62495974895801 5.214972216715491 0.990335708758497 0 0 0
1302 3 36.13039070688621 0.8691631079452334 0.012155685688623186 0 0 0
1308 1 37.635825208149015 2.6664149228308833e-07 0.9903357087585001 0 0 0
1306 3 39.14125616607721 0.8691631079452323 0.012155685688626372 0 0 0
1312 1 40.64669066734001 2.6664148541303004e-07 0.9903357087584899 0 0 0
1435 1 36.130392478553766 2.6074862416784903 0.9903357087584952 0 0 0
1439 1 39.14125793774477 2.607486241678491 0.9903357087584949 0 0 0
1437 3 37.63582343648196 3.4766490829822363 0.012155685688621768 0 0 0
1441 3 40.64668889567296 3.4766490829822336 0.012155685688623715 0 0 0
1440 1 37.635825208149015 5.2149722167154895 0.9903357087584977 0 0 0
1444 1 40.64669066734001 5.214972216715492 0.9903357087584931 0 0 0
1310 3 42.15212162526821 0.869163107945235 0.012155685688621968 0 0 0
1316 1 43.65755612653101 2.6664149364586593e-07 0.9903357087584986 0 0 0
1314 3 45.1629870844592 0.8691631079452339 0.012155685688623474 0 0 0
1320 1 46.66842158572201 2.6664148330502984e-07 0.9903357087584954 0 0 0
1443 1 42.15212339693577 2.6074862416784894 0.9903357087584967 0 0 0
1447 1 45.162988856126766 2.6074862416784885 0.9903357087584975 0 0 0
1445 3 43.65755435486396 3.4766490829822354 0.01215568568862331 0 0 0
1449 3 46.66841981405496 3.4766490829822354 0.012155685688624334 0 0 0
1448 1 43.65755612653101 5.21497221671549 0.9903357087584963 0 0 0
1452 1 46.66842158572201 5.2149722167154895 0.9903357087584983 0 0 0
1318 3 48.17385254365021 0.8691631079452314 0.012155685688625928 0 0 0
1190 3 51.184718002841215 0.8691631079452333 0.012155685688623083 -1 0 0
1192 1 49.67928704491301 2.6664148537811296e-07 0.9903357087584911 -1 0 0
1451 1 48.17385431531777 2.607486241678491 0.9903357087584942 0 0 0
1323 1 51.18471977450877 2.6074862416784903 0.9903357087584952 -1 0 0
1321 3 49.67928527324596 3.476649082982233 0.012155685688625361 -1 0 0
1324 1 49.67928704491301 5.214972216715492 0.9903357087584941 -1 0 0
1196 1 52.69015250410402 2.666414840390354e-07 0.9903357087584913 -1 0 0
1194 3 54.19558346203221 0.8691631079452339 0.012155685688622297 -1 0 0
1200 1 55.701017963295016 2.666414837017391e-07 0.9903357087584943 -1 0 0
1198 3 57.20644892122321 0.8691631079452322 0.012155685688624459 -1 0 0
1327 1 54.195585233699774 2.607486241678489 0.9903357087584972 -1 0 0
1331 1 57.20645069289077 2.60748624167849 0.9903357087584959 -1 0 0
1325 3 52.69015073243696 3.476649082982236 0.012155685688622398 -1 0 0
1329 3 55.701016191627964 3.4766490829822345 0.01215568568862481 -1 0 0
1328 1 52.69015250410402 5.214972216715491 0.9903357087584946 -1 0 0
1332 1 55.701017963295016 5.21497221671549 0.9903357087584974 -1 0 0
1204 1 58.71188342248602 2.666414842209148e-07 0.9903357087584925 -1 0 0
1202 3 60.217314380414216 0.8691631079452329 0.012155685688623661 -1 0 0
1208 1 61.72274888167702 2.666414837667934e-07 0.9903357087584916 -1 0 0
1206 3 63.22817983960522 0.8691631079452337 0.012155685688625002 -1 0 0
1335 1 60.21731615208177 2.6074862416784907 0.990335708758495 -1 0 0
1339 1 63.22818161127277 2.6074862416784885 0.9903357087584993 -1 0 0
1333 3 58.71188165081897 3.476649082982235 0.012155685688624164 -1 0 0
1337 3 61.72274711000996 3.4766490829822354 0.012155685688622686 -1 0 0
1336 1 58.71188342248602 5.214972216715491 0.9903357087584957 -1 0 0
1340 1 61.72274888167702 5.21497221671549 0.990335708758495 -1 0 0
1212 1 64.73361434086802 2.666414944858548e-07 0.9903357087584976 -1 0 0
1210 3 66.23904529879621 0.8691631079452342 0.012155685688622568 -1 0 0
1216 1 67.74447980005903 2.666414832920681e-07 0.9903357087584946 -1 0 0
1214 3 69.24991075798721 0.869163107945234 0.012155685688622166 -1 0 0
1343 1 66.23904707046377 2.6074862416784907 0.9903357087584927 -1 0 0
1347 1 69.24991252965476 2.607486241678489 0.9903357087584973 -1 0 0
1341 3 64.73361256920097 3.476649082982234 0.012155685688624322 -1 0 0
1345 3 67.74447802839197 3.476649082982237 0.012155685688621867 -1 0 0
1344 1 64.73361434086802 5.214972216715492 0.9903357087584954 -1 0 0
1348 1 67.74447980005903 5.2149722167154895 0.9903357087584975 -1 0 0
1220 1 70.75534525925002 2.666414829354009e-07 0.990335708758493 -1 0 0
1218 3 72.2607762171782 0.8691631079452335 0.012155685688621048 -1 0 0
1222 3 75.2716416763692 0.8691631079452312 0.012155685688626575 -1 0 0
1224 1 73.76621071844103 2.6664148761939e-07 0.9903357087584898 -1 0 0
1351 1 72.26077798884577 2.6074862416784916 0.9903357087584931 -1 0 0
1355 1 75.27164344803677 2.6074862416784894 0.9903357087584984 -1 0 0
1349 3 70.75534348758296 3.476649082982236 0.01215568568862246 -1 0 0
1353 3 73.76620894677396 3.4766490829822323 0.012155685688626891 -1 0 0
1352 1 70.75534525925002 5.21497221671549 0.9903357087584962 -1 0 0
1356 1 73.76621071844103 5.214972216715494 0.9903357087584929 -1 0 0
1228 1 76.77707617763203 2.6664148188315714e-07 0.9903357087584944 -1 0 0
1226 3 78.28250713556021 0.8691631079452353 0.01215568568862241 -1 0 0
1232 1 79.78794163682302 2.666414923157969e-07 0.9903357087585 -1 0 0
1230 3 81.29337259475122 0.8691631079452319 0.012155685688628026 -1 0 0
1359 1 78.28250890722776 2.607486241678489 0.9903357087584965 -1 0 0
1363 1 81.29337436641876 2.6074862416784903 0.9903357087584973 -1 0 0
1357 3 76.77707440596497 3.4766490829822363 0.012155685688622023 -1 0 0
1361 3 79.78793986515596 3.476649082982236 0.012155685688622467 -1 0 0
1360 1 76.77707617763203 5.214972216715489 0.9903357087584977 -1 0 0
1364 1 79.78794163682302 5.2149722167154895 0.9903357087584979 -1 0 0
1236 1 82.79880709601402 2.666414962859428e-07 0.9903357087584957 -1 0 0
1234 3 84.30423805394221 0.8691631079452344 0.012155685688622294 -1 0 0
1240 1 85.80967255520503 2.666414833452198e-07 0.9903357087584946 -1 0 0
1238 3 87.31510351313321 0.8691631079452338 0.012155685688623503 -1 0 0
1367 1 84.30423982560977 2.6074862416784907 0.990335708758493 -1 0 0
1371 1 87.31510528480077 2.607486241678489 0.9903357087584974 -1 0 0
1365 3 82.79880532434697 3.4766490829822323 0.012155685688626202 -1 0 0
1369 3 85.80967078353797 3.476649082982237 0.012155685688621846 -1 0 0
1368 1 82.79880709601402 5.214972216715494 0.9903357087584935 -1 0 0
1372 1 85.80967255520503 5.2149722167154895 0.9903357087584975 -1 0 0
1244 1 88.82053801439602 2.66641493735319e-07 0.9903357087584985 -1 0 0
1242 3 90.3259689723242 0.8691631079452335 0.012155685688622016 -1 0 0
1248 1 91.83140347358702 2.666414837733121e-07 0.9903357087584944 -1 0 0
1246 3 93.33683443151521 0.869163107945232 0.012155685688625557 -1 0 0
1375 1 90.32597074399177 2.6074862416784916 0.9903357087584931 -1 0 0
1379 1 93.33683620318277 2.6074862416784894 0.9903357087584984 -1 0 0
1373 3 88.82053624272896 3.476649082982236 0.012155685688622742 -1 0 0
1377 3 91.83140170191996 3.476649082982234 0.012155685688627427 -1 0 0
1376 1 88.82053801439602 5.21497221671549 0.9903357087584963 -1 0 0
1380 1 91.83140347358702 5.21497221671549 0.9903357087584974 -1 0 0
1252 1 94.84226893277801 2.666414856457532e-07 0.9903357087584886 -1 0 0
1250 3 96.34769989070621 0.869163107945235 0.012155685688621982 -1 0 0
1256 1 97.85313439196902 2.666414929686804e-07 0.9903357087584995 -1 0 0
1383 1 96.34770166237377 2.60748624167849 0.9903357087584963 -1 0 0
1381 3 94.84226716111097 3.4766490829822345 0.012155685688622502 -1 0 0
1385 3 97.85313262030196 3.4766490829822363 0.012155685688622303 -1 0 0
1384 1 94.84226893277801 5.214972216715493 0.990335708758492 -1 0 0
1388 1 97.85313439196902 5.21497221671549 0.9903357087584973 -1 0 0
1390 3 3.010870655785209 6.084135058019236 0.012155685688623808 0 0 0
1519 1 6.968261767195039e-06 7.8224581917524905 0.9903357087584965 0 0 0
1523 1 3.010872427452766 7.822458191752492 0.9903357087584953 0 0 0
1521 3 1.5054379261899598 8.691621033056236 0.012155685688623576 0 0 0
1525 3 4.51630338538096 8.691621033056236 0.01215568568862272 0 0 0
1524 1 1.5054396978570181 10.429944166789491 0.9903357087584991 0 0 0
1528 1 4.516305157048016 10.429944166789493 0.9903357087584957 0 0 0
1522 3 3.0108706557852094 11.299107008093236 0.012155685688623782 0 0 0
1386 3 5.196594202061533e-06 6.084135058019238 0.012155685688622913 0 0 0
1518 3 5.196594202061533e-06 11.29910700809324 0.012155685688623033 0 0 0
1394 3 6.021736114976209 6.084135058019236 0.012155685688622967 0 0 0
1398 3 9.032601574167208 6.084135058019236 0.012155685688624077 0 0 0
1527 1 6.021737886643766 7.822458191752492 0.9903357087584963 0 0 0
1531 1 9.032603345834765 7.822458191752492 0.9903357087584953 0 0 0
1529 3 7.527168844571958 8.691621033056236 0.01215568568862379 0 0 0
1533 3 10.53803430376296 8.691621033056236 0.012155685688623826 0 0 0
1532 1 7.527170616239015 10.429944166789493 0.990335708758497 0 0 0
1536 1 10.538036075430016 10.429944166789493 0.990335708758497 0 0 0
1526 3 6.021736114976209 11.299107008093237 0.012155685688623106 0 0 0
1530 3 9.032601574167208 11.299107008093236 0.012155685688623942 0 0 0
1402 3 12.04346703335821 6.084135058019236 0.01215568568862406 0 0 0
1406 3 15.054332492549209 6.084135058019236 0.012155685688622946 0 0 0
1535 1 12.043468805025766 7.822458191752492 0.9903357087584954 0 0 0
1539 1 15.054334264216765 7.822458191752491 0.9903357087584973 0 0 0
1537 3 13.54889976295396 8.691621033056236 0.012155685688623243 0 0 0
1541 3 16.559765222144964 8.691621033056236 0.012155685688625524 0 0 0
1540 1 13.548901534621015 10.429944166789493 0.9903357087584959 0 0 0
1544 1 16.559766993812016 10.429944166789493 0.9903357087584963 0 0 0
1534 3 12.04346703335821 11.299107008093236 0.012155685688624093 0 0 0
1538 3 15.054332492549209 11.299107008093237 0.012155685688623168 0 0 0
1410 3 18.06519795174021 6.084135058019235 0.012155685688624764 0 0 0
1414 3 21.076063410931212 6.084135058019236 0.01215568568862329 0 0 0
1543 1 18.065199723407765 7.822458191752493 0.9903357087584946 0 0 0
1547 1 21.076065182598768 7.822458191752492 0.9903357087584966 0 0 0
1545 3 19.570630681335967 8.691621033056236 0.012155685688622967 0 0 0
1549 3 22.581496140526962 8.691621033056236 0.012155685688623054 0 0 0
1548 1 19.570632453003018 10.429944166789493 0.9903357087584943 0 0 0
1552 1 22.58149791219402 10.429944166789493 0.9903357087584967 0 0 0
1542 3 18.06519795174021 11.299107008093236 0.012155685688625212 0 0 0
1546 3 21.076063410931212 11.299107008093237 0.012155685688623154 0 0 0
1418 3 24.08692887012221 6.084135058019236 0.012155685688623054 0 0 0
1422 3 27.09779432931321 6.084135058019235 0.01215568568862473 0 0 0
1551 1 24.086930641789767 7.822458191752491 0.9903357087584965 0 0 0
1555 1 27.097796100980766 7.822458191752492 0.9903357087584944 0 0 0
1553 3 25.592361599717965 8.691621033056236 0.0121556856886255 0 0 0
1557 3 28.603227058908963 8.691621033056238 0.012155685688622006 0 0 0
1556 1 25.592363371385016 10.429944166789493 0.9903357087584969 0 0 0
1560 1 28.60322883057602 10.429944166789491 0.9903357087584966 0 0 0
1550 3 24.08692887012221 11.299107008093236 0.012155685688623194 0 0 0
1554 3 27.09779432931321 11.299107008093236 0.012155685688625241 0 0 0
1426 3 30.10865978850421 6.084135058019236 0.01215568568862319 0 0 0
1430 3 33.11952524769521 6.0841350580192355 0.012155685688623349 0 0 0
1559 1 30.108661560171768 7.822458191752492 0.9903357087584965 0 0 0
1563 1 33.119527019362764 7.822458191752491 0.9903357087584966 0 0 0
1561 3 31.614092518099962 8.691621033056236 0.012155685688624088 0 0 0
1565 3 34.62495797729096 8.691621033056236 0.012155685688625215 0 0 0
1564 1 31.614094289767017 10.429944166789493 0.9903357087584944 0 0 0
1568 1 34.62495974895801 10.429944166789491 0.9903357087584969 0 0 0
1558 3 30.10865978850421 11.299107008093237 0.012155685688623134 0 0 0
1562 3 33.11952524769521 11.299107008093237 0.012155685688623382 0 0 0
1434 3 36.13039070688621 6.0841350580192355 0.012155685688623147 0 0 0
1438 3 39.14125616607721 6.084135058019235 0.01215568568862643 0 0 0
1567 1 36.130392478553766 7.822458191752492 0.9903357087584953 0 0 0
1571 1 39.14125793774477 7.822458191752493 0.9903357087584947 0 0 0
1569 3 37.63582343648196 8.691621033056238 0.012155685688621659 0 0 0
1573 3 40.64668889567296 8.691621033056236 0.012155685688624001 0 0 0
1572 1 37.635825208149015 10.429944166789491 0.9903357087584979 0 0 0
1576 1 40.64669066734001 10.429944166789493 0.9903357087584932 0 0 0
1566 3 36.13039070688621 11.299107008093236 0.012155685688623108 0 0 0
1570 3 39.14125616607721 11.299107008093236 0.012155685688626471 0 0 0
1442 3 42.15212162526821 6.084135058019237 0.012155685688621968 0 0 0
1446 3 45.1629870844592 6.084135058019236 0.01215568568862332 0 0 0
1575 1 42.15212339693577 7.822458191752491 0.9903357087584966 0 0 0
1579 1 45.162988856126766 7.8224581917524905 0.9903357087584976 0 0 0
1577 3 43.65755435486396 8.691621033056236 0.012155685688623161 0 0 0
1581 3 46.66841981405496 8.691621033056238 0.012155685688624424 0 0 0
1580 1 43.65755612653101 10.429944166789493 0.9903357087584965 0 0 0
1584 1 46.66842158572201 10.429944166789491 0.9903357087584981 0 0 0
1574 3 42.15212162526821 11.299107008093237 0.01215568568862183 0 0 0
1578 3 45.1629870844592 11.299107008093237 0.012155685688623467 0 0 0
1450 3 48.17385254365021 6.084135058019234 0.012155685688626069 0 0 0
1322 3 51.184718002841215 6.084135058019236 0.012155685688623474 -1 0 0
1583 1 48.17385431531777 7.822458191752492 0.9903357087584944 0 0 0
1455 1 51.18471977450877 7.822458191752492 0.9903357087584952 -1 0 0
1453 3 49.67928527324596 8.691621033056236 0.012155685688625672 -1 0 0
1456 1 49.67928704491301 10.429944166789493 0.9903357087584942 -1 0 0
1582 3 48.17385254365021 11.299107008093236 0.012155685688626277 0 0 0
1454 3 51.184718002841215 11.299107008093237 0.012155685688622901 -1 0 0
1326 3 54.19558346203221 6.084135058019237 0.012155685688622492 -1 0 0
1330 3 57.20644892122321 6.0841350580192355 0.012155685688624707 -1 0 0
1459 1 54.195585233699774 7.822458191752491 0.9903357087584969 -1 0 0
1463 1 57.20645069289077 7.822458191752492 0.9903357087584954 -1 0 0
1457 3 52.69015073243696 8.691621033056236 0.012155685688621989 -1 0 0
1461 3 55.701016191627964 8.691621033056236 0.012155685688624886 -1 0 0
1460 1 52.69015250410402 10.429944166789493 0.9903357087584951 -1 0 0
1464 1 55.701017963295016 10.429944166789493 0.990335708758498 -1 0 0
1458 3 54.19558346203221 11.299107008093237 0.012155685688622646 -1 0 0
1462 3 57.20644892122321 11.299107008093236 0.01215568568862456 -1 0 0
1334 3 60.217314380414216 6.084135058019236 0.012155685688623873 -1 0 0
1338 3 63.22817983960522 6.084135058019236 0.01215568568862492 -1 0 0
1467 1 60.21731615208177 7.822458191752493 0.9903357087584946 -1 0 0
1471 1 63.22818161127277 7.8224581917524905 0.9903357087584992 -1 0 0
1465 3 58.71188165081897 8.691621033056236 0.012155685688623706 -1 0 0
1469 3 61.72274711000996 8.691621033056236 0.012155685688622294 -1 0 0
1468 1 58.71188342248602 10.429944166789493 0.9903357087584965 -1 0 0
1472 1 61.72274888167702 10.429944166789493 0.9903357087584953 -1 0 0
1466 3 60.217314380414216 11.299107008093236 0.012155685688623893 -1 0 0
1470 3 63.22817983960522 11.299107008093236 0.012155685688625024 -1 0 0
1342 3 66.23904529879621 6.084135058019236 0.012155685688622204 -1 0 0
1346 3 69.24991075798721 6.084135058019236 0.012155685688622525 -1 0 0
1475 1 66.23904707046377 7.822458191752493 0.9903357087584929 -1 0 0
1479 1 69.24991252965476 7.822458191752491 0.9903357087584974 -1 0 0
1473 3 64.73361256920097 8.691621033056236 0.012155685688624419 -1 0 0
1477 3 67.74447802839197 8.691621033056238 0.012155685688621978 -1 0 0
1476 1 64.73361434086802 10.429944166789493 0.9903357087584955 -1 0 0
1480 1 67.74447980005903 10.429944166789491 0.9903357087584975 -1 0 0
1474 3 66.23904529879621 11.299107008093237 0.012155685688622712 -1 0 0
1478 3 69.24991075798721 11.299107008093237 0.01215568568862245 -1 0 0
1350 3 72.2607762171782 6.084135058019236 0.012155685688621513 -1 0 0
1354 3 75.2716416763692 6.084135058019234 0.012155685688626662 -1 0 0
1483 1 72.26077798884577 7.822458191752494 0.9903357087584931 -1 0 0
1487 1 75.27164344803677 7.822458191752491 0.9903357087584985 -1 0 0
1481 3 70.75534348758296 8.691621033056238 0.012155685688622696 -1 0 0
1485 3 73.76620894677396 8.691621033056235 0.012155685688627002 -1 0 0
1484 1 70.75534525925002 10.429944166789491 0.9903357087584963 -1 0 0
1488 1 73.76621071844103 10.429944166789495 0.9903357087584926 -1 0 0
1482 3 72.2607762171782 11.299107008093237 0.01215568568862153 -1 0 0
1486 3 75.2716416763692 11.299107008093236 0.012155685688626714 -1 0 0
1358 3 78.28250713556021 6.084135058019238 0.012155685688622322 -1 0 0
1362 3 81.29337259475122 6.084135058019234 0.012155685688627526 -1 0 0
1491 1 78.28250890722776 7.8224581917524905 0.9903357087584964 -1 0 0
1495 1 81.29337436641876 7.822458191752492 0.9903357087584975 -1 0 0
1489 3 76.77707440596497 8.691621033056238 0.01215568568862221 -1 0 0
1493 3 79.78793986515596 8.691621033056238 0.012155685688622351 -1 0 0
1492 1 76.77707617763203 10.42994416678949 0.9903357087584979 -1 0 0
1496 1 79.78794163682302 10.429944166789491 0.9903357087584981 -1 0 0
1490 3 78.28250713556021 11.29910700809324 0.012155685688622382 -1 0 0
1494 3 81.29337259475122 11.299107008093234 0.012155685688627613 -1 0 0
1366 3 84.30423805394221 6.084135058019236 0.012155685688621937 -1 0 0
1370 3 87.31510351313321 6.084135058019236 0.012155685688623333 -1 0 0
1499 1 84.30423982560977 7.822458191752492 0.9903357087584931 -1 0 0
1503 1 87.31510528480077 7.8224581917524905 0.9903357087584974 -1 0 0
1497 3 82.79880532434697 8.691621033056235 0.012155685688626298 -1 0 0
1501 3 85.80967078353797 8.691621033056238 0.012155685688621963 -1 0 0
1500 1 82.79880709601402 10.429944166789495 0.9903357087584936 -1 0 0
1504 1 85.80967255520503 10.429944166789491 0.9903357087584974 -1 0 0
1498 3 84.30423805394221 11.299107008093237 0.012155685688622441 -1 0 0
1502 3 87.31510351313321 11.299107008093237 0.012155685688623474 -1 0 0
1374 3 90.3259689723242 6.084135058019236 0.012155685688621699 -1 0 0
1378 3 93.33683443151521 6.084135058019235 0.0121556856886257 -1 0 0
1507 1 90.32597074399177 7.822458191752494 0.990335708758493 -1 0 0
1511 1 93.33683620318277 7.822458191752491 0.9903357087584984 -1 0 0
1505 3 88.82053624272896 8.691621033056238 0.012155685688622696 -1 0 0
1509 3 91.83140170191996 8.691621033056236 0.01215568568862744 -1 0 0
1508 1 88.82053801439602 10.429944166789493 0.9903357087584965 -1 0 0
1512 1 91.83140347358702 10.429944166789491 0.9903357087584975 -1 0 0
1506 3 90.3259689723242 11.299107008093237 0.01215568568862184 -1 0 0
1510 3 93.33683443151521 11.299107008093236 0.01215568568862561 -1 0 0
1382 3 96.34769989070621 6.084135058019237 0.012155685688621996 -1 0 0
1515 1 96.34770166237377 7.822458191752492 0.9903357087584963 -1 0 0
1513 3 94.84226716111097 8.691621033056236 0.01215568568862275 -1 0 0
1517 3 97.85313262030196 8.691621033056238 0.012155685688622193 -1 0 0
1516 1 94.84226893277801 10.429944166789495 0.9903357087584922 -1 0 0
1520 1 97.85313439196902 10.429944166789491 0.9903357087584973 -1 0 0
1514 3 96.34769989070621 11.299107008093237 0.01215568568862192 -1 0 0
1653 3 1.5054379261899602 13.906592983130235 0.012155685688622665 0 0 0
1651 1 6.968261767197431e-06 13.03743014182649 0.9903357087584974 0 0 0
1655 1 3.010872427452766 13.037430141826492 0.9903357087584959 0 0 0
1657 3 4.51630338538096 13.906592983130235 0.012155685688621708 0 0 0
1656 1 1.505439697857019 15.64491611686349 0.9903357087584977 0 0 0
1660 1 4.5163051570480155 15.644916116863492 0.9903357087584946 0 0 0
1654 3 3.0108706557852094 16.514078958167236 0.012155685688624764 0 0 0
1650 3 5.196594202061533e-06 16.514078958167236 0.012155685688623286 0 0 0
1659 1 6.021737886643766 13.03743014182649 0.9903357087584974 0 0 0
1661 3 7.527168844571959 13.906592983130235 0.01215568568862295 0 0 0
1663 1 9.032603345834765 13.037430141826492 0.9903357087584959 0 0 0
1665 3 10.53803430376296 13.906592983130235 0.012155685688622919 0 0 0
1664 1 7.527170616239015 15.644916116863493 0.9903357087584953 0 0 0
1668 1 10.538036075430014 15.644916116863493 0.9903357087584952 0 0 0
1658 3 6.021736114976209 16.514078958167236 0.012155685688624216 0 0 0
1662 3 9.032601574167208 16.514078958167236 0.012155685688625031 0 0 0
1667 1 12.043468805025766 13.037430141826492 0.9903357087584961 0 0 0
1669 3 13.54889976295396 13.906592983130235 0.012155685688622107 0 0 0
1671 1 15.054334264216765 13.03743014182649 0.9903357087584983 0 0 0
1673 3 16.55976522214496 13.906592983130235 0.012155685688624393 0 0 0
1672 1 13.548901534621015 15.644916116863492 0.9903357087584944 0 0 0
1676 1 16.559766993812016 15.644916116863492 0.9903357087584956 0 0 0
1666 3 12.04346703335821 16.514078958167236 0.012155685688624936 0 0 0
1670 3 15.054332492549209 16.514078958167236 0.012155685688624008 0 0 0
1675 1 18.065199723407765 13.037430141826492 0.9903357087584955 0 0 0
1677 3 19.570630681335967 13.906592983130237 0.012155685688621888 0 0 0
1679 1 21.076065182598768 13.037430141826492 0.9903357087584976 0 0 0
1681 3 22.581496140526962 13.906592983130237 0.012155685688621947 0 0 0
1680 1 19.57063245300302 15.644916116863492 0.9903357087584935 0 0 0
1684 1 22.58149791219402 15.644916116863492 0.9903357087584956 0 0 0
1674 3 18.06519795174021 16.514078958167236 0.012155685688625295 0 0 0
1678 3 21.076063410931212 16.514078958167236 0.01215568568862413 0 0 0
1685 3 25.59236159971796 13.906592983130235 0.01215568568862436 0 0 0
1683 1 24.086930641789767 13.03743014182649 0.9903357087584975 0 0 0
1687 1 27.097796100980766 13.03743014182649 0.9903357087584953 0 0 0
1689 3 28.603227058908963 13.906592983130237 0.012155685688620865 0 0 0
1688 1 25.592363371385016 15.64491611686349 0.9903357087584961 0 0 0
1692 1 28.60322883057602 15.64491611686349 0.9903357087584957 0 0 0
1682 3 24.08692887012221 16.514078958167236 0.012155685688623987 0 0 0
1686 3 27.09779432931321 16.514078958167236 0.01215568568862529 0 0 0
1691 1 30.108661560171768 13.037430141826492 0.9903357087584975 0 0 0
1693 3 31.614092518099962 13.906592983130235 0.012155685688622957 0 0 0
1695 1 33.119527019362764 13.03743014182649 0.9903357087584976 0 0 0
1697 3 34.62495797729096 13.906592983130237 0.01215568568862416 0 0 0
1696 1 31.614094289767017 15.644916116863492 0.9903357087584934 0 0 0
1700 1 34.62495974895801 15.644916116863492 0.9903357087584959 0 0 0
1690 3 30.10865978850421 16.514078958167236 0.012155685688624043 0 0 0
1694 3 33.11952524769521 16.514078958167236 0.012155685688624006 0 0 0
1699 1 36.130392478553766 13.037430141826492 0.9903357087584964 0 0 0
1701 3 37.63582343648196 13.906592983130237 0.012155685688620745 0 0 0
1703 1 39.14125793774477 13.037430141826492 0.9903357087584955 0 0 0
1705 3 40.64668889567296 13.906592983130235 0.012155685688623012 0 0 0
1704 1 37.635825208149015 15.64491611686349 0.9903357087584972 0 0 0
1708 1 40.64669066734001 15.644916116863492 0.9903357087584925 0 0 0
1698 3 36.13039070688621 16.514078958167236 0.012155685688624015 0 0 0
1702 3 39.14125616607721 16.514078958167236 0.012155685688626645 0 0 0
1707 1 42.15212339693577 13.03743014182649 0.9903357087584976 0 0 0
1709 3 43.65755435486396 13.906592983130237 0.01215568568862204 0 0 0
1711 1 45.162988856126766 13.03743014182649 0.9903357087584985 0 0 0
1713 3 46.66841981405496 13.906592983130237 0.012155685688623297 0 0 0
1712 1 43.65755612653101 15.644916116863492 0.9903357087584954 0 0 0
1716 1 46.66842158572201 15.64491611686349 0.9903357087584974 0 0 0
1706 3 42.15212162526821 16.51407895816724 0.01215568568862279 0 0 0
1710 3 45.1629870844592 16.514078958167236 0.012155685688624253 0 0 0
1715 1 48.17385431531777 13.037430141826492 0.9903357087584951 0 0 0
1585 3 49.679285273245966 13.906592983130235 0.012155685688624435 -1 0 0
1587 1 51.18471977450877 13.037430141826492 0.9903357087584956 -1 0 0
1588 1 49.67928704491301 15.644916116863493 0.9903357087584937 -1 0 0
1714 3 48.17385254365021 16.514078958167236 0.012155685688626384 0 0 0
1586 3 51.184718002841215 16.514078958167236 0.012155685688623961 -1 0 0
1589 3 52.69015073243696 13.906592983130235 0.012155685688620885 -1 0 0
1591 1 54.195585233699774 13.03743014182649 0.990335708758498 -1 0 0
1593 3 55.701016191627964 13.906592983130235 0.012155685688624029 -1 0 0
1595 1 57.20645069289077 13.037430141826492 0.990335708758496 -1 0 0
1592 1 52.69015250410402 15.644916116863493 0.9903357087584936 -1 0 0
1596 1 55.701017963295016 15.644916116863492 0.9903357087584966 -1 0 0
1590 3 54.19558346203221 16.514078958167236 0.012155685688623685 -1 0 0
1594 3 57.20644892122321 16.514078958167236 0.01215568568862568 -1 0 0
1597 3 58.71188165081897 13.906592983130235 0.01215568568862282 -1 0 0
1599 1 60.21731615208177 13.037430141826492 0.9903357087584954 -1 0 0
1601 3 61.72274711000996 13.906592983130235 0.012155685688621137 -1 0 0
1603 1 63.22818161127277 13.03743014182649 0.9903357087585002 -1 0 0
1600 1 58.71188342248602 15.644916116863493 0.9903357087584947 -1 0 0
1604 1 61.72274888167702 15.644916116863492 0.9903357087584939 -1 0 0
1598 3 60.217314380414216 16.514078958167236 0.012155685688624747 -1 0 0
1602 3 63.22817983960522 16.514078958167236 0.01215568568862592 -1 0 0
1605 3 64.73361256920097 13.906592983130235 0.01215568568862314 -1 0 0
1607 1 66.23904707046377 13.037430141826492 0.9903357087584937 -1 0 0
1609 3 67.74447802839197 13.906592983130238 0.012155685688620913 -1 0 0
1611 1 69.24991252965476 13.03743014182649 0.9903357087584983 -1 0 0
1608 1 64.73361434086802 15.644916116863492 0.9903357087584947 -1 0 0
1612 1 67.74447980005903 15.64491611686349 0.9903357087584965 -1 0 0