LAMMPS data file via write_data, version 29 Aug 2024, timestep = 2, units = metal

7524 atoms
6 atom types

0 99.358560153303 xlo xhi
0 99.084467051406 ylo yhi
-50 50 zlo zhi

Masses

1 72.63
2 72.63
3 72.63
4 15.999
5 15.999
6 15.999

Atoms # atomic

1260 1 1.5054386581122403 1.3561892296408882e-07 0.9900974514023713 0 0 0
1258 4 3.0108695887221035 0.8691629925083603 0.010992428444399373 0 0 0
1264 1 4.516304117303237 1.3561892458176203e-07 0.9900974514023679 0 0 0
1387 1 5.928517025648201e-06 2.607486110655928 0.9900974514023672 0 0 0
1391 1 3.010871387708028 2.6074861106559277 0.9900974514023692 0 0 0
1389 4 1.505436859126895 3.4766489675453625 0.010992428444399007 0 0 0
1393 4 4.516302318317896 3.476648967545362 0.010992428444398378 0 0 0
1392 1 1.5054386581122403 5.214972085692926 0.9900974514023726 0 0 0
1396 1 4.516304117303236 5.214972085692929 0.9900974514023689 0 0 0
1254 4 4.129531106400464e-06 0.8691629925083612 0.010992428444398149 0 0 0
1262 4 6.021735047913102 0.8691629925083609 0.010992428444398218 0 0 0
1268 1 7.527169576494234 1.3561892427667734e-07 0.9900974514023694 0 0 0
1266 4 9.032600507104101 0.8691629925083602 0.010992428444399273 0 0 0
1272 1 10.538035035685235 1.3561892513702284e-07 0.9900974514023679 0 0 0
1395 1 6.021736846899027 2.607486110655927 0.9900974514023697 0 0 0
1399 1 9.032602306090027 2.6074861106559277 0.9900974514023688 0 0 0
1397 4 7.527167777508894 3.476648967545362 0.010992428444399089 0 0 0
1401 4 10.538033236699896 3.476648967545362 0.01099242844439909 0 0 0
1400 1 7.527169576494234 5.214972085692928 0.9900974514023702 0 0 0
1404 1 10.538035035685235 5.214972085692929 0.9900974514023693 0 0 0
1270 4 12.043465966295104 0.8691629925083605 0.010992428444399113 0 0 0
1276 1 13.548900494876237 1.3561892457748166e-07 0.9900974514023679 0 0 0
1274 4 15.054331425486104 0.8691629925083609 0.010992428444398163 0 0 0
1280 1 16.559765954067235 1.3561892470467583e-07 0.9900974514023697 0 0 0
1403 1 12.04346776528103 2.6074861106559277 0.9900974514023692 0 0 0
1407 1 15.054333224472028 2.607486110655927 0.9900974514023698 0 0 0
1405 4 13.548898695890896 3.4766489675453625 0.010992428444398137 0 0 0
1409 4 16.559764155081897 3.4766489675453616 0.010992428444399991 0 0 0
1408 1 13.548900494876237 5.214972085692928 0.9900974514023689 0 0 0
1412 1 16.559765954067235 5.214972085692928 0.9900974514023704 0 0 0
1278 4 18.065196884677107 0.8691629925083597 0.010992428444400106 0 0 0
1284 1 19.57063141325824 1.35618925628563e-07 0.9900974514023665 0 0 0
1282 4 21.07606234386811 0.8691629925083613 0.010992428444398402 0 0 0
1288 1 22.58149687244924 1.3561892391231007e-07 0.9900974514023689 0 0 0
1411 1 18.06519868366303 2.607486110655928 0.990097451402368 0 0 0
1415 1 21.076064142854033 2.6074861106559273 0.99009745140237 0 0 0
1413 4 19.5706296142729 3.4766489675453616 0.010992428444398666 0 0 0
1417 4 22.5814950734639 3.4766489675453625 0.010992428444398265 0 0 0
1416 1 19.57063141325824 5.214972085692929 0.9900974514023678 0 0 0
1420 1 22.58149687244924 5.214972085692928 0.9900974514023698 0 0 0
1286 4 24.086927803059105 0.8691629925083608 0.010992428444398095 0 0 0
1292 1 25.592362331640235 1.3561892460844627e-07 0.9900974514023697 0 0 0
1290 4 27.097793262250104 0.8691629925083597 0.010992428444400008 0 0 0
1296 1 28.603227790831237 1.3561892441134282e-07 0.9900974514023686 0 0 0
1419 1 24.08692960204503 2.607486110655927 0.9900974514023698 0 0 0
1423 1 27.09779506123603 2.607486110655928 0.9900974514023678 0 0 0
1421 4 25.592360532654897 3.476648967545362 0.010992428444399516 0 0 0
1425 4 28.603225991845896 3.476648967545362 0.010992428444398246 0 0 0
1424 1 25.592362331640235 5.214972085692928 0.9900974514023703 0 0 0
1428 1 28.603227790831237 5.214972085692928 0.9900974514023702 0 0 0
1294 4 30.108658721441103 0.8691629925083612 0.010992428444398485 0 0 0
1300 1 31.614093250022236 1.3561892438733526e-07 0.9900974514023676 0 0 0
1298 4 33.119524180632105 0.8691629925083614 0.010992428444397184 0 0 0
1304 1 34.62495870921324 1.356189255972135e-07 0.9900974514023682 0 0 0
1427 1 30.10866052042703 2.6074861106559273 0.9900974514023699 0 0 0
1431 1 33.11952597961803 2.6074861106559273 0.9900974514023698 0 0 0
1429 4 31.614091451036895 3.476648967545362 0.010992428444397885 0 0 0
1433 4 34.624956910227894 3.476648967545361 0.01099242844440063 0 0 0
1432 1 31.614093250022236 5.214972085692928 0.9900974514023685 0 0 0
1436 1 34.62495870921324 5.21497208569293 0.9900974514023685 0 0 0
1302 4 36.1303896398231 0.869162992508361 0.010992428444398102 0 0 0
1308 1 37.635824168404234 1.3561892341322852e-07 0.9900974514023703 0 0 0
1306 4 39.1412550990141 0.8691629925083593 0.010992428444401323 0 0 0
1312 1 40.64668962759523 1.3561892466704512e-07 0.9900974514023672 0 0 0
1435 1 36.13039143880903 2.607486110655926 0.9900974514023709 0 0 0
1439 1 39.14125689800002 2.607486110655928 0.9900974514023683 0 0 0
1437 4 37.6358223694189 3.476648967545362 0.010992428444399158 0 0 0
1441 4 40.6466878286099 3.476648967545363 0.010992428444396945 0 0 0
1440 1 37.635824168404234 5.214972085692928 0.990097451402371 0 0 0
1444 1 40.64668962759523 5.214972085692928 0.9900974514023685 0 0 0
1310 4 42.152120558205105 0.8691629925083617 0.010992428444397552 0 0 0
1316 1 43.65755508678623 1.356189240027723e-07 0.9900974514023688 0 0 0
1314 4 45.1629860173961 0.8691629925083607 0.010992428444397897 0 0 0
1320 1 46.66842054597723 1.3561892542698858e-07 0.9900974514023692 0 0 0
1443 1 42.152122357191026 2.6074861106559273 0.9900974514023698 0 0 0
1447 1 45.16298781638202 2.6074861106559273 0.990097451402369 0 0 0
1445 4 43.657553287800894 3.4766489675453625 0.010992428444398166 0 0 0
1449 4 46.66841874699189 3.4766489675453607 0.010992428444401074 0 0 0
1448 1 43.65755508678623 5.214972085692928 0.9900974514023697 0 0 0
1452 1 46.668420545977234 5.214972085692929 0.9900974514023696 0 0 0
1318 4 48.1738514765871 0.8691629925083593 0.010992428444400855 0 0 0
1190 4 51.184716935778106 0.8691629925083609 0.010992428444399016 -1 0 0
1192 1 49.67928600516824 1.356189261243155e-07 0.9900974514023663 -1 0 0
1451 1 48.17385327557303 2.6074861106559286 0.9900974514023677 0 0 0
1323 1 51.18471873476403 2.607486110655927 0.9900974514023704 -1 0 0
1321 4 49.6792842061829 3.4766489675453616 0.010992428444398298 -1 0 0
1324 1 49.67928600516824 5.21497208569293 0.9900974514023675 -1 0 0
1196 1 52.69015146435924 1.3561892361176214e-07 0.9900974514023692 -1 0 0
1194 4 54.19558239496911 0.8691629925083609 0.010992428444397625 -1 0 0
1200 1 55.701016923550235 1.3561892534455136e-07 0.990097451402368 -1 0 0
1198 4 57.2064478541601 0.8691629925083602 0.010992428444399405 -1 0 0
1327 1 54.19558419395503 2.6074861106559277 0.9900974514023684 -1 0 0
1331 1 57.20644965314603 2.6074861106559277 0.9900974514023692 -1 0 0
1325 4 52.6901496653739 3.476648967545363 0.010992428444397854 -1 0 0
1329 4 55.7010151245649 3.4766489675453616 0.010992428444399502 -1 0 0
1328 1 52.69015146435924 5.214972085692928 0.99009745140237 -1 0 0
1332 1 55.70101692355024 5.214972085692929 0.9900974514023688 -1 0 0
1204 1 58.711882382741244 1.3561892513117667e-07 0.9900974514023679 -1 0 0
1202 4 60.217313313351106 0.8691629925083606 0.010992428444399446 -1 0 0
1208 1 61.72274784193224 1.3561892405692083e-07 0.9900974514023687 -1 0 0
1206 4 63.22817877254211 0.8691629925083612 0.010992428444397689 -1 0 0
1335 1 60.21731511233703 2.607486110655927 0.9900974514023705 -1 0 0
1339 1 63.22818057152803 2.607486110655928 0.9900974514023678 -1 0 0
1333 4 58.7118805837559 3.4766489675453616 0.010992428444399259 -1 0 0
1337 4 61.7227460429469 3.476648967545363 0.010992428444397826 -1 0 0
1336 1 58.711882382741244 5.214972085692929 0.9900974514023693 -1 0 0
1340 1 61.72274784193224 5.214972085692927 0.9900974514023702 -1 0 0
1212 1 64.73361330112324 1.3561892470409869e-07 0.9900974514023677 -1 0 0
1210 4 66.2390442317331 0.869162992508359 0.01099242844440219 -1 0 0
1216 1 67.74447876031424 1.3561892424663e-07 0.9900974514023709 -1 0 0
1214 4 69.24990969092411 0.8691629925083609 0.010992428444396785 -1 0 0
1343 1 66.23904603071902 2.6074861106559264 0.990097451402371 -1 0 0
1347 1 69.24991148991003 2.6074861106559286 0.9900974514023673 -1 0 0
1341 4 64.73361150213789 3.4766489675453625 0.010992428444397243 -1 0 0
1345 4 67.7444769613289 3.4766489675453607 0.010992428444401426 -1 0 0
1344 1 64.73361330112324 5.214972085692929 0.990097451402369 -1 0 0
1348 1 67.74447876031424 5.214972085692928 0.9900974514023716 -1 0 0
1220 1 70.75534421950525 1.3561892586406356e-07 0.9900974514023652 -1 0 0
1218 4 72.26077515011511 0.8691629925083617 0.010992428444397129 -1 0 0
1222 4 75.2716406093061 0.8691629925083616 0.010992428444397268 -1 0 0
1224 1 73.76620967869624 1.3561892472417517e-07 0.9900974514023702 -1 0 0
1351 1 72.26077694910103 2.6074861106559264 0.9900974514023709 -1 0 0
1355 1 75.27164240829202 2.6074861106559264 0.9900974514023708 -1 0 0
1349 4 70.7553424205199 3.476648967545362 0.010992428444397271 -1 0 0
1353 4 73.7662078797109 3.4766489675453602 0.010992428444402801 -1 0 0
1352 1 70.75534421950525 5.2149720856929305 0.9900974514023656 -1 0 0
1356 1 73.76620967869624 5.214972085692929 0.9900974514023705 -1 0 0
1228 1 76.77707513788724 1.3561892551779205e-07 0.9900974514023657 -1 0 0
1226 4 78.2825060684971 0.8691629925083592 0.010992428444400942 -1 0 0
1232 1 79.78794059707825 1.3561892353934193e-07 0.9900974514023696 -1 0 0
1230 4 81.29337152768811 0.869162992508361 0.010992428444398414 -1 0 0
1359 1 78.28250786748303 2.60748611065593 0.9900974514023662 -1 0 0
1363 1 81.29337332667403 2.607486110655927 0.9900974514023698 -1 0 0
1357 4 76.7770733389019 3.4766489675453625 0.010992428444396601 -1 0 0
1361 4 79.7879387980929 3.4766489675453633 0.010992428444397177 -1 0 0
1360 1 76.77707513788724 5.21497208569293 0.9900974514023666 -1 0 0
1364 1 79.78794059707825 5.214972085692927 0.9900974514023708 -1 0 0
1236 1 82.79880605626924 1.3561892345472578e-07 0.9900974514023696 -1 0 0
1234 4 84.3042369868791 0.8691629925083588 0.010992428444402381 -1 0 0
1240 1 85.80967151546024 1.3561892420210297e-07 0.990097451402371 -1 0 0
1238 4 87.31510244607011 0.8691629925083603 0.010992428444397892 -1 0 0
1367 1 84.30423878586502 2.6074861106559264 0.990097451402371 -1 0 0
1371 1 87.31510424505603 2.6074861106559286 0.9900974514023672 -1 0 0
1365 4 82.79880425728389 3.476648967545363 0.010992428444397644 -1 0 0
1369 4 85.8096697164749 3.4766489675453607 0.010992428444401417 -1 0 0
1368 1 82.79880605626924 5.214972085692927 0.9900974514023709 -1 0 0
1372 1 85.80967151546024 5.214972085692928 0.9900974514023717 -1 0 0
1244 1 88.82053697465123 1.356189235024184e-07 0.9900974514023693 -1 0 0
1242 4 90.32596790526111 0.8691629925083617 0.010992428444397094 -1 0 0
1248 1 91.83140243384224 1.3561892707483707e-07 0.9900974514023659 -1 0 0
1246 4 93.3368333644521 0.869162992508362 0.010992428444396553 -1 0 0
1375 1 90.32596970424703 2.6074861106559264 0.990097451402371 -1 0 0
1379 1 93.33683516343802 2.6074861106559264 0.990097451402371 -1 0 0
1373 4 88.8205351756659 3.476648967545363 0.010992428444397951 -1 0 0
1377 4 91.8314006348569 3.47664896754536 0.010992428444402005 -1 0 0
1376 1 88.82053697465123 5.214972085692928 0.9900974514023698 -1 0 0
1380 1 91.83140243384224 5.2149720856929305 0.9900974514023663 -1 0 0
1252 1 94.84226789303324 1.3561892363072382e-07 0.9900974514023686 -1 0 0
1250 4 96.3476988236431 0.8691629925083595 0.010992428444401084 -1 0 0
1256 1 97.85313335222423 1.356189259770694e-07 0.9900974514023658 -1 0 0
1383 1 96.34770062262902 2.6074861106559277 0.9900974514023703 -1 0 0
1381 4 94.8422660940479 3.476648967545363 0.010992428444398315 -1 0 0
1385 4 97.8531315532389 3.4766489675453625 0.010992428444396768 -1 0 0
1384 1 94.84226789303324 5.214972085692927 0.9900974514023697 -1 0 0
1388 1 97.85313335222423 5.21497208569293 0.9900974514023672 -1 0 0
1390 4 3.0108695887221035 6.084134942582363 0.010992428444399412 0 0 0
1519 1 5.928517025374257e-06 7.82245806072993 0.9900974514023669 0 0 0
1523 1 3.010871387708028 7.822458060729929 0.9900974514023692 0 0 0
1521 4 1.505436859126895 8.691620917619366 0.010992428444399136 0 0 0
1525 4 4.516302318317895 8.691620917619364 0.010992428444398395 0 0 0
1524 1 1.5054386581122403 10.429944035766928 0.9900974514023725 0 0 0
1528 1 4.516304117303236 10.42994403576693 0.9900974514023688 0 0 0
1522 4 3.010869588722104 11.299106892656363 0.010992428444399273 0 0 0
1386 4 4.129531106400464e-06 6.084134942582364 0.010992428444398253 0 0 0
1518 4 4.129531106400464e-06 11.299106892656365 0.01099242844439777 0 0 0
1394 4 6.021735047913102 6.084134942582363 0.010992428444398312 0 0 0
1398 4 9.032600507104101 6.084134942582363 0.010992428444399429 0 0 0
1527 1 6.021736846899027 7.822458060729929 0.99009745140237 0 0 0
1531 1 9.032602306090027 7.822458060729929 0.9900974514023689 0 0 0
1529 4 7.527167777508894 8.691620917619364 0.01099242844439926 0 0 0
1533 4 10.538033236699896 8.691620917619364 0.010992428444399056 0 0 0
1532 1 7.527169576494235 10.42994403576693 0.9900974514023703 0 0 0
1536 1 10.538035035685235 10.42994403576693 0.9900974514023692 0 0 0
1526 4 6.021735047913102 11.299106892656365 0.010992428444398412 0 0 0
1530 4 9.032600507104101 11.299106892656363 0.010992428444399342 0 0 0
1402 4 12.043465966295104 6.084134942582363 0.010992428444399129 0 0 0
1406 4 15.054331425486104 6.084134942582363 0.010992428444398225 0 0 0
1535 1 12.04346776528103 7.822458060729929 0.9900974514023692 0 0 0
1539 1 15.05433322447203 7.822458060729929 0.99009745140237 0 0 0
1537 4 13.548898695890896 8.691620917619364 0.010992428444398149 0 0 0
1541 4 16.559764155081897 8.691620917619364 0.01099242844440016 0 0 0
1540 1 13.548900494876236 10.42994403576693 0.9900974514023688 0 0 0
1544 1 16.559765954067235 10.42994403576693 0.9900974514023706 0 0 0
1534 4 12.043465966295104 11.299106892656363 0.010992428444399207 0 0 0
1538 4 15.054331425486104 11.299106892656365 0.010992428444398464 0 0 0
1410 4 18.065196884677107 6.084134942582362 0.010992428444400225 0 0 0
1414 4 21.07606234386811 6.084134942582363 0.010992428444398385 0 0 0
1543 1 18.06519868366303 7.82245806072993 0.9900974514023684 0 0 0
1547 1 21.076064142854033 7.822458060729929 0.99009745140237 0 0 0
1545 4 19.5706296142729 8.691620917619364 0.010992428444398692 0 0 0
1549 4 22.5814950734639 8.691620917619364 0.01099242844439867 0 0 0
1548 1 19.57063141325824 10.42994403576693 0.9900974514023677 0 0 0
1552 1 22.58149687244924 10.42994403576693 0.9900974514023705 0 0 0
1542 4 18.065196884677107 11.299106892656363 0.01099242844439988 0 0 0
1546 4 21.07606234386811 11.299106892656365 0.01099242844439845 0 0 0
1418 4 24.086927803059105 6.084134942582363 0.010992428444398263 0 0 0
1422 4 27.097793262250104 6.084134942582362 0.010992428444400064 0 0 0
1551 1 24.08692960204503 7.822458060729929 0.9900974514023697 0 0 0
1555 1 27.09779506123603 7.82245806072993 0.9900974514023677 0 0 0
1553 4 25.592360532654897 8.691620917619364 0.010992428444399691 0 0 0
1557 4 28.603225991845896 8.691620917619364 0.010992428444398378 0 0 0
1556 1 25.592362331640235 10.42994403576693 0.9900974514023704 0 0 0
1560 1 28.603227790831237 10.42994403576693 0.9900974514023702 0 0 0
1550 4 24.086927803059105 11.299106892656365 0.010992428444398456 0 0 0
1554 4 27.097793262250104 11.299106892656363 0.010992428444399783 0 0 0
1426 4 30.108658721441103 6.084134942582363 0.010992428444398378 0 0 0
1430 4 33.119524180632105 6.084134942582364 0.010992428444397236 0 0 0
1559 1 30.10866052042703 7.822458060729929 0.9900974514023699 0 0 0
1563 1 33.11952597961803 7.822458060729929 0.9900974514023698 0 0 0
1561 4 31.614091451036895 8.691620917619364 0.01099242844439796 0 0 0
1565 4 34.624956910227894 8.691620917619364 0.010992428444400681 0 0 0
1564 1 31.614093250022233 10.42994403576693 0.9900974514023684 0 0 0
1568 1 34.62495870921324 10.429944035766932 0.9900974514023688 0 0 0
1558 4 30.108658721441103 11.299106892656365 0.010992428444398586 0 0 0
1562 4 33.119524180632105 11.299106892656365 0.01099242844439762 0 0 0
1434 4 36.1303896398231 6.084134942582364 0.010992428444397986 0 0 0
1438 4 39.1412550990141 6.084134942582362 0.010992428444401382 0 0 0
1567 1 36.13039143880903 7.822458060729928 0.9900974514023707 0 0 0
1571 1 39.14125689800002 7.8224580607299306 0.9900974514023684 0 0 0
1569 4 37.6358223694189 8.691620917619364 0.01099242844439947 0 0 0
1573 4 40.6466878286099 8.691620917619364 0.010992428444396981 0 0 0
1572 1 37.635824168404234 10.42994403576693 0.9900974514023714 0 0 0
1576 1 40.64668962759523 10.42994403576693 0.9900974514023684 0 0 0
1566 4 36.1303896398231 11.299106892656365 0.010992428444398503 0 0 0
1570 4 39.1412550990141 11.299106892656363 0.010992428444401129 0 0 0
1442 4 42.152120558205105 6.084134942582364 0.01099242844439757 0 0 0
1446 4 45.1629860173961 6.084134942582363 0.01099242844439808 0 0 0
1575 1 42.152122357191026 7.822458060729929 0.9900974514023697 0 0 0
1579 1 45.16298781638202 7.82245806072993 0.9900974514023689 0 0 0
1577 4 43.657553287800894 8.691620917619364 0.010992428444398567 0 0 0
1581 4 46.66841874699189 8.691620917619364 0.010992428444401275 0 0 0
1580 1 43.65755508678623 10.42994403576693 0.9900974514023704 0 0 0
1584 1 46.668420545977234 10.42994403576693 0.9900974514023698 0 0 0
1574 4 42.152120558205105 11.299106892656365 0.01099242844439765 0 0 0
1578 4 45.1629860173961 11.299106892656365 0.010992428444398258 0 0 0
1450 4 48.1738514765871 6.084134942582361 0.010992428444400978 0 0 0
1322 4 51.184716935778106 6.084134942582363 0.01099242844439902 -1 0 0
1583 1 48.17385327557303 7.8224580607299306 0.9900974514023679 0 0 0
1455 1 51.18471873476403 7.822458060729929 0.9900974514023707 -1 0 0
1453 4 49.6792842061829 8.691620917619364 0.010992428444398239 -1 0 0
1456 1 49.67928600516824 10.429944035766932 0.9900974514023675 -1 0 0
1582 4 48.1738514765871 11.299106892656361 0.010992428444400596 0 0 0
1454 4 51.184716935778106 11.299106892656365 0.010992428444398987 -1 0 0
1326 4 54.19558239496911 6.084134942582363 0.010992428444397741 -1 0 0
1330 4 57.2064478541601 6.084134942582363 0.010992428444399575 -1 0 0
1459 1 54.19558419395503 7.82245806072993 0.9900974514023686 -1 0 0
1463 1 57.20644965314603 7.822458060729929 0.9900974514023692 -1 0 0
1457 4 52.6901496653739 8.691620917619366 0.010992428444397882 -1 0 0
1461 4 55.7010151245649 8.691620917619364 0.01099242844439971 -1 0 0
1460 1 52.69015146435924 10.429944035766928 0.99009745140237 -1 0 0
1464 1 55.70101692355024 10.42994403576693 0.9900974514023689 -1 0 0
1458 4 54.19558239496911 11.299106892656365 0.010992428444397788 -1 0 0
1462 4 57.2064478541601 11.299106892656363 0.010992428444399467 -1 0 0
1334 4 60.217313313351106 6.084134942582363 0.010992428444399491 -1 0 0
1338 4 63.22817877254211 6.084134942582363 0.01099242844439768 -1 0 0
1467 1 60.21731511233703 7.822458060729928 0.9900974514023705 -1 0 0
1471 1 63.22818057152803 7.8224580607299306 0.9900974514023679 -1 0 0
1465 4 58.7118805837559 8.691620917619364 0.010992428444399252 -1 0 0
1469 4 61.7227460429469 8.691620917619364 0.010992428444397904 -1 0 0
1468 1 58.711882382741244 10.42994403576693 0.9900974514023692 -1 0 0
1472 1 61.72274784193224 10.429944035766928 0.99009745140237 -1 0 0
1466 4 60.217313313351106 11.299106892656363 0.010992428444399582 -1 0 0
1470 4 63.22817877254211 11.299106892656365 0.010992428444397767 -1 0 0
1342 4 66.2390442317331 6.084134942582361 0.01099242844440236 -1 0 0
1346 4 69.24990969092411 6.084134942582363 0.01099242844439698 -1 0 0
1475 1 66.23904603071902 7.822458060729928 0.9900974514023708 -1 0 0
1479 1 69.24991148991003 7.8224580607299306 0.9900974514023673 -1 0 0
1473 4 64.73361150213789 8.691620917619366 0.010992428444397458 -1 0 0
1477 4 67.7444769613289 8.691620917619364 0.0109924284444015 -1 0 0
1476 1 64.73361330112324 10.42994403576693 0.9900974514023695 -1 0 0
1480 1 67.74447876031424 10.42994403576693 0.9900974514023715 -1 0 0
1474 4 66.2390442317331 11.299106892656363 0.010992428444401892 -1 0 0
1478 4 69.24990969092411 11.299106892656365 0.010992428444397203 -1 0 0
1350 4 72.26077515011511 6.084134942582364 0.010992428444397177 -1 0 0
1354 4 75.2716406093061 6.084134942582364 0.010992428444397257 -1 0 0
1483 1 72.26077694910104 7.822458060729928 0.9900974514023709 -1 0 0
1487 1 75.27164240829202 7.822458060729928 0.9900974514023709 -1 0 0
1481 4 70.7553424205199 8.691620917619364 0.010992428444397219 -1 0 0
1485 4 73.7662078797109 8.691620917619362 0.010992428444402761 -1 0 0
1484 1 70.75534421950525 10.429944035766932 0.9900974514023655 -1 0 0
1488 1 73.76620967869624 10.42994403576693 0.9900974514023706 -1 0 0
1482 4 72.26077515011511 11.299106892656365 0.01099242844439766 -1 0 0
1486 4 75.2716406093061 11.299106892656365 0.010992428444397566 -1 0 0
1358 4 78.2825060684971 6.084134942582361 0.010992428444401004 -1 0 0
1362 4 81.29337152768811 6.084134942582363 0.010992428444398294 -1 0 0
1491 1 78.28250786748303 7.822458060729931 0.9900974514023663 -1 0 0
1495 1 81.29337332667403 7.82245806072993 0.9900974514023695 -1 0 0
1489 4 76.7770733389019 8.691620917619364 0.010992428444396516 -1 0 0
1493 4 79.7879387980929 8.691620917619366 0.010992428444397517 -1 0 0
1492 1 76.77707513788724 10.429944035766932 0.9900974514023663 -1 0 0
1496 1 79.78794059707825 10.42994403576693 0.9900974514023712 -1 0 0
1490 4 78.2825060684971 11.299106892656361 0.01099242844440075 -1 0 0
1494 4 81.29337152768811 11.299106892656365 0.010992428444398603 -1 0 0
1366 4 84.3042369868791 6.084134942582361 0.010992428444402555 -1 0 0
1370 4 87.31510244607011 6.084134942582362 0.010992428444398003 -1 0 0
1499 1 84.30423878586502 7.822458060729928 0.9900974514023708 -1 0 0
1503 1 87.31510424505603 7.8224580607299306 0.990097451402367 -1 0 0
1497 4 82.79880425728389 8.691620917619366 0.010992428444397882 -1 0 0
1501 4 85.8096697164749 8.691620917619364 0.010992428444401573 -1 0 0
1500 1 82.79880605626924 10.42994403576693 0.9900974514023713 -1 0 0
1504 1 85.80967151546024 10.42994403576693 0.9900974514023717 -1 0 0
1498 4 84.3042369868791 11.299106892656363 0.01099242844440207 -1 0 0
1502 4 87.31510244607011 11.299106892656365 0.010992428444398246 -1 0 0
1374 4 90.32596790526111 6.084134942582364 0.010992428444397106 -1 0 0
1378 4 93.3368333644521 6.084134942582365 0.010992428444396468 -1 0 0
1507 1 90.32596970424703 7.822458060729929 0.9900974514023708 -1 0 0
1511 1 93.33683516343802 7.822458060729928 0.9900974514023709 -1 0 0
1505 4 88.8205351756659 8.691620917619366 0.010992428444398239 -1 0 0
1509 4 91.8314006348569 8.69162091761936 0.010992428444401708 -1 0 0
1508 1 88.82053697465123 10.42994403576693 0.99009745140237 -1 0 0
1512 1 91.83140243384224 10.429944035766933 0.990097451402366 -1 0 0
1506 4 90.32596790526111 11.299106892656365 0.010992428444397684 -1 0 0
1510 4 93.3368333644521 11.299106892656365 0.010992428444397025 -1 0 0
1382 4 96.3476988236431 6.084134942582362 0.010992428444400903 -1 0 0
1515 1 96.34770062262902 7.82245806072993 0.9900974514023702 -1 0 0
1513 4 94.8422660940479 8.691620917619364 0.010992428444398013 -1 0 0
1517 4 97.8531315532389 8.691620917619364 0.010992428444397037 -1 0 0
1516 1 94.84226789303324 10.42994403576693 0.9900974514023694 -1 0 0
1520 1 97.85313335222423 10.429944035766932 0.9900974514023673 -1 0 0
1514 4 96.3476988236431 11.299106892656363 0.010992428444401157 -1 0 0
1653 4 1.505436859126895 13.906592867693362 0.010992428444398397 0 0 0
1651 1 5.928517025621888e-06 13.03743001080393 0.9900974514023677 0 0 0
1655 1 3.0108713877080278 13.037430010803929 0.9900974514023695 0 0 0
1657 4 4.516302318317895 13.906592867693362 0.010992428444396955 0 0 0
1656 1 1.5054386581122408 15.644915985840926 0.9900974514023719 0 0 0
1660 1 4.516304117303236 15.64491598584093 0.9900974514023678 0 0 0
1654 4 3.0108695887221035 16.514078842730363 0.010992428444400251 0 0 0
1650 4 4.129531106400464e-06 16.514078842730363 0.010992428444398659 0 0 0
1659 1 6.021736846899027 13.037430010803929 0.9900974514023705 0 0 0
1661 4 7.527167777508894 13.906592867693362 0.010992428444397937 0 0 0
1663 1 9.032602306090027 13.037430010803929 0.9900974514023698 0 0 0
1665 4 10.538033236699896 13.906592867693362 0.010992428444397951 0 0 0
1664 1 7.527169576494235 15.644915985840928 0.9900974514023687 0 0 0
1668 1 10.538035035685235 15.64491598584093 0.9900974514023675 0 0 0
1658 4 6.021735047913102 16.514078842730363 0.01099242844439936 0 0 0
1662 4 9.032600507104101 16.514078842730363 0.010992428444400282 0 0 0
1667 1 12.04346776528103 13.037430010803929 0.9900974514023698 0 0 0
1669 4 13.548898695890896 13.906592867693362 0.010992428444396655 0 0 0
1671 1 15.054333224472028 13.037430010803929 0.9900974514023703 0 0 0
1673 4 16.559764155081893 13.906592867693362 0.010992428444399086 0 0 0
1672 1 13.548900494876236 15.64491598584093 0.9900974514023677 0 0 0
1676 1 16.559765954067235 15.644915985840928 0.9900974514023695 0 0 0
1666 4 12.043465966295104 16.514078842730363 0.010992428444400175 0 0 0
1670 4 15.054331425486104 16.514078842730363 0.010992428444399151 0 0 0
1675 1 18.06519868366303 13.03743001080393 0.9900974514023692 0 0 0
1677 4 19.5706296142729 13.906592867693362 0.010992428444397576 0 0 0
1679 1 21.076064142854033 13.037430010803929 0.9900974514023704 0 0 0
1681 4 22.5814950734639 13.906592867693364 0.01099242844439725 0 0 0
1680 1 19.57063141325824 15.64491598584093 0.9900974514023673 0 0 0
1684 1 22.58149687244924 15.644915985840928 0.9900974514023688 0 0 0
1674 4 18.065196884677107 16.514078842730363 0.010992428444400812 0 0 0
1678 4 21.07606234386811 16.514078842730363 0.010992428444399509 0 0 0
1685 4 25.592360532654897 13.906592867693362 0.010992428444398593 0 0 0
1683 1 24.08692960204503 13.037430010803929 0.9900974514023702 0 0 0
1687 1 27.09779506123603 13.03743001080393 0.9900974514023689 0 0 0
1689 4 28.603225991845896 13.906592867693362 0.010992428444397413 0 0 0
1688 1 25.592362331640235 15.644915985840928 0.9900974514023694 0 0 0
1692 1 28.603227790831237 15.644915985840928 0.9900974514023693 0 0 0
1682 4 24.086927803059105 16.514078842730363 0.010992428444399198 0 0 0
1686 4 27.097793262250104 16.514078842730363 0.01099242844440063 0 0 0
1691 1 30.10866052042703 13.037430010803929 0.9900974514023712 0 0 0
1693 4 31.614091451036895 13.906592867693362 0.010992428444396454 0 0 0
1695 1 33.11952597961803 13.037430010803927 0.9900974514023705 0 0 0
1697 4 34.624956910227894 13.906592867693362 0.010992428444399243 0 0 0
1696 1 31.614093250022236 15.644915985840928 0.9900974514023669 0 0 0
1700 1 34.62495870921324 15.64491598584093 0.9900974514023672 0 0 0
1690 4 30.108658721441103 16.514078842730363 0.010992428444399582 0 0 0
1694 4 33.119524180632105 16.514078842730363 0.01099242844439843 0 0 0
1699 1 36.13039143880903 13.037430010803927 0.9900974514023714 0 0 0
1701 4 37.6358223694189 13.906592867693362 0.01099242844439842 0 0 0
1703 1 39.14125689800002 13.03743001080393 0.990097451402369 0 0 0
1705 4 40.6466878286099 13.906592867693362 0.010992428444395873 0 0 0
1704 1 37.635824168404234 15.644915985840928 0.9900974514023705 0 0 0
1708 1 40.64668962759524 15.644915985840928 0.9900974514023679 0 0 0
1698 4 36.1303896398231 16.514078842730363 0.01099242844439918 0 0 0
1702 4 39.1412550990141 16.514078842730363 0.010992428444401965 0 0 0
1707 1 42.152122357191026 13.037430010803929 0.9900974514023702 0 0 0
1709 4 43.657553287800894 13.906592867693364 0.01099242844439715 0 0 0
1711 1 45.16298781638202 13.037430010803929 0.9900974514023694 0 0 0
1713 4 46.66841874699189 13.906592867693362 0.010992428444400156 0 0 0
1712 1 43.65755508678623 15.644915985840928 0.9900974514023687 0 0 0
1716 1 46.668420545977234 15.644915985840928 0.9900974514023687 0 0 0
1706 4 42.152120558205105 16.514078842730363 0.01099242844439868 0 0 0
1710 4 45.1629860173961 16.514078842730363 0.010992428444398999 0 0 0
1715 1 48.17385327557303 13.03743001080393 0.9900974514023689 0 0 0
1585 4 49.6792842061829 13.906592867693362 0.010992428444397297 -1 0 0
1587 1 51.18471873476403 13.037430010803929 0.9900974514023713 -1 0 0
1588 1 49.67928600516824 15.64491598584093 0.9900974514023665 -1 0 0
1714 4 48.1738514765871 16.514078842730363 0.010992428444401486 0 0 0
1586 4 51.184716935778106 16.514078842730363 0.010992428444399991 -1 0 0
1589 4 52.6901496653739 13.906592867693364 0.010992428444396393 -1 0 0
1591 1 54.19558419395503 13.037430010803929 0.990097451402369 -1 0 0
1593 4 55.7010151245649 13.906592867693362 0.010992428444398353 -1 0 0
1595 1 57.20644965314603 13.037430010803929 0.99009745140237 -1 0 0
1592 1 52.69015146435924 15.644915985840928 0.9900974514023689 -1 0 0
1596 1 55.70101692355024 15.64491598584093 0.9900974514023674 -1 0 0
1590 4 54.19558239496911 16.514078842730363 0.010992428444398739 -1 0 0
1594 4 57.2064478541601 16.514078842730363 0.010992428444400378 -1 0 0
1597 4 58.7118805837559 13.906592867693362 0.010992428444398138 -1 0 0
1599 1 60.21731511233703 13.037430010803929 0.9900974514023712 -1 0 0
1601 4 61.7227460429469 13.906592867693364 0.010992428444396412 -1 0 0
1603 1 63.22818057152803 13.037430010803929 0.9900974514023683 -1 0 0
1600 1 58.711882382741244 15.64491598584093 0.9900974514023675 -1 0 0
1604 1 61.72274784193224 15.644915985840928 0.990097451402369 -1 0 0
1598 4 60.217313313351106 16.514078842730363 0.010992428444400472 -1 0 0
1602 4 63.22817877254211 16.514078842730363 0.010992428444398725 -1 0 0
1605 4 64.73361150213789 13.906592867693364 0.010992428444396367 -1 0 0
1607 1 66.23904603071902 13.037430010803929 0.9900974514023719 -1 0 0
1609 4 67.7444769613289 13.906592867693362 0.010992428444400577 -1 0 0
1611 1 69.24991148991003 13.03743001080393 0.9900974514023685 -1 0 0
1608 1 64.73361330112324 15.644915985840928 0.9900974514023684 -1 0 0
1612 1 67.74447876031424 15.644915985840928 0.9900974514023706 -1 0 0
1606 4 66.2390442317331 16.514078842730363 0.010992428444402798 -1 0 0