 # Al16 O16
  
        5440  atoms
           2  atom types
 
      0.000000000000     101.189100000000  xlo xhi
      0.000000000000     103.097000000000  ylo yhi
      0.000000000000      18.958700000000  zlo zhi
 
Masses
 
            1   26.98153860             # Al
            2   15.99900000             # O
 
Atoms # atomic
 
         1    1        4.464225000000       0.859138230100      10.790590568100
         2    2        1.488075000000       4.295711769900       7.500004843900
         3    1        1.488075000000       6.013988230100      10.790590568100
         4    2        4.464225000000       9.450561769900       7.500004843900
         5    1        2.976150000000       3.436563230100       8.168109431900
         6    1        4.464225000000       0.859138230100       8.168109431900
         7    1        0.000000000000       8.591413230100       8.168109431900
         8    1        1.488075000000       6.013988230100       8.168109431900
         9    2        0.000000000000       1.718286769900      11.458695156100
        10    2        2.976150000000       6.873136769900      11.458695156100
        11    2        4.464225000000       4.295711769900       7.500004843900
        12    2        1.488075000000       9.450561769900       7.500004843900
        13    1        2.976150000000       3.436563230100      10.790590568100
        14    1        0.000000000000       8.591413230100      10.790590568100
        15    1        0.000000000000       3.436563230100      10.790590568100
        16    1        2.976150000000       8.591413230100      10.790590568100
        17    2        1.488075000000       4.295711769900      11.458695156100
        18    2        4.464225000000       9.450561769900      11.458695156100
        19    1        1.488075000000       0.859138230100       8.168109431900
        20    1        4.464225000000       6.013988230100       8.168109431900
        21    2        2.976150000000       1.718286769900       7.500004843900
        22    1        0.000000000000       3.436563230100       8.168109431900
        23    2        0.000000000000       6.873136769900       7.500004843900
        24    2        0.000000000000       1.718286769900       7.500004843900
        25    1        2.976150000000       8.591413230100       8.168109431900
        26    2        4.464225000000       4.295711769900      11.458695156100
        27    2        2.976150000000       6.873136769900       7.500004843900
        28    2        1.488075000000       9.450561769900      11.458695156100
        29    2        2.976150000000       1.718286769900      11.458695156100
        30    2        0.000000000000       6.873136769900      11.458695156100
        31    1        1.488075000000       0.859138230100      10.790590568100
        32    1        4.464225000000       6.013988230100      10.790590568100
        33    1       10.416525000000       0.859138230100      10.790590568100
        34    2        7.440375000000       4.295711769900       7.500004843900
        35    1        7.440375000000       6.013988230100      10.790590568100
        36    2       10.416525000000       9.450561769900       7.500004843900
        37    1        8.928450000000       3.436563230100       8.168109431900
        38    1       10.416525000000       0.859138230100       8.168109431900
        39    1        5.952300000000       8.591413230100       8.168109431900
        40    1        7.440375000000       6.013988230100       8.168109431900
        41    2        5.952300000000       1.718286769900      11.458695156100
        42    2        8.928450000000       6.873136769900      11.458695156100
        43    2       10.416525000000       4.295711769900       7.500004843900
        44    2        7.440375000000       9.450561769900       7.500004843900
        45    1        8.928450000000       3.436563230100      10.790590568100
        46    1        5.952300000000       8.591413230100      10.790590568100
        47    1        5.952300000000       3.436563230100      10.790590568100
        48    1        8.928450000000       8.591413230100      10.790590568100
        49    2        7.440375000000       4.295711769900      11.458695156100
        50    2       10.416525000000       9.450561769900      11.458695156100
        51    1        7.440375000000       0.859138230100       8.168109431900
        52    1       10.416525000000       6.013988230100       8.168109431900
        53    2        8.928450000000       1.718286769900       7.500004843900
        54    1        5.952300000000       3.436563230100       8.168109431900
        55    2        5.952300000000       6.873136769900       7.500004843900
        56    2        5.952300000000       1.718286769900       7.500004843900
        57    1        8.928450000000       8.591413230100       8.168109431900
        58    2       10.416525000000       4.295711769900      11.458695156100
        59    2        8.928450000000       6.873136769900       7.500004843900
        60    2        7.440375000000       9.450561769900      11.458695156100
        61    2        8.928450000000       1.718286769900      11.458695156100
        62    2        5.952300000000       6.873136769900      11.458695156100
        63    1        7.440375000000       0.859138230100      10.790590568100
        64    1       10.416525000000       6.013988230100      10.790590568100
        65    1       16.368825000000       0.859138230100      10.790590568100
        66    2       13.392675000000       4.295711769900       7.500004843900
        67    1       13.392675000000       6.013988230100      10.790590568100
        68    2       16.368825000000       9.450561769900       7.500004843900
        69    1       14.880750000000       3.436563230100       8.168109431900
        70    1       16.368825000000       0.859138230100       8.168109431900
        71    1       11.904600000000       8.591413230100       8.168109431900
        72    1       13.392675000000       6.013988230100       8.168109431900
        73    2       11.904600000000       1.718286769900      11.458695156100
        74    2       14.880750000000       6.873136769900      11.458695156100
        75    2       16.368825000000       4.295711769900       7.500004843900
        76    2       13.392675000000       9.450561769900       7.500004843900
        77    1       14.880750000000       3.436563230100      10.790590568100
        78    1       11.904600000000       8.591413230100      10.790590568100
        79    1       11.904600000000       3.436563230100      10.790590568100
        80    1       14.880750000000       8.591413230100      10.790590568100
        81    2       13.392675000000       4.295711769900      11.458695156100
        82    2       16.368825000000       9.450561769900      11.458695156100
        83    1       13.392675000000       0.859138230100       8.168109431900
        84    1       16.368825000000       6.013988230100       8.168109431900
        85    2       14.880750000000       1.718286769900       7.500004843900
        86    1       11.904600000000       3.436563230100       8.168109431900
        87    2       11.904600000000       6.873136769900       7.500004843900
        88    2       11.904600000000       1.718286769900       7.500004843900
        89    1       14.880750000000       8.591413230100       8.168109431900
        90    2       16.368825000000       4.295711769900      11.458695156100
        91    2       14.880750000000       6.873136769900       7.500004843900
        92    2       13.392675000000       9.450561769900      11.458695156100
        93    2       14.880750000000       1.718286769900      11.458695156100
        94    2       11.904600000000       6.873136769900      11.458695156100
        95    1       13.392675000000       0.859138230100      10.790590568100
        96    1       16.368825000000       6.013988230100      10.790590568100
        97    1       22.321125000000       0.859138230100      10.790590568100
        98    2       19.344975000000       4.295711769900       7.500004843900
        99    1       19.344975000000       6.013988230100      10.790590568100
       100    2       22.321125000000       9.450561769900       7.500004843900
       101    1       20.833050000000       3.436563230100       8.168109431900
       102    1       22.321125000000       0.859138230100       8.168109431900
       103    1       17.856900000000       8.591413230100       8.168109431900
       104    1       19.344975000000       6.013988230100       8.168109431900
       105    2       17.856900000000       1.718286769900      11.458695156100
       106    2       20.833050000000       6.873136769900      11.458695156100
       107    2       22.321125000000       4.295711769900       7.500004843900
       108    2       19.344975000000       9.450561769900       7.500004843900
       109    1       20.833050000000       3.436563230100      10.790590568100
       110    1       17.856900000000       8.591413230100      10.790590568100
       111    1       17.856900000000       3.436563230100      10.790590568100
       112    1       20.833050000000       8.591413230100      10.790590568100
       113    2       19.344975000000       4.295711769900      11.458695156100
       114    2       22.321125000000       9.450561769900      11.458695156100
       115    1       19.344975000000       0.859138230100       8.168109431900
       116    1       22.321125000000       6.013988230100       8.168109431900
       117    2       20.833050000000       1.718286769900       7.500004843900
       118    1       17.856900000000       3.436563230100       8.168109431900
       119    2       17.856900000000       6.873136769900       7.500004843900
       120    2       17.856900000000       1.718286769900       7.500004843900
       121    1       20.833050000000       8.591413230100       8.168109431900
       122    2       22.321125000000       4.295711769900      11.458695156100
       123    2       20.833050000000       6.873136769900       7.500004843900
       124    2       19.344975000000       9.450561769900      11.458695156100
       125    2       20.833050000000       1.718286769900      11.458695156100
       126    2       17.856900000000       6.873136769900      11.458695156100
       127    1       19.344975000000       0.859138230100      10.790590568100
       128    1       22.321125000000       6.013988230100      10.790590568100
       129    1       28.273425000000       0.859138230100      10.790590568100
       130    2       25.297275000000       4.295711769900       7.500004843900
       131    1       25.297275000000       6.013988230100      10.790590568100
       132    2       28.273425000000       9.450561769900       7.500004843900
       133    1       26.785350000000       3.436563230100       8.168109431900
       134    1       28.273425000000       0.859138230100       8.168109431900
       135    1       23.809200000000       8.591413230100       8.168109431900
       136    1       25.297275000000       6.013988230100       8.168109431900
       137    2       23.809200000000       1.718286769900      11.458695156100
       138    2       26.785350000000       6.873136769900      11.458695156100
       139    2       28.273425000000       4.295711769900       7.500004843900
       140    2       25.297275000000       9.450561769900       7.500004843900
       141    1       26.785350000000       3.436563230100      10.790590568100
       142    1       23.809200000000       8.591413230100      10.790590568100
       143    1       23.809200000000       3.436563230100      10.790590568100
       144    1       26.785350000000       8.591413230100      10.790590568100
       145    2       25.297275000000       4.295711769900      11.458695156100
       146    2       28.273425000000       9.450561769900      11.458695156100
       147    1       25.297275000000       0.859138230100       8.168109431900
       148    1       28.273425000000       6.013988230100       8.168109431900
       149    2       26.785350000000       1.718286769900       7.500004843900
       150    1       23.809200000000       3.436563230100       8.168109431900
       151    2       23.809200000000       6.873136769900       7.500004843900
       152    2       23.809200000000       1.718286769900       7.500004843900
       153    1       26.785350000000       8.591413230100       8.168109431900
       154    2       28.273425000000       4.295711769900      11.458695156100
       155    2       26.785350000000       6.873136769900       7.500004843900
       156    2       25.297275000000       9.450561769900      11.458695156100
       157    2       26.785350000000       1.718286769900      11.458695156100
       158    2       23.809200000000       6.873136769900      11.458695156100
       159    1       25.297275000000       0.859138230100      10.790590568100
       160    1       28.273425000000       6.013988230100      10.790590568100
       161    1       34.225725000000       0.859138230100      10.790590568100
       162    2       31.249575000000       4.295711769900       7.500004843900
       163    1       31.249575000000       6.013988230100      10.790590568100
       164    2       34.225725000000       9.450561769900       7.500004843900
       165    1       32.737650000000       3.436563230100       8.168109431900
       166    1       34.225725000000       0.859138230100       8.168109431900
       167    1       29.761500000000       8.591413230100       8.168109431900
       168    1       31.249575000000       6.013988230100       8.168109431900
       169    2       29.761500000000       1.718286769900      11.458695156100
       170    2       32.737650000000       6.873136769900      11.458695156100
       171    2       34.225725000000       4.295711769900       7.500004843900
       172    2       31.249575000000       9.450561769900       7.500004843900
       173    1       32.737650000000       3.436563230100      10.790590568100
       174    1       29.761500000000       8.591413230100      10.790590568100
       175    1       29.761500000000       3.436563230100      10.790590568100
       176    1       32.737650000000       8.591413230100      10.790590568100
       177    2       31.249575000000       4.295711769900      11.458695156100
       178    2       34.225725000000       9.450561769900      11.458695156100
       179    1       31.249575000000       0.859138230100       8.168109431900
       180    1       34.225725000000       6.013988230100       8.168109431900
       181    2       32.737650000000       1.718286769900       7.500004843900
       182    1       29.761500000000       3.436563230100       8.168109431900
       183    2       29.761500000000       6.873136769900       7.500004843900
       184    2       29.761500000000       1.718286769900       7.500004843900
       185    1       32.737650000000       8.591413230100       8.168109431900
       186    2       34.225725000000       4.295711769900      11.458695156100
       187    2       32.737650000000       6.873136769900       7.500004843900
       188    2       31.249575000000       9.450561769900      11.458695156100
       189    2       32.737650000000       1.718286769900      11.458695156100
       190    2       29.761500000000       6.873136769900      11.458695156100
       191    1       31.249575000000       0.859138230100      10.790590568100
       192    1       34.225725000000       6.013988230100      10.790590568100
       193    1       40.178025000000       0.859138230100      10.790590568100
       194    2       37.201875000000       4.295711769900       7.500004843900
       195    1       37.201875000000       6.013988230100      10.790590568100
       196    2       40.178025000000       9.450561769900       7.500004843900
       197    1       38.689950000000       3.436563230100       8.168109431900
       198    1       40.178025000000       0.859138230100       8.168109431900
       199    1       35.713800000000       8.591413230100       8.168109431900
       200    1       37.201875000000       6.013988230100       8.168109431900
       201    2       35.713800000000       1.718286769900      11.458695156100
       202    2       38.689950000000       6.873136769900      11.458695156100
       203    2       40.178025000000       4.295711769900       7.500004843900
       204    2       37.201875000000       9.450561769900       7.500004843900
       205    1       38.689950000000       3.436563230100      10.790590568100
       206    1       35.713800000000       8.591413230100      10.790590568100
       207    1       35.713800000000       3.436563230100      10.790590568100
       208    1       38.689950000000       8.591413230100      10.790590568100
       209    2       37.201875000000       4.295711769900      11.458695156100
       210    2       40.178025000000       9.450561769900      11.458695156100
       211    1       37.201875000000       0.859138230100       8.168109431900
       212    1       40.178025000000       6.013988230100       8.168109431900
       213    2       38.689950000000       1.718286769900       7.500004843900
       214    1       35.713800000000       3.436563230100       8.168109431900
       215    2       35.713800000000       6.873136769900       7.500004843900
       216    2       35.713800000000       1.718286769900       7.500004843900
       217    1       38.689950000000       8.591413230100       8.168109431900
       218    2       40.178025000000       4.295711769900      11.458695156100
       219    2       38.689950000000       6.873136769900       7.500004843900
       220    2       37.201875000000       9.450561769900      11.458695156100
       221    2       38.689950000000       1.718286769900      11.458695156100
       222    2       35.713800000000       6.873136769900      11.458695156100
       223    1       37.201875000000       0.859138230100      10.790590568100
       224    1       40.178025000000       6.013988230100      10.790590568100
       225    1       46.130325000000       0.859138230100      10.790590568100
       226    2       43.154175000000       4.295711769900       7.500004843900
       227    1       43.154175000000       6.013988230100      10.790590568100
       228    2       46.130325000000       9.450561769900       7.500004843900
       229    1       44.642250000000       3.436563230100       8.168109431900
       230    1       46.130325000000       0.859138230100       8.168109431900
       231    1       41.666100000000       8.591413230100       8.168109431900
       232    1       43.154175000000       6.013988230100       8.168109431900
       233    2       41.666100000000       1.718286769900      11.458695156100
       234    2       44.642250000000       6.873136769900      11.458695156100
       235    2       46.130325000000       4.295711769900       7.500004843900
       236    2       43.154175000000       9.450561769900       7.500004843900
       237    1       44.642250000000       3.436563230100      10.790590568100
       238    1       41.666100000000       8.591413230100      10.790590568100
       239    1       41.666100000000       3.436563230100      10.790590568100
       240    1       44.642250000000       8.591413230100      10.790590568100
       241    2       43.154175000000       4.295711769900      11.458695156100
       242    2       46.130325000000       9.450561769900      11.458695156100
       243    1       43.154175000000       0.859138230100       8.168109431900
       244    1       46.130325000000       6.013988230100       8.168109431900
       245    2       44.642250000000       1.718286769900       7.500004843900
       246    1       41.666100000000       3.436563230100       8.168109431900
       247    2       41.666100000000       6.873136769900       7.500004843900
       248    2       41.666100000000       1.718286769900       7.500004843900
       249    1       44.642250000000       8.591413230100       8.168109431900
       250    2       46.130325000000       4.295711769900      11.458695156100
       251    2       44.642250000000       6.873136769900       7.500004843900
       252    2       43.154175000000       9.450561769900      11.458695156100
       253    2       44.642250000000       1.718286769900      11.458695156100
       254    2       41.666100000000       6.873136769900      11.458695156100
       255    1       43.154175000000       0.859138230100      10.790590568100
       256    1       46.130325000000       6.013988230100      10.790590568100
       257    1       52.082625000000       0.859138230100      10.790590568100
       258    2       49.106475000000       4.295711769900       7.500004843900
       259    1       49.106475000000       6.013988230100      10.790590568100
       260    2       52.082625000000       9.450561769900       7.500004843900
       261    1       50.594550000000       3.436563230100       8.168109431900
       262    1       52.082625000000       0.859138230100       8.168109431900
       263    1       47.618400000000       8.591413230100       8.168109431900
       264    1       49.106475000000       6.013988230100       8.168109431900
       265    2       47.618400000000       1.718286769900      11.458695156100
       266    2       50.594550000000       6.873136769900      11.458695156100
       267    2       52.082625000000       4.295711769900       7.500004843900
       268    2       49.106475000000       9.450561769900       7.500004843900
       269    1       50.594550000000       3.436563230100      10.790590568100
       270    1       47.618400000000       8.591413230100      10.790590568100
       271    1       47.618400000000       3.436563230100      10.790590568100
       272    1       50.594550000000       8.591413230100      10.790590568100
       273    2       49.106475000000       4.295711769900      11.458695156100
       274    2       52.082625000000       9.450561769900      11.458695156100
       275    1       49.106475000000       0.859138230100       8.168109431900
       276    1       52.082625000000       6.013988230100       8.168109431900
       277    2       50.594550000000       1.718286769900       7.500004843900
       278    1       47.618400000000       3.436563230100       8.168109431900
       279    2       47.618400000000       6.873136769900       7.500004843900
       280    2       47.618400000000       1.718286769900       7.500004843900
       281    1       50.594550000000       8.591413230100       8.168109431900
       282    2       52.082625000000       4.295711769900      11.458695156100
       283    2       50.594550000000       6.873136769900       7.500004843900
       284    2       49.106475000000       9.450561769900      11.458695156100
       285    2       50.594550000000       1.718286769900      11.458695156100
       286    2       47.618400000000       6.873136769900      11.458695156100
       287    1       49.106475000000       0.859138230100      10.790590568100
       288    1       52.082625000000       6.013988230100      10.790590568100
       289    1       58.034925000000       0.859138230100      10.790590568100
       290    2       55.058775000000       4.295711769900       7.500004843900
       291    1       55.058775000000       6.013988230100      10.790590568100
       292    2       58.034925000000       9.450561769900       7.500004843900
       293    1       56.546850000000       3.436563230100       8.168109431900
       294    1       58.034925000000       0.859138230100       8.168109431900
       295    1       53.570700000000       8.591413230100       8.168109431900
       296    1       55.058775000000       6.013988230100       8.168109431900
       297    2       53.570700000000       1.718286769900      11.458695156100
       298    2       56.546850000000       6.873136769900      11.458695156100
       299    2       58.034925000000       4.295711769900       7.500004843900
       300    2       55.058775000000       9.450561769900       7.500004843900
       301    1       56.546850000000       3.436563230100      10.790590568100
       302    1       53.570700000000       8.591413230100      10.790590568100
       303    1       53.570700000000       3.436563230100      10.790590568100
       304    1       56.546850000000       8.591413230100      10.790590568100
       305    2       55.058775000000       4.295711769900      11.458695156100
       306    2       58.034925000000       9.450561769900      11.458695156100
       307    1       55.058775000000       0.859138230100       8.168109431900
       308    1       58.034925000000       6.013988230100       8.168109431900
       309    2       56.546850000000       1.718286769900       7.500004843900
       310    1       53.570700000000       3.436563230100       8.168109431900
       311    2       53.570700000000       6.873136769900       7.500004843900
       312    2       53.570700000000       1.718286769900       7.500004843900
       313    1       56.546850000000       8.591413230100       8.168109431900
       314    2       58.034925000000       4.295711769900      11.458695156100
       315    2       56.546850000000       6.873136769900       7.500004843900
       316    2       55.058775000000       9.450561769900      11.458695156100
       317    2       56.546850000000       1.718286769900      11.458695156100
       318    2       53.570700000000       6.873136769900      11.458695156100
       319    1       55.058775000000       0.859138230100      10.790590568100
       320    1       58.034925000000       6.013988230100      10.790590568100
       321    1       63.987225000000       0.859138230100      10.790590568100
       322    2       61.011075000000       4.295711769900       7.500004843900
       323    1       61.011075000000       6.013988230100      10.790590568100
       324    2       63.987225000000       9.450561769900       7.500004843900
       325    1       62.499150000000       3.436563230100       8.168109431900
       326    1       63.987225000000       0.859138230100       8.168109431900
       327    1       59.523000000000       8.591413230100       8.168109431900
       328    1       61.011075000000       6.013988230100       8.168109431900
       329    2       59.523000000000       1.718286769900      11.458695156100
       330    2       62.499150000000       6.873136769900      11.458695156100
       331    2       63.987225000000       4.295711769900       7.500004843900
       332    2       61.011075000000       9.450561769900       7.500004843900
       333    1       62.499150000000       3.436563230100      10.790590568100
       334    1       59.523000000000       8.591413230100      10.790590568100
       335    1       59.523000000000       3.436563230100      10.790590568100
       336    1       62.499150000000       8.591413230100      10.790590568100
       337    2       61.011075000000       4.295711769900      11.458695156100
       338    2       63.987225000000       9.450561769900      11.458695156100
       339    1       61.011075000000       0.859138230100       8.168109431900
       340    1       63.987225000000       6.013988230100       8.168109431900
       341    2       62.499150000000       1.718286769900       7.500004843900
       342    1       59.523000000000       3.436563230100       8.168109431900
       343    2       59.523000000000       6.873136769900       7.500004843900
       344    2       59.523000000000       1.718286769900       7.500004843900
       345    1       62.499150000000       8.591413230100       8.168109431900
       346    2       63.987225000000       4.295711769900      11.458695156100
       347    2       62.499150000000       6.873136769900       7.500004843900
       348    2       61.011075000000       9.450561769900      11.458695156100
       349    2       62.499150000000       1.718286769900      11.458695156100
       350    2       59.523000000000       6.873136769900      11.458695156100
       351    1       61.011075000000       0.859138230100      10.790590568100
       352    1       63.987225000000       6.013988230100      10.790590568100
       353    1       69.939525000000       0.859138230100      10.790590568100
       354    2       66.963375000000       4.295711769900       7.500004843900
       355    1       66.963375000000       6.013988230100      10.790590568100
       356    2       69.939525000000       9.450561769900       7.500004843900
       357    1       68.451450000000       3.436563230100       8.168109431900
       358    1       69.939525000000       0.859138230100       8.168109431900
       359    1       65.475300000000       8.591413230100       8.168109431900
       360    1       66.963375000000       6.013988230100       8.168109431900
       361    2       65.475300000000       1.718286769900      11.458695156100
       362    2       68.451450000000       6.873136769900      11.458695156100
       363    2       69.939525000000       4.295711769900       7.500004843900
       364    2       66.963375000000       9.450561769900       7.500004843900
       365    1       68.451450000000       3.436563230100      10.790590568100
       366    1       65.475300000000       8.591413230100      10.790590568100
       367    1       65.475300000000       3.436563230100      10.790590568100
       368    1       68.451450000000       8.591413230100      10.790590568100
       369    2       66.963375000000       4.295711769900      11.458695156100
       370    2       69.939525000000       9.450561769900      11.458695156100