 # Al16 Te16
  
        2688  atoms
           2  atom types
 
      0.000000000000      98.767200000000  xlo xhi
      0.000000000000      99.790600000000  ylo yhi
      0.000000000000      20.131300000000  zlo zhi
 
Masses
 
            1   26.98153860             # Al
            2   127.60000000            # Te
 
Atoms # atomic
 
         1    1        2.057650000000       1.187978581400       8.778736516200
         2    1        6.172950000000       8.315878581400       8.778736516200
         3    2        2.057650000000       5.939921418600       7.499150825600
         4    1        2.057650000000       1.187978581400      11.352563483800
         5    2        6.172950000000      13.067821418600       7.499150825600
         6    1        6.172950000000       8.315878581400      11.352563483800
         7    1        4.115300000000       4.751928581400       8.778736516200
         8    1        6.172950000000       1.187978581400       8.778736516200
         9    1        8.230600000000      11.879828581400       8.778736516200
        10    1        2.057650000000       8.315878581400       8.778736516200
        11    1        8.230600000000       4.751928581400      11.352563483800
        12    1        4.115300000000      11.879828581400      11.352563483800
        13    2        4.115300000000       2.375971418600      12.632149174400
        14    2        8.230600000000       9.503871418600      12.632149174400
        15    2        6.172950000000       5.939921418600      12.632149174400
        16    2        2.057650000000      13.067821418600      12.632149174400
        17    1        4.115300000000       4.751928581400      11.352563483800
        18    1        8.230600000000      11.879828581400      11.352563483800
        19    2        8.230600000000       2.375971418600      12.632149174400
        20    2        4.115300000000       9.503871418600      12.632149174400
        21    1        6.172950000000       1.187978581400      11.352563483800
        22    1        2.057650000000       8.315878581400      11.352563483800
        23    2        0.000000000000       2.375971418600       7.499150825600
        24    2        4.115300000000       9.503871418600       7.499150825600
        25    2        4.115300000000       2.375971418600       7.499150825600
        26    2        8.230600000000       9.503871418600       7.499150825600
        27    2        2.057650000000       5.939921418600      12.632149174400
        28    2        6.172950000000      13.067821418600      12.632149174400
        29    2        6.172950000000       5.939921418600       7.499150825600
        30    2        2.057650000000      13.067821418600       7.499150825600
        31    1        8.230600000000       4.751928581400       8.778736516200
        32    1        4.115300000000      11.879828581400       8.778736516200
        33    1       10.288250000000       1.187978581400       8.778736516200
        34    1       14.403550000000       8.315878581400       8.778736516200
        35    2       10.288250000000       5.939921418600       7.499150825600
        36    1       10.288250000000       1.187978581400      11.352563483800
        37    2       14.403550000000      13.067821418600       7.499150825600
        38    1       14.403550000000       8.315878581400      11.352563483800
        39    1       12.345900000000       4.751928581400       8.778736516200
        40    1       14.403550000000       1.187978581400       8.778736516200
        41    1       16.461200000000      11.879828581400       8.778736516200
        42    1       10.288250000000       8.315878581400       8.778736516200
        43    1       16.461200000000       4.751928581400      11.352563483800
        44    1       12.345900000000      11.879828581400      11.352563483800
        45    2       12.345900000000       2.375971418600      12.632149174400
        46    2       16.461200000000       9.503871418600      12.632149174400
        47    2       14.403550000000       5.939921418600      12.632149174400
        48    2       10.288250000000      13.067821418600      12.632149174400
        49    1       12.345900000000       4.751928581400      11.352563483800
        50    1       16.461200000000      11.879828581400      11.352563483800
        51    2       16.461200000000       2.375971418600      12.632149174400
        52    2       12.345900000000       9.503871418600      12.632149174400
        53    1       14.403550000000       1.187978581400      11.352563483800
        54    1       10.288250000000       8.315878581400      11.352563483800
        55    2        8.230600000000       2.375971418600       7.499150825600
        56    2       12.345900000000       9.503871418600       7.499150825600
        57    2       12.345900000000       2.375971418600       7.499150825600
        58    2       16.461200000000       9.503871418600       7.499150825600
        59    2       10.288250000000       5.939921418600      12.632149174400
        60    2       14.403550000000      13.067821418600      12.632149174400
        61    2       14.403550000000       5.939921418600       7.499150825600
        62    2       10.288250000000      13.067821418600       7.499150825600
        63    1       16.461200000000       4.751928581400       8.778736516200
        64    1       12.345900000000      11.879828581400       8.778736516200
        65    1       18.518850000000       1.187978581400       8.778736516200
        66    1       22.634150000000       8.315878581400       8.778736516200
        67    2       18.518850000000       5.939921418600       7.499150825600
        68    1       18.518850000000       1.187978581400      11.352563483800
        69    2       22.634150000000      13.067821418600       7.499150825600
        70    1       22.634150000000       8.315878581400      11.352563483800
        71    1       20.576500000000       4.751928581400       8.778736516200
        72    1       22.634150000000       1.187978581400       8.778736516200
        73    1       24.691800000000      11.879828581400       8.778736516200
        74    1       18.518850000000       8.315878581400       8.778736516200
        75    1       24.691800000000       4.751928581400      11.352563483800
        76    1       20.576500000000      11.879828581400      11.352563483800
        77    2       20.576500000000       2.375971418600      12.632149174400
        78    2       24.691800000000       9.503871418600      12.632149174400
        79    2       22.634150000000       5.939921418600      12.632149174400
        80    2       18.518850000000      13.067821418600      12.632149174400
        81    1       20.576500000000       4.751928581400      11.352563483800
        82    1       24.691800000000      11.879828581400      11.352563483800
        83    2       24.691800000000       2.375971418600      12.632149174400
        84    2       20.576500000000       9.503871418600      12.632149174400
        85    1       22.634150000000       1.187978581400      11.352563483800
        86    1       18.518850000000       8.315878581400      11.352563483800
        87    2       16.461200000000       2.375971418600       7.499150825600
        88    2       20.576500000000       9.503871418600       7.499150825600
        89    2       20.576500000000       2.375971418600       7.499150825600
        90    2       24.691800000000       9.503871418600       7.499150825600
        91    2       18.518850000000       5.939921418600      12.632149174400
        92    2       22.634150000000      13.067821418600      12.632149174400
        93    2       22.634150000000       5.939921418600       7.499150825600
        94    2       18.518850000000      13.067821418600       7.499150825600
        95    1       24.691800000000       4.751928581400       8.778736516200
        96    1       20.576500000000      11.879828581400       8.778736516200
        97    1       26.749450000000       1.187978581400       8.778736516200
        98    1       30.864750000000       8.315878581400       8.778736516200
        99    2       26.749450000000       5.939921418600       7.499150825600
       100    1       26.749450000000       1.187978581400      11.352563483800
       101    2       30.864750000000      13.067821418600       7.499150825600
       102    1       30.864750000000       8.315878581400      11.352563483800
       103    1       28.807100000000       4.751928581400       8.778736516200
       104    1       30.864750000000       1.187978581400       8.778736516200
       105    1       32.922400000000      11.879828581400       8.778736516200
       106    1       26.749450000000       8.315878581400       8.778736516200
       107    1       32.922400000000       4.751928581400      11.352563483800
       108    1       28.807100000000      11.879828581400      11.352563483800
       109    2       28.807100000000       2.375971418600      12.632149174400
       110    2       32.922400000000       9.503871418600      12.632149174400
       111    2       30.864750000000       5.939921418600      12.632149174400
       112    2       26.749450000000      13.067821418600      12.632149174400
       113    1       28.807100000000       4.751928581400      11.352563483800
       114    1       32.922400000000      11.879828581400      11.352563483800
       115    2       32.922400000000       2.375971418600      12.632149174400
       116    2       28.807100000000       9.503871418600      12.632149174400
       117    1       30.864750000000       1.187978581400      11.352563483800
       118    1       26.749450000000       8.315878581400      11.352563483800
       119    2       24.691800000000       2.375971418600       7.499150825600
       120    2       28.807100000000       9.503871418600       7.499150825600
       121    2       28.807100000000       2.375971418600       7.499150825600
       122    2       32.922400000000       9.503871418600       7.499150825600
       123    2       26.749450000000       5.939921418600      12.632149174400
       124    2       30.864750000000      13.067821418600      12.632149174400
       125    2       30.864750000000       5.939921418600       7.499150825600
       126    2       26.749450000000      13.067821418600       7.499150825600
       127    1       32.922400000000       4.751928581400       8.778736516200
       128    1       28.807100000000      11.879828581400       8.778736516200
       129    1       34.980050000000       1.187978581400       8.778736516200
       130    1       39.095350000000       8.315878581400       8.778736516200
       131    2       34.980050000000       5.939921418600       7.499150825600
       132    1       34.980050000000       1.187978581400      11.352563483800
       133    2       39.095350000000      13.067821418600       7.499150825600
       134    1       39.095350000000       8.315878581400      11.352563483800
       135    1       37.037700000000       4.751928581400       8.778736516200
       136    1       39.095350000000       1.187978581400       8.778736516200
       137    1       41.153000000000      11.879828581400       8.778736516200
       138    1       34.980050000000       8.315878581400       8.778736516200
       139    1       41.153000000000       4.751928581400      11.352563483800
       140    1       37.037700000000      11.879828581400      11.352563483800
       141    2       37.037700000000       2.375971418600      12.632149174400
       142    2       41.153000000000       9.503871418600      12.632149174400
       143    2       39.095350000000       5.939921418600      12.632149174400
       144    2       34.980050000000      13.067821418600      12.632149174400
       145    1       37.037700000000       4.751928581400      11.352563483800
       146    1       41.153000000000      11.879828581400      11.352563483800
       147    2       41.153000000000       2.375971418600      12.632149174400
       148    2       37.037700000000       9.503871418600      12.632149174400
       149    1       39.095350000000       1.187978581400      11.352563483800
       150    1       34.980050000000       8.315878581400      11.352563483800
       151    2       32.922400000000       2.375971418600       7.499150825600
       152    2       37.037700000000       9.503871418600       7.499150825600
       153    2       37.037700000000       2.375971418600       7.499150825600
       154    2       41.153000000000       9.503871418600       7.499150825600
       155    2       34.980050000000       5.939921418600      12.632149174400
       156    2       39.095350000000      13.067821418600      12.632149174400
       157    2       39.095350000000       5.939921418600       7.499150825600
       158    2       34.980050000000      13.067821418600       7.499150825600
       159    1       41.153000000000       4.751928581400       8.778736516200
       160    1       37.037700000000      11.879828581400       8.778736516200
       161    1       43.210650000000       1.187978581400       8.778736516200
       162    1       47.325950000000       8.315878581400       8.778736516200
       163    2       43.210650000000       5.939921418600       7.499150825600
       164    1       43.210650000000       1.187978581400      11.352563483800
       165    2       47.325950000000      13.067821418600       7.499150825600
       166    1       47.325950000000       8.315878581400      11.352563483800
       167    1       45.268300000000       4.751928581400       8.778736516200
       168    1       47.325950000000       1.187978581400       8.778736516200
       169    1       49.383600000000      11.879828581400       8.778736516200
       170    1       43.210650000000       8.315878581400       8.778736516200
       171    1       49.383600000000       4.751928581400      11.352563483800
       172    1       45.268300000000      11.879828581400      11.352563483800
       173    2       45.268300000000       2.375971418600      12.632149174400
       174    2       49.383600000000       9.503871418600      12.632149174400
       175    2       47.325950000000       5.939921418600      12.632149174400
       176    2       43.210650000000      13.067821418600      12.632149174400
       177    1       45.268300000000       4.751928581400      11.352563483800
       178    1       49.383600000000      11.879828581400      11.352563483800
       179    2       49.383600000000       2.375971418600      12.632149174400
       180    2       45.268300000000       9.503871418600      12.632149174400
       181    1       47.325950000000       1.187978581400      11.352563483800
       182    1       43.210650000000       8.315878581400      11.352563483800
       183    2       41.153000000000       2.375971418600       7.499150825600
       184    2       45.268300000000       9.503871418600       7.499150825600
       185    2       45.268300000000       2.375971418600       7.499150825600
       186    2       49.383600000000       9.503871418600       7.499150825600
       187    2       43.210650000000       5.939921418600      12.632149174400
       188    2       47.325950000000      13.067821418600      12.632149174400
       189    2       47.325950000000       5.939921418600       7.499150825600
       190    2       43.210650000000      13.067821418600       7.499150825600
       191    1       49.383600000000       4.751928581400       8.778736516200
       192    1       45.268300000000      11.879828581400       8.778736516200
       193    1       51.441250000000       1.187978581400       8.778736516200
       194    1       55.556550000000       8.315878581400       8.778736516200
       195    2       51.441250000000       5.939921418600       7.499150825600
       196    1       51.441250000000       1.187978581400      11.352563483800
       197    2       55.556550000000      13.067821418600       7.499150825600
       198    1       55.556550000000       8.315878581400      11.352563483800
       199    1       53.498900000000       4.751928581400       8.778736516200
       200    1       55.556550000000       1.187978581400       8.778736516200
       201    1       57.614200000000      11.879828581400       8.778736516200
       202    1       51.441250000000       8.315878581400       8.778736516200
       203    1       57.614200000000       4.751928581400      11.352563483800
       204    1       53.498900000000      11.879828581400      11.352563483800
       205    2       53.498900000000       2.375971418600      12.632149174400
       206    2       57.614200000000       9.503871418600      12.632149174400
       207    2       55.556550000000       5.939921418600      12.632149174400
       208    2       51.441250000000      13.067821418600      12.632149174400
       209    1       53.498900000000       4.751928581400      11.352563483800
       210    1       57.614200000000      11.879828581400      11.352563483800
       211    2       57.614200000000       2.375971418600      12.632149174400
       212    2       53.498900000000       9.503871418600      12.632149174400
       213    1       55.556550000000       1.187978581400      11.352563483800
       214    1       51.441250000000       8.315878581400      11.352563483800
       215    2       49.383600000000       2.375971418600       7.499150825600
       216    2       53.498900000000       9.503871418600       7.499150825600
       217    2       53.498900000000       2.375971418600       7.499150825600
       218    2       57.614200000000       9.503871418600       7.499150825600
       219    2       51.441250000000       5.939921418600      12.632149174400
       220    2       55.556550000000      13.067821418600      12.632149174400
       221    2       55.556550000000       5.939921418600       7.499150825600
       222    2       51.441250000000      13.067821418600       7.499150825600
       223    1       57.614200000000       4.751928581400       8.778736516200
       224    1       53.498900000000      11.879828581400       8.778736516200
       225    1       59.671850000000       1.187978581400       8.778736516200
       226    1       63.787150000000       8.315878581400       8.778736516200
       227    2       59.671850000000       5.939921418600       7.499150825600
       228    1       59.671850000000       1.187978581400      11.352563483800
       229    2       63.787150000000      13.067821418600       7.499150825600
       230    1       63.787150000000       8.315878581400      11.352563483800
       231    1       61.729500000000       4.751928581400       8.778736516200
       232    1       63.787150000000       1.187978581400       8.778736516200
       233    1       65.844800000000      11.879828581400       8.778736516200
       234    1       59.671850000000       8.315878581400       8.778736516200
       235    1       65.844800000000       4.751928581400      11.352563483800
       236    1       61.729500000000      11.879828581400      11.352563483800
       237    2       61.729500000000       2.375971418600      12.632149174400
       238    2       65.844800000000       9.503871418600      12.632149174400
       239    2       63.787150000000       5.939921418600      12.632149174400
       240    2       59.671850000000      13.067821418600      12.632149174400
       241    1       61.729500000000       4.751928581400      11.352563483800
       242    1       65.844800000000      11.879828581400      11.352563483800
       243    2       65.844800000000       2.375971418600      12.632149174400
       244    2       61.729500000000       9.503871418600      12.632149174400
       245    1       63.787150000000       1.187978581400      11.352563483800
       246    1       59.671850000000       8.315878581400      11.352563483800
       247    2       57.614200000000       2.375971418600       7.499150825600
       248    2       61.729500000000       9.503871418600       7.499150825600
       249    2       61.729500000000       2.375971418600       7.499150825600
       250    2       65.844800000000       9.503871418600       7.499150825600
       251    2       59.671850000000       5.939921418600      12.632149174400
       252    2       63.787150000000      13.067821418600      12.632149174400
       253    2       63.787150000000       5.939921418600       7.499150825600
       254    2       59.671850000000      13.067821418600       7.499150825600
       255    1       65.844800000000       4.751928581400       8.778736516200
       256    1       61.729500000000      11.879828581400       8.778736516200
       257    1       67.902450000000       1.187978581400       8.778736516200
       258    1       72.017750000000       8.315878581400       8.778736516200
       259    2       67.902450000000       5.939921418600       7.499150825600
       260    1       67.902450000000       1.187978581400      11.352563483800
       261    2       72.017750000000      13.067821418600       7.499150825600
       262    1       72.017750000000       8.315878581400      11.352563483800
       263    1       69.960100000000       4.751928581400       8.778736516200
       264    1       72.017750000000       1.187978581400       8.778736516200
       265    1       74.075400000000      11.879828581400       8.778736516200
       266    1       67.902450000000       8.315878581400       8.778736516200
       267    1       74.075400000000       4.751928581400      11.352563483800
       268    1       69.960100000000      11.879828581400      11.352563483800
       269    2       69.960100000000       2.375971418600      12.632149174400
       270    2       74.075400000000       9.503871418600      12.632149174400
       271    2       72.017750000000       5.939921418600      12.632149174400
       272    2       67.902450000000      13.067821418600      12.632149174400
       273    1       69.960100000000       4.751928581400      11.352563483800
       274    1       74.075400000000      11.879828581400      11.352563483800
       275    2       74.075400000000       2.375971418600      12.632149174400
       276    2       69.960100000000       9.503871418600      12.632149174400
       277    1       72.017750000000       1.187978581400      11.352563483800
       278    1       67.902450000000       8.315878581400      11.352563483800
       279    2       65.844800000000       2.375971418600       7.499150825600
       280    2       69.960100000000       9.503871418600       7.499150825600
       281    2       69.960100000000       2.375971418600       7.499150825600
       282    2       74.075400000000       9.503871418600       7.499150825600
       283    2       67.902450000000       5.939921418600      12.632149174400
       284    2       72.017750000000      13.067821418600      12.632149174400
       285    2       72.017750000000       5.939921418600       7.499150825600
       286    2       67.902450000000      13.067821418600       7.499150825600
       287    1       74.075400000000       4.751928581400       8.778736516200
       288    1       69.960100000000      11.879828581400       8.778736516200
       289    1       76.133050000000       1.187978581400       8.778736516200
       290    1       80.248350000000       8.315878581400       8.778736516200
       291    2       76.133050000000       5.939921418600       7.499150825600
       292    1       76.133050000000       1.187978581400      11.352563483800
       293    2       80.248350000000      13.067821418600       7.499150825600
       294    1       80.248350000000       8.315878581400      11.352563483800
       295    1       78.190700000000       4.751928581400       8.778736516200
       296    1       80.248350000000       1.187978581400       8.778736516200
       297    1       82.306000000000      11.879828581400       8.778736516200
       298    1       76.133050000000       8.315878581400       8.778736516200
       299    1       82.306000000000       4.751928581400      11.352563483800
       300    1       78.190700000000      11.879828581400      11.352563483800
       301    2       78.190700000000       2.375971418600      12.632149174400
       302    2       82.306000000000       9.503871418600      12.632149174400
       303    2       80.248350000000       5.939921418600      12.632149174400
       304    2       76.133050000000      13.067821418600      12.632149174400
       305    1       78.190700000000       4.751928581400      11.352563483800
       306    1       82.306000000000      11.879828581400      11.352563483800
       307    2       82.306000000000       2.375971418600      12.632149174400
       308    2       78.190700000000       9.503871418600      12.632149174400
       309    1       80.248350000000       1.187978581400      11.352563483800
       310    1       76.133050000000       8.315878581400      11.352563483800
       311    2       74.075400000000       2.375971418600       7.499150825600
       312    2       78.190700000000       9.503871418600       7.499150825600
       313    2       78.190700000000       2.375971418600       7.499150825600
       314    2       82.306000000000       9.503871418600       7.499150825600
       315    2       76.133050000000       5.939921418600      12.632149174400
       316    2       80.248350000000      13.067821418600      12.632149174400
       317    2       80.248350000000       5.939921418600       7.499150825600
       318    2       76.133050000000      13.067821418600       7.499150825600
       319    1       82.306000000000       4.751928581400       8.778736516200
       320    1       78.190700000000      11.879828581400       8.778736516200
       321    1       84.363650000000       1.187978581400       8.778736516200
       322    1       88.478950000000       8.315878581400       8.778736516200
       323    2       84.363650000000       5.939921418600       7.499150825600
       324    1       84.363650000000       1.187978581400      11.352563483800
       325    2       88.478950000000      13.067821418600       7.499150825600
       326    1       88.478950000000       8.315878581400      11.352563483800
       327    1       86.421300000000       4.751928581400       8.778736516200
       328    1       88.478950000000       1.187978581400       8.778736516200
       329    1       90.536600000000      11.879828581400       8.778736516200
       330    1       84.363650000000       8.315878581400       8.778736516200
       331    1       90.536600000000       4.751928581400      11.352563483800
       332    1       86.421300000000      11.879828581400      11.352563483800
       333    2       86.421300000000       2.375971418600      12.632149174400
       334    2       90.536600000000       9.503871418600      12.632149174400
       335    2       88.478950000000       5.939921418600      12.632149174400
       336    2       84.363650000000      13.067821418600      12.632149174400
       337    1       86.421300000000       4.751928581400      11.352563483800
       338    1       90.536600000000      11.879828581400      11.352563483800
       339    2       90.536600000000       2.375971418600      12.632149174400
       340    2       86.421300000000       9.503871418600      12.632149174400
       341    1       88.478950000000       1.187978581400      11.352563483800
       342    1       84.363650000000       8.315878581400      11.352563483800
       343    2       82.306000000000       2.375971418600       7.499150825600
       344    2       86.421300000000       9.503871418600       7.499150825600
       345    2       86.421300000000       2.375971418600       7.499150825600
       346    2       90.536600000000       9.503871418600       7.499150825600
       347    2       84.363650000000       5.939921418600      12.632149174400
       348    2       88.478950000000      13.067821418600      12.632149174400
       349    2       88.478950000000       5.939921418600       7.499150825600
       350    2       84.363650000000      13.067821418600       7.499150825600
       351    1       90.536600000000       4.751928581400       8.778736516200
       352    1       86.421300000000      11.879828581400       8.778736516200
       353    1       92.594250000000       1.187978581400       8.778736516200
       354    1       96.709550000000       8.315878581400       8.778736516200
       355    2       92.594250000000       5.939921418600       7.499150825600
       356    1       92.594250000000       1.187978581400      11.352563483800
       357    2       96.709550000000      13.067821418600       7.499150825600
       358    1       96.709550000000       8.315878581400      11.352563483800
       359    1       94.651900000000       4.751928581400       8.778736516200
       360    1       96.709550000000       1.187978581400       8.778736516200
       361    1       98.767200000000      11.879828581400       8.778736516200
       362    1       92.594250000000       8.315878581400       8.778736516200
       363    1       98.767200000000       4.751928581400      11.352563483800
       364    1       94.651900000000      11.879828581400      11.352563483800
       365    2       94.651900000000       2.375971418600      12.632149174400
       366    2       98.767200000000       9.503871418600      12.632149174400
       367    2       96.709550000000       5.939921418600      12.632149174400
       368    2       92.594250000000      13.067821418600      12.632149174400
       369    1       94.651900000000       4.751928581400      11.352563483800
       370    1       98.767200000000      11.879828581400      11.352563483800