 # Sb16
  
        1344  atoms
           1  atom types
 
      0.000000000000      98.636400000000  xlo xhi
      0.000000000000      99.782200000000  ylo yhi
      0.000000000000      16.746400000000  zlo zhi
 
Masses
 
            1   121.76000000            # Sb
 
Atoms # atomic
 
         1    1        6.231239494200       6.055895754800       9.190926712000
         2    1        2.121389494200      13.183195754800       9.190926712000
         3    1        0.066587789700       4.865793455400       7.555456541600
         4    1        4.176437789700      11.993093455400       7.555456541600
         5    1        2.121512789700       1.302143455400       7.555456541600
         6    1        6.231362789700       8.429443455400       7.555456541600
         7    1        4.176437789700       4.865793455400       7.555456541600
         8    1        0.066587789700      11.993093455400       7.555456541600
         9    1        0.066464494200       2.492245754800       9.190926712000
        10    1        6.231362789700       1.302143455400       7.555456541600
        11    1        2.121512789700       8.429443455400       7.555456541600
        12    1        4.176314494200       9.619545754800       9.190926712000
        13    1        4.176314494200       2.492245754800       9.190926712000
        14    1        0.066464494200       9.619545754800       9.190926712000
        15    1        2.121389494200       6.055895754800       9.190926712000
        16    1        6.231239494200      13.183195754800       9.190926712000
        17    1       14.450939494200       6.055895754800       9.190926712000
        18    1       10.341089494200      13.183195754800       9.190926712000
        19    1        8.286287789700       4.865793455400       7.555456541600
        20    1       12.396137789700      11.993093455400       7.555456541600
        21    1       10.341212789700       1.302143455400       7.555456541600
        22    1       14.451062789700       8.429443455400       7.555456541600
        23    1       12.396137789700       4.865793455400       7.555456541600
        24    1        8.286287789700      11.993093455400       7.555456541600
        25    1        8.286164494200       2.492245754800       9.190926712000
        26    1       14.451062789700       1.302143455400       7.555456541600
        27    1       10.341212789700       8.429443455400       7.555456541600
        28    1       12.396014494200       9.619545754800       9.190926712000
        29    1       12.396014494200       2.492245754800       9.190926712000
        30    1        8.286164494200       9.619545754800       9.190926712000
        31    1       10.341089494200       6.055895754800       9.190926712000
        32    1       14.450939494200      13.183195754800       9.190926712000
        33    1       22.670639494200       6.055895754800       9.190926712000
        34    1       18.560789494200      13.183195754800       9.190926712000
        35    1       16.505987789700       4.865793455400       7.555456541600
        36    1       20.615837789700      11.993093455400       7.555456541600
        37    1       18.560912789700       1.302143455400       7.555456541600
        38    1       22.670762789700       8.429443455400       7.555456541600
        39    1       20.615837789700       4.865793455400       7.555456541600
        40    1       16.505987789700      11.993093455400       7.555456541600
        41    1       16.505864494200       2.492245754800       9.190926712000
        42    1       22.670762789700       1.302143455400       7.555456541600
        43    1       18.560912789700       8.429443455400       7.555456541600
        44    1       20.615714494200       9.619545754800       9.190926712000
        45    1       20.615714494200       2.492245754800       9.190926712000
        46    1       16.505864494200       9.619545754800       9.190926712000
        47    1       18.560789494200       6.055895754800       9.190926712000
        48    1       22.670639494200      13.183195754800       9.190926712000
        49    1       30.890339494200       6.055895754800       9.190926712000
        50    1       26.780489494200      13.183195754800       9.190926712000
        51    1       24.725687789700       4.865793455400       7.555456541600
        52    1       28.835537789700      11.993093455400       7.555456541600
        53    1       26.780612789700       1.302143455400       7.555456541600
        54    1       30.890462789700       8.429443455400       7.555456541600
        55    1       28.835537789700       4.865793455400       7.555456541600
        56    1       24.725687789700      11.993093455400       7.555456541600
        57    1       24.725564494200       2.492245754800       9.190926712000
        58    1       30.890462789700       1.302143455400       7.555456541600
        59    1       26.780612789700       8.429443455400       7.555456541600
        60    1       28.835414494200       9.619545754800       9.190926712000
        61    1       28.835414494200       2.492245754800       9.190926712000
        62    1       24.725564494200       9.619545754800       9.190926712000
        63    1       26.780489494200       6.055895754800       9.190926712000
        64    1       30.890339494200      13.183195754800       9.190926712000
        65    1       39.110039494200       6.055895754800       9.190926712000
        66    1       35.000189494200      13.183195754800       9.190926712000
        67    1       32.945387789700       4.865793455400       7.555456541600
        68    1       37.055237789700      11.993093455400       7.555456541600
        69    1       35.000312789700       1.302143455400       7.555456541600
        70    1       39.110162789700       8.429443455400       7.555456541600
        71    1       37.055237789700       4.865793455400       7.555456541600
        72    1       32.945387789700      11.993093455400       7.555456541600
        73    1       32.945264494200       2.492245754800       9.190926712000
        74    1       39.110162789700       1.302143455400       7.555456541600
        75    1       35.000312789700       8.429443455400       7.555456541600
        76    1       37.055114494200       9.619545754800       9.190926712000
        77    1       37.055114494200       2.492245754800       9.190926712000
        78    1       32.945264494200       9.619545754800       9.190926712000
        79    1       35.000189494200       6.055895754800       9.190926712000
        80    1       39.110039494200      13.183195754800       9.190926712000
        81    1       47.329739494200       6.055895754800       9.190926712000
        82    1       43.219889494200      13.183195754800       9.190926712000
        83    1       41.165087789700       4.865793455400       7.555456541600
        84    1       45.274937789700      11.993093455400       7.555456541600
        85    1       43.220012789700       1.302143455400       7.555456541600
        86    1       47.329862789700       8.429443455400       7.555456541600
        87    1       45.274937789700       4.865793455400       7.555456541600
        88    1       41.165087789700      11.993093455400       7.555456541600
        89    1       41.164964494200       2.492245754800       9.190926712000
        90    1       47.329862789700       1.302143455400       7.555456541600
        91    1       43.220012789700       8.429443455400       7.555456541600
        92    1       45.274814494200       9.619545754800       9.190926712000
        93    1       45.274814494200       2.492245754800       9.190926712000
        94    1       41.164964494200       9.619545754800       9.190926712000
        95    1       43.219889494200       6.055895754800       9.190926712000
        96    1       47.329739494200      13.183195754800       9.190926712000
        97    1       55.549439494200       6.055895754800       9.190926712000
        98    1       51.439589494200      13.183195754800       9.190926712000
        99    1       49.384787789700       4.865793455400       7.555456541600
       100    1       53.494637789700      11.993093455400       7.555456541600
       101    1       51.439712789700       1.302143455400       7.555456541600
       102    1       55.549562789700       8.429443455400       7.555456541600
       103    1       53.494637789700       4.865793455400       7.555456541600
       104    1       49.384787789700      11.993093455400       7.555456541600
       105    1       49.384664494200       2.492245754800       9.190926712000
       106    1       55.549562789700       1.302143455400       7.555456541600
       107    1       51.439712789700       8.429443455400       7.555456541600
       108    1       53.494514494200       9.619545754800       9.190926712000
       109    1       53.494514494200       2.492245754800       9.190926712000
       110    1       49.384664494200       9.619545754800       9.190926712000
       111    1       51.439589494200       6.055895754800       9.190926712000
       112    1       55.549439494200      13.183195754800       9.190926712000
       113    1       63.769139494200       6.055895754800       9.190926712000
       114    1       59.659289494200      13.183195754800       9.190926712000
       115    1       57.604487789700       4.865793455400       7.555456541600
       116    1       61.714337789700      11.993093455400       7.555456541600
       117    1       59.659412789700       1.302143455400       7.555456541600
       118    1       63.769262789700       8.429443455400       7.555456541600
       119    1       61.714337789700       4.865793455400       7.555456541600
       120    1       57.604487789700      11.993093455400       7.555456541600
       121    1       57.604364494200       2.492245754800       9.190926712000
       122    1       63.769262789700       1.302143455400       7.555456541600
       123    1       59.659412789700       8.429443455400       7.555456541600
       124    1       61.714214494200       9.619545754800       9.190926712000
       125    1       61.714214494200       2.492245754800       9.190926712000
       126    1       57.604364494200       9.619545754800       9.190926712000
       127    1       59.659289494200       6.055895754800       9.190926712000
       128    1       63.769139494200      13.183195754800       9.190926712000
       129    1       71.988839494200       6.055895754800       9.190926712000
       130    1       67.878989494200      13.183195754800       9.190926712000
       131    1       65.824187789700       4.865793455400       7.555456541600
       132    1       69.934037789700      11.993093455400       7.555456541600
       133    1       67.879112789700       1.302143455400       7.555456541600
       134    1       71.988962789700       8.429443455400       7.555456541600
       135    1       69.934037789700       4.865793455400       7.555456541600
       136    1       65.824187789700      11.993093455400       7.555456541600
       137    1       65.824064494200       2.492245754800       9.190926712000
       138    1       71.988962789700       1.302143455400       7.555456541600
       139    1       67.879112789700       8.429443455400       7.555456541600
       140    1       69.933914494200       9.619545754800       9.190926712000
       141    1       69.933914494200       2.492245754800       9.190926712000
       142    1       65.824064494200       9.619545754800       9.190926712000
       143    1       67.878989494200       6.055895754800       9.190926712000
       144    1       71.988839494200      13.183195754800       9.190926712000
       145    1       80.208539494200       6.055895754800       9.190926712000
       146    1       76.098689494200      13.183195754800       9.190926712000
       147    1       74.043887789700       4.865793455400       7.555456541600
       148    1       78.153737789700      11.993093455400       7.555456541600
       149    1       76.098812789700       1.302143455400       7.555456541600
       150    1       80.208662789700       8.429443455400       7.555456541600
       151    1       78.153737789700       4.865793455400       7.555456541600
       152    1       74.043887789700      11.993093455400       7.555456541600
       153    1       74.043764494200       2.492245754800       9.190926712000
       154    1       80.208662789700       1.302143455400       7.555456541600
       155    1       76.098812789700       8.429443455400       7.555456541600
       156    1       78.153614494200       9.619545754800       9.190926712000
       157    1       78.153614494200       2.492245754800       9.190926712000
       158    1       74.043764494200       9.619545754800       9.190926712000
       159    1       76.098689494200       6.055895754800       9.190926712000
       160    1       80.208539494200      13.183195754800       9.190926712000
       161    1       88.428239494200       6.055895754800       9.190926712000
       162    1       84.318389494200      13.183195754800       9.190926712000
       163    1       82.263587789700       4.865793455400       7.555456541600
       164    1       86.373437789700      11.993093455400       7.555456541600
       165    1       84.318512789700       1.302143455400       7.555456541600
       166    1       88.428362789700       8.429443455400       7.555456541600
       167    1       86.373437789700       4.865793455400       7.555456541600
       168    1       82.263587789700      11.993093455400       7.555456541600
       169    1       82.263464494200       2.492245754800       9.190926712000
       170    1       88.428362789700       1.302143455400       7.555456541600
       171    1       84.318512789700       8.429443455400       7.555456541600
       172    1       86.373314494200       9.619545754800       9.190926712000
       173    1       86.373314494200       2.492245754800       9.190926712000
       174    1       82.263464494200       9.619545754800       9.190926712000
       175    1       84.318389494200       6.055895754800       9.190926712000
       176    1       88.428239494200      13.183195754800       9.190926712000
       177    1       96.647939494200       6.055895754800       9.190926712000
       178    1       92.538089494200      13.183195754800       9.190926712000
       179    1       90.483287789700       4.865793455400       7.555456541600
       180    1       94.593137789700      11.993093455400       7.555456541600
       181    1       92.538212789700       1.302143455400       7.555456541600
       182    1       96.648062789700       8.429443455400       7.555456541600
       183    1       94.593137789700       4.865793455400       7.555456541600
       184    1       90.483287789700      11.993093455400       7.555456541600
       185    1       90.483164494200       2.492245754800       9.190926712000
       186    1       96.648062789700       1.302143455400       7.555456541600
       187    1       92.538212789700       8.429443455400       7.555456541600
       188    1       94.593014494200       9.619545754800       9.190926712000
       189    1       94.593014494200       2.492245754800       9.190926712000
       190    1       90.483164494200       9.619545754800       9.190926712000
       191    1       92.538089494200       6.055895754800       9.190926712000
       192    1       96.647939494200      13.183195754800       9.190926712000
       193    1        6.231239494200      20.310495754800       9.190926712000
       194    1        2.121389494200      27.437795754800       9.190926712000
       195    1        0.066587789700      19.120393455400       7.555456541600
       196    1        4.176437789700      26.247693455400       7.555456541600
       197    1        2.121512789700      15.556743455400       7.555456541600
       198    1        6.231362789700      22.684043455400       7.555456541600
       199    1        4.176437789700      19.120393455400       7.555456541600
       200    1        0.066587789700      26.247693455400       7.555456541600
       201    1        0.066464494200      16.746845754800       9.190926712000
       202    1        6.231362789700      15.556743455400       7.555456541600
       203    1        2.121512789700      22.684043455400       7.555456541600
       204    1        4.176314494200      23.874145754800       9.190926712000
       205    1        4.176314494200      16.746845754800       9.190926712000
       206    1        0.066464494200      23.874145754800       9.190926712000
       207    1        2.121389494200      20.310495754800       9.190926712000
       208    1        6.231239494200      27.437795754800       9.190926712000
       209    1       14.450939494200      20.310495754800       9.190926712000
       210    1       10.341089494200      27.437795754800       9.190926712000
       211    1        8.286287789700      19.120393455400       7.555456541600
       212    1       12.396137789700      26.247693455400       7.555456541600
       213    1       10.341212789700      15.556743455400       7.555456541600
       214    1       14.451062789700      22.684043455400       7.555456541600
       215    1       12.396137789700      19.120393455400       7.555456541600
       216    1        8.286287789700      26.247693455400       7.555456541600
       217    1        8.286164494200      16.746845754800       9.190926712000
       218    1       14.451062789700      15.556743455400       7.555456541600
       219    1       10.341212789700      22.684043455400       7.555456541600
       220    1       12.396014494200      23.874145754800       9.190926712000
       221    1       12.396014494200      16.746845754800       9.190926712000
       222    1        8.286164494200      23.874145754800       9.190926712000
       223    1       10.341089494200      20.310495754800       9.190926712000
       224    1       14.450939494200      27.437795754800       9.190926712000
       225    1       22.670639494200      20.310495754800       9.190926712000
       226    1       18.560789494200      27.437795754800       9.190926712000
       227    1       16.505987789700      19.120393455400       7.555456541600
       228    1       20.615837789700      26.247693455400       7.555456541600
       229    1       18.560912789700      15.556743455400       7.555456541600
       230    1       22.670762789700      22.684043455400       7.555456541600
       231    1       20.615837789700      19.120393455400       7.555456541600
       232    1       16.505987789700      26.247693455400       7.555456541600
       233    1       16.505864494200      16.746845754800       9.190926712000
       234    1       22.670762789700      15.556743455400       7.555456541600
       235    1       18.560912789700      22.684043455400       7.555456541600
       236    1       20.615714494200      23.874145754800       9.190926712000
       237    1       20.615714494200      16.746845754800       9.190926712000
       238    1       16.505864494200      23.874145754800       9.190926712000
       239    1       18.560789494200      20.310495754800       9.190926712000
       240    1       22.670639494200      27.437795754800       9.190926712000
       241    1       30.890339494200      20.310495754800       9.190926712000
       242    1       26.780489494200      27.437795754800       9.190926712000
       243    1       24.725687789700      19.120393455400       7.555456541600
       244    1       28.835537789700      26.247693455400       7.555456541600
       245    1       26.780612789700      15.556743455400       7.555456541600
       246    1       30.890462789700      22.684043455400       7.555456541600
       247    1       28.835537789700      19.120393455400       7.555456541600
       248    1       24.725687789700      26.247693455400       7.555456541600
       249    1       24.725564494200      16.746845754800       9.190926712000
       250    1       30.890462789700      15.556743455400       7.555456541600
       251    1       26.780612789700      22.684043455400       7.555456541600
       252    1       28.835414494200      23.874145754800       9.190926712000
       253    1       28.835414494200      16.746845754800       9.190926712000
       254    1       24.725564494200      23.874145754800       9.190926712000
       255    1       26.780489494200      20.310495754800       9.190926712000
       256    1       30.890339494200      27.437795754800       9.190926712000
       257    1       39.110039494200      20.310495754800       9.190926712000
       258    1       35.000189494200      27.437795754800       9.190926712000
       259    1       32.945387789700      19.120393455400       7.555456541600
       260    1       37.055237789700      26.247693455400       7.555456541600
       261    1       35.000312789700      15.556743455400       7.555456541600
       262    1       39.110162789700      22.684043455400       7.555456541600
       263    1       37.055237789700      19.120393455400       7.555456541600
       264    1       32.945387789700      26.247693455400       7.555456541600
       265    1       32.945264494200      16.746845754800       9.190926712000
       266    1       39.110162789700      15.556743455400       7.555456541600
       267    1       35.000312789700      22.684043455400       7.555456541600
       268    1       37.055114494200      23.874145754800       9.190926712000
       269    1       37.055114494200      16.746845754800       9.190926712000
       270    1       32.945264494200      23.874145754800       9.190926712000
       271    1       35.000189494200      20.310495754800       9.190926712000
       272    1       39.110039494200      27.437795754800       9.190926712000
       273    1       47.329739494200      20.310495754800       9.190926712000
       274    1       43.219889494200      27.437795754800       9.190926712000
       275    1       41.165087789700      19.120393455400       7.555456541600
       276    1       45.274937789700      26.247693455400       7.555456541600
       277    1       43.220012789700      15.556743455400       7.555456541600
       278    1       47.329862789700      22.684043455400       7.555456541600
       279    1       45.274937789700      19.120393455400       7.555456541600
       280    1       41.165087789700      26.247693455400       7.555456541600
       281    1       41.164964494200      16.746845754800       9.190926712000
       282    1       47.329862789700      15.556743455400       7.555456541600
       283    1       43.220012789700      22.684043455400       7.555456541600
       284    1       45.274814494200      23.874145754800       9.190926712000
       285    1       45.274814494200      16.746845754800       9.190926712000
       286    1       41.164964494200      23.874145754800       9.190926712000
       287    1       43.219889494200      20.310495754800       9.190926712000
       288    1       47.329739494200      27.437795754800       9.190926712000
       289    1       55.549439494200      20.310495754800       9.190926712000
       290    1       51.439589494200      27.437795754800       9.190926712000
       291    1       49.384787789700      19.120393455400       7.555456541600
       292    1       53.494637789700      26.247693455400       7.555456541600
       293    1       51.439712789700      15.556743455400       7.555456541600
       294    1       55.549562789700      22.684043455400       7.555456541600
       295    1       53.494637789700      19.120393455400       7.555456541600
       296    1       49.384787789700      26.247693455400       7.555456541600
       297    1       49.384664494200      16.746845754800       9.190926712000
       298    1       55.549562789700      15.556743455400       7.555456541600
       299    1       51.439712789700      22.684043455400       7.555456541600
       300    1       53.494514494200      23.874145754800       9.190926712000
       301    1       53.494514494200      16.746845754800       9.190926712000
       302    1       49.384664494200      23.874145754800       9.190926712000
       303    1       51.439589494200      20.310495754800       9.190926712000
       304    1       55.549439494200      27.437795754800       9.190926712000
       305    1       63.769139494200      20.310495754800       9.190926712000
       306    1       59.659289494200      27.437795754800       9.190926712000
       307    1       57.604487789700      19.120393455400       7.555456541600
       308    1       61.714337789700      26.247693455400       7.555456541600
       309    1       59.659412789700      15.556743455400       7.555456541600
       310    1       63.769262789700      22.684043455400       7.555456541600
       311    1       61.714337789700      19.120393455400       7.555456541600
       312    1       57.604487789700      26.247693455400       7.555456541600
       313    1       57.604364494200      16.746845754800       9.190926712000
       314    1       63.769262789700      15.556743455400       7.555456541600
       315    1       59.659412789700      22.684043455400       7.555456541600
       316    1       61.714214494200      23.874145754800       9.190926712000
       317    1       61.714214494200      16.746845754800       9.190926712000
       318    1       57.604364494200      23.874145754800       9.190926712000
       319    1       59.659289494200      20.310495754800       9.190926712000
       320    1       63.769139494200      27.437795754800       9.190926712000
       321    1       71.988839494200      20.310495754800       9.190926712000
       322    1       67.878989494200      27.437795754800       9.190926712000
       323    1       65.824187789700      19.120393455400       7.555456541600
       324    1       69.934037789700      26.247693455400       7.555456541600
       325    1       67.879112789700      15.556743455400       7.555456541600
       326    1       71.988962789700      22.684043455400       7.555456541600
       327    1       69.934037789700      19.120393455400       7.555456541600
       328    1       65.824187789700      26.247693455400       7.555456541600
       329    1       65.824064494200      16.746845754800       9.190926712000
       330    1       71.988962789700      15.556743455400       7.555456541600
       331    1       67.879112789700      22.684043455400       7.555456541600
       332    1       69.933914494200      23.874145754800       9.190926712000
       333    1       69.933914494200      16.746845754800       9.190926712000
       334    1       65.824064494200      23.874145754800       9.190926712000
       335    1       67.878989494200      20.310495754800       9.190926712000
       336    1       71.988839494200      27.437795754800       9.190926712000
       337    1       80.208539494200      20.310495754800       9.190926712000
       338    1       76.098689494200      27.437795754800       9.190926712000
       339    1       74.043887789700      19.120393455400       7.555456541600
       340    1       78.153737789700      26.247693455400       7.555456541600
       341    1       76.098812789700      15.556743455400       7.555456541600
       342    1       80.208662789700      22.684043455400       7.555456541600
       343    1       78.153737789700      19.120393455400       7.555456541600
       344    1       74.043887789700      26.247693455400       7.555456541600
       345    1       74.043764494200      16.746845754800       9.190926712000
       346    1       80.208662789700      15.556743455400       7.555456541600
       347    1       76.098812789700      22.684043455400       7.555456541600
       348    1       78.153614494200      23.874145754800       9.190926712000
       349    1       78.153614494200      16.746845754800       9.190926712000
       350    1       74.043764494200      23.874145754800       9.190926712000
       351    1       76.098689494200      20.310495754800       9.190926712000
       352    1       80.208539494200      27.437795754800       9.190926712000
       353    1       88.428239494200      20.310495754800       9.190926712000
       354    1       84.318389494200      27.437795754800       9.190926712000
       355    1       82.263587789700      19.120393455400       7.555456541600
       356    1       86.373437789700      26.247693455400       7.555456541600
       357    1       84.318512789700      15.556743455400       7.555456541600
       358    1       88.428362789700      22.684043455400       7.555456541600
       359    1       86.373437789700      19.120393455400       7.555456541600
       360    1       82.263587789700      26.247693455400       7.555456541600
       361    1       82.263464494200      16.746845754800       9.190926712000
       362    1       88.428362789700      15.556743455400       7.555456541600
       363    1       84.318512789700      22.684043455400       7.555456541600
       364    1       86.373314494200      23.874145754800       9.190926712000
       365    1       86.373314494200      16.746845754800       9.190926712000
       366    1       82.263464494200      23.874145754800       9.190926712000
       367    1       84.318389494200      20.310495754800       9.190926712000
       368    1       88.428239494200      27.437795754800       9.190926712000
       369    1       96.647939494200      20.310495754800       9.190926712000
       370    1       92.538089494200      27.437795754800       9.190926712000
       371    1       90.483287789700      19.120393455400       7.555456541600