 # S8 C8
  
        2880  atoms
           2  atom types
 
      0.000000000000     102.096000000000  xlo xhi
      0.000000000000      98.242000000000  ylo yhi
      0.000000000000     106.000000000000  zlo zhi
 
Masses
 
            1   32.06000000             # S
            2   12.01100000             # C
 
Atoms # atomic
 
         1    1        4.254000000000       0.818680058600      53.923790000000
         2    1        2.836000000000       3.274730058600      53.923790000000
         3    1        1.418000000000       5.730780058600      53.923790000000
         4    2        2.836000000000       1.637369941400      53.000000000000
         5    1        0.000000000000       8.186830058600      53.923790000000
         6    2        0.000000000000       6.549469941400      53.000000000000
         7    2        4.254000000000       4.093419941400      53.000000000000
         8    2        1.418000000000       9.005519941400      53.000000000000
         9    1        5.672000000000       3.274730058600      53.923790000000
        10    1        2.836000000000       8.186830058600      53.923790000000
        11    2        1.418000000000       4.093419941400      53.000000000000
        12    2        4.254000000000       9.005519941400      53.000000000000
        13    2        0.000000000000       1.637369941400      53.000000000000
        14    2        2.836000000000       6.549469941400      53.000000000000
        15    1        1.418000000000       0.818680058600      53.923790000000
        16    1        4.254000000000       5.730780058600      53.923790000000
        17    1        9.926000000000       0.818680058600      53.923790000000
        18    1        8.508000000000       3.274730058600      53.923790000000
        19    1        7.090000000000       5.730780058600      53.923790000000
        20    2        8.508000000000       1.637369941400      53.000000000000
        21    1        5.672000000000       8.186830058600      53.923790000000
        22    2        5.672000000000       6.549469941400      53.000000000000
        23    2        9.926000000000       4.093419941400      53.000000000000
        24    2        7.090000000000       9.005519941400      53.000000000000
        25    1       11.344000000000       3.274730058600      53.923790000000
        26    1        8.508000000000       8.186830058600      53.923790000000
        27    2        7.090000000000       4.093419941400      53.000000000000
        28    2        9.926000000000       9.005519941400      53.000000000000
        29    2        5.672000000000       1.637369941400      53.000000000000
        30    2        8.508000000000       6.549469941400      53.000000000000
        31    1        7.090000000000       0.818680058600      53.923790000000
        32    1        9.926000000000       5.730780058600      53.923790000000
        33    1       15.598000000000       0.818680058600      53.923790000000
        34    1       14.180000000000       3.274730058600      53.923790000000
        35    1       12.762000000000       5.730780058600      53.923790000000
        36    2       14.180000000000       1.637369941400      53.000000000000
        37    1       11.344000000000       8.186830058600      53.923790000000
        38    2       11.344000000000       6.549469941400      53.000000000000
        39    2       15.598000000000       4.093419941400      53.000000000000
        40    2       12.762000000000       9.005519941400      53.000000000000
        41    1       17.016000000000       3.274730058600      53.923790000000
        42    1       14.180000000000       8.186830058600      53.923790000000
        43    2       12.762000000000       4.093419941400      53.000000000000
        44    2       15.598000000000       9.005519941400      53.000000000000
        45    2       11.344000000000       1.637369941400      53.000000000000
        46    2       14.180000000000       6.549469941400      53.000000000000
        47    1       12.762000000000       0.818680058600      53.923790000000
        48    1       15.598000000000       5.730780058600      53.923790000000
        49    1       21.270000000000       0.818680058600      53.923790000000
        50    1       19.852000000000       3.274730058600      53.923790000000
        51    1       18.434000000000       5.730780058600      53.923790000000
        52    2       19.852000000000       1.637369941400      53.000000000000
        53    1       17.016000000000       8.186830058600      53.923790000000
        54    2       17.016000000000       6.549469941400      53.000000000000
        55    2       21.270000000000       4.093419941400      53.000000000000
        56    2       18.434000000000       9.005519941400      53.000000000000
        57    1       22.688000000000       3.274730058600      53.923790000000
        58    1       19.852000000000       8.186830058600      53.923790000000
        59    2       18.434000000000       4.093419941400      53.000000000000
        60    2       21.270000000000       9.005519941400      53.000000000000
        61    2       17.016000000000       1.637369941400      53.000000000000
        62    2       19.852000000000       6.549469941400      53.000000000000
        63    1       18.434000000000       0.818680058600      53.923790000000
        64    1       21.270000000000       5.730780058600      53.923790000000
        65    1       26.942000000000       0.818680058600      53.923790000000
        66    1       25.524000000000       3.274730058600      53.923790000000
        67    1       24.106000000000       5.730780058600      53.923790000000
        68    2       25.524000000000       1.637369941400      53.000000000000
        69    1       22.688000000000       8.186830058600      53.923790000000
        70    2       22.688000000000       6.549469941400      53.000000000000
        71    2       26.942000000000       4.093419941400      53.000000000000
        72    2       24.106000000000       9.005519941400      53.000000000000
        73    1       28.360000000000       3.274730058600      53.923790000000
        74    1       25.524000000000       8.186830058600      53.923790000000
        75    2       24.106000000000       4.093419941400      53.000000000000
        76    2       26.942000000000       9.005519941400      53.000000000000
        77    2       22.688000000000       1.637369941400      53.000000000000
        78    2       25.524000000000       6.549469941400      53.000000000000
        79    1       24.106000000000       0.818680058600      53.923790000000
        80    1       26.942000000000       5.730780058600      53.923790000000
        81    1       32.614000000000       0.818680058600      53.923790000000
        82    1       31.196000000000       3.274730058600      53.923790000000
        83    1       29.778000000000       5.730780058600      53.923790000000
        84    2       31.196000000000       1.637369941400      53.000000000000
        85    1       28.360000000000       8.186830058600      53.923790000000
        86    2       28.360000000000       6.549469941400      53.000000000000
        87    2       32.614000000000       4.093419941400      53.000000000000
        88    2       29.778000000000       9.005519941400      53.000000000000
        89    1       34.032000000000       3.274730058600      53.923790000000
        90    1       31.196000000000       8.186830058600      53.923790000000
        91    2       29.778000000000       4.093419941400      53.000000000000
        92    2       32.614000000000       9.005519941400      53.000000000000
        93    2       28.360000000000       1.637369941400      53.000000000000
        94    2       31.196000000000       6.549469941400      53.000000000000
        95    1       29.778000000000       0.818680058600      53.923790000000
        96    1       32.614000000000       5.730780058600      53.923790000000
        97    1       38.286000000000       0.818680058600      53.923790000000
        98    1       36.868000000000       3.274730058600      53.923790000000
        99    1       35.450000000000       5.730780058600      53.923790000000
       100    2       36.868000000000       1.637369941400      53.000000000000
       101    1       34.032000000000       8.186830058600      53.923790000000
       102    2       34.032000000000       6.549469941400      53.000000000000
       103    2       38.286000000000       4.093419941400      53.000000000000
       104    2       35.450000000000       9.005519941400      53.000000000000
       105    1       39.704000000000       3.274730058600      53.923790000000
       106    1       36.868000000000       8.186830058600      53.923790000000
       107    2       35.450000000000       4.093419941400      53.000000000000
       108    2       38.286000000000       9.005519941400      53.000000000000
       109    2       34.032000000000       1.637369941400      53.000000000000
       110    2       36.868000000000       6.549469941400      53.000000000000
       111    1       35.450000000000       0.818680058600      53.923790000000
       112    1       38.286000000000       5.730780058600      53.923790000000
       113    1       43.958000000000       0.818680058600      53.923790000000
       114    1       42.540000000000       3.274730058600      53.923790000000
       115    1       41.122000000000       5.730780058600      53.923790000000
       116    2       42.540000000000       1.637369941400      53.000000000000
       117    1       39.704000000000       8.186830058600      53.923790000000
       118    2       39.704000000000       6.549469941400      53.000000000000
       119    2       43.958000000000       4.093419941400      53.000000000000
       120    2       41.122000000000       9.005519941400      53.000000000000
       121    1       45.376000000000       3.274730058600      53.923790000000
       122    1       42.540000000000       8.186830058600      53.923790000000
       123    2       41.122000000000       4.093419941400      53.000000000000
       124    2       43.958000000000       9.005519941400      53.000000000000
       125    2       39.704000000000       1.637369941400      53.000000000000
       126    2       42.540000000000       6.549469941400      53.000000000000
       127    1       41.122000000000       0.818680058600      53.923790000000
       128    1       43.958000000000       5.730780058600      53.923790000000
       129    1       49.630000000000       0.818680058600      53.923790000000
       130    1       48.212000000000       3.274730058600      53.923790000000
       131    1       46.794000000000       5.730780058600      53.923790000000
       132    2       48.212000000000       1.637369941400      53.000000000000
       133    1       45.376000000000       8.186830058600      53.923790000000
       134    2       45.376000000000       6.549469941400      53.000000000000
       135    2       49.630000000000       4.093419941400      53.000000000000
       136    2       46.794000000000       9.005519941400      53.000000000000
       137    1       51.048000000000       3.274730058600      53.923790000000
       138    1       48.212000000000       8.186830058600      53.923790000000
       139    2       46.794000000000       4.093419941400      53.000000000000
       140    2       49.630000000000       9.005519941400      53.000000000000
       141    2       45.376000000000       1.637369941400      53.000000000000
       142    2       48.212000000000       6.549469941400      53.000000000000
       143    1       46.794000000000       0.818680058600      53.923790000000
       144    1       49.630000000000       5.730780058600      53.923790000000
       145    1       55.302000000000       0.818680058600      53.923790000000
       146    1       53.884000000000       3.274730058600      53.923790000000
       147    1       52.466000000000       5.730780058600      53.923790000000
       148    2       53.884000000000       1.637369941400      53.000000000000
       149    1       51.048000000000       8.186830058600      53.923790000000
       150    2       51.048000000000       6.549469941400      53.000000000000
       151    2       55.302000000000       4.093419941400      53.000000000000
       152    2       52.466000000000       9.005519941400      53.000000000000
       153    1       56.720000000000       3.274730058600      53.923790000000
       154    1       53.884000000000       8.186830058600      53.923790000000
       155    2       52.466000000000       4.093419941400      53.000000000000
       156    2       55.302000000000       9.005519941400      53.000000000000
       157    2       51.048000000000       1.637369941400      53.000000000000
       158    2       53.884000000000       6.549469941400      53.000000000000
       159    1       52.466000000000       0.818680058600      53.923790000000
       160    1       55.302000000000       5.730780058600      53.923790000000
       161    1       60.974000000000       0.818680058600      53.923790000000
       162    1       59.556000000000       3.274730058600      53.923790000000
       163    1       58.138000000000       5.730780058600      53.923790000000
       164    2       59.556000000000       1.637369941400      53.000000000000
       165    1       56.720000000000       8.186830058600      53.923790000000
       166    2       56.720000000000       6.549469941400      53.000000000000
       167    2       60.974000000000       4.093419941400      53.000000000000
       168    2       58.138000000000       9.005519941400      53.000000000000
       169    1       62.392000000000       3.274730058600      53.923790000000
       170    1       59.556000000000       8.186830058600      53.923790000000
       171    2       58.138000000000       4.093419941400      53.000000000000
       172    2       60.974000000000       9.005519941400      53.000000000000
       173    2       56.720000000000       1.637369941400      53.000000000000
       174    2       59.556000000000       6.549469941400      53.000000000000
       175    1       58.138000000000       0.818680058600      53.923790000000
       176    1       60.974000000000       5.730780058600      53.923790000000
       177    1       66.646000000000       0.818680058600      53.923790000000
       178    1       65.228000000000       3.274730058600      53.923790000000
       179    1       63.810000000000       5.730780058600      53.923790000000
       180    2       65.228000000000       1.637369941400      53.000000000000
       181    1       62.392000000000       8.186830058600      53.923790000000
       182    2       62.392000000000       6.549469941400      53.000000000000
       183    2       66.646000000000       4.093419941400      53.000000000000
       184    2       63.810000000000       9.005519941400      53.000000000000
       185    1       68.064000000000       3.274730058600      53.923790000000
       186    1       65.228000000000       8.186830058600      53.923790000000
       187    2       63.810000000000       4.093419941400      53.000000000000
       188    2       66.646000000000       9.005519941400      53.000000000000
       189    2       62.392000000000       1.637369941400      53.000000000000
       190    2       65.228000000000       6.549469941400      53.000000000000
       191    1       63.810000000000       0.818680058600      53.923790000000
       192    1       66.646000000000       5.730780058600      53.923790000000
       193    1       72.318000000000       0.818680058600      53.923790000000
       194    1       70.900000000000       3.274730058600      53.923790000000
       195    1       69.482000000000       5.730780058600      53.923790000000
       196    2       70.900000000000       1.637369941400      53.000000000000
       197    1       68.064000000000       8.186830058600      53.923790000000
       198    2       68.064000000000       6.549469941400      53.000000000000
       199    2       72.318000000000       4.093419941400      53.000000000000
       200    2       69.482000000000       9.005519941400      53.000000000000
       201    1       73.736000000000       3.274730058600      53.923790000000
       202    1       70.900000000000       8.186830058600      53.923790000000
       203    2       69.482000000000       4.093419941400      53.000000000000
       204    2       72.318000000000       9.005519941400      53.000000000000
       205    2       68.064000000000       1.637369941400      53.000000000000
       206    2       70.900000000000       6.549469941400      53.000000000000
       207    1       69.482000000000       0.818680058600      53.923790000000
       208    1       72.318000000000       5.730780058600      53.923790000000
       209    1       77.990000000000       0.818680058600      53.923790000000
       210    1       76.572000000000       3.274730058600      53.923790000000
       211    1       75.154000000000       5.730780058600      53.923790000000
       212    2       76.572000000000       1.637369941400      53.000000000000
       213    1       73.736000000000       8.186830058600      53.923790000000
       214    2       73.736000000000       6.549469941400      53.000000000000
       215    2       77.990000000000       4.093419941400      53.000000000000
       216    2       75.154000000000       9.005519941400      53.000000000000
       217    1       79.408000000000       3.274730058600      53.923790000000
       218    1       76.572000000000       8.186830058600      53.923790000000
       219    2       75.154000000000       4.093419941400      53.000000000000
       220    2       77.990000000000       9.005519941400      53.000000000000
       221    2       73.736000000000       1.637369941400      53.000000000000
       222    2       76.572000000000       6.549469941400      53.000000000000
       223    1       75.154000000000       0.818680058600      53.923790000000
       224    1       77.990000000000       5.730780058600      53.923790000000
       225    1       83.662000000000       0.818680058600      53.923790000000
       226    1       82.244000000000       3.274730058600      53.923790000000
       227    1       80.826000000000       5.730780058600      53.923790000000
       228    2       82.244000000000       1.637369941400      53.000000000000
       229    1       79.408000000000       8.186830058600      53.923790000000
       230    2       79.408000000000       6.549469941400      53.000000000000
       231    2       83.662000000000       4.093419941400      53.000000000000
       232    2       80.826000000000       9.005519941400      53.000000000000
       233    1       85.080000000000       3.274730058600      53.923790000000
       234    1       82.244000000000       8.186830058600      53.923790000000
       235    2       80.826000000000       4.093419941400      53.000000000000
       236    2       83.662000000000       9.005519941400      53.000000000000
       237    2       79.408000000000       1.637369941400      53.000000000000
       238    2       82.244000000000       6.549469941400      53.000000000000
       239    1       80.826000000000       0.818680058600      53.923790000000
       240    1       83.662000000000       5.730780058600      53.923790000000
       241    1       89.334000000000       0.818680058600      53.923790000000
       242    1       87.916000000000       3.274730058600      53.923790000000
       243    1       86.498000000000       5.730780058600      53.923790000000
       244    2       87.916000000000       1.637369941400      53.000000000000
       245    1       85.080000000000       8.186830058600      53.923790000000
       246    2       85.080000000000       6.549469941400      53.000000000000
       247    2       89.334000000000       4.093419941400      53.000000000000
       248    2       86.498000000000       9.005519941400      53.000000000000
       249    1       90.752000000000       3.274730058600      53.923790000000
       250    1       87.916000000000       8.186830058600      53.923790000000
       251    2       86.498000000000       4.093419941400      53.000000000000
       252    2       89.334000000000       9.005519941400      53.000000000000
       253    2       85.080000000000       1.637369941400      53.000000000000
       254    2       87.916000000000       6.549469941400      53.000000000000
       255    1       86.498000000000       0.818680058600      53.923790000000
       256    1       89.334000000000       5.730780058600      53.923790000000
       257    1       95.006000000000       0.818680058600      53.923790000000
       258    1       93.588000000000       3.274730058600      53.923790000000
       259    1       92.170000000000       5.730780058600      53.923790000000
       260    2       93.588000000000       1.637369941400      53.000000000000
       261    1       90.752000000000       8.186830058600      53.923790000000
       262    2       90.752000000000       6.549469941400      53.000000000000
       263    2       95.006000000000       4.093419941400      53.000000000000
       264    2       92.170000000000       9.005519941400      53.000000000000
       265    1       96.424000000000       3.274730058600      53.923790000000
       266    1       93.588000000000       8.186830058600      53.923790000000
       267    2       92.170000000000       4.093419941400      53.000000000000
       268    2       95.006000000000       9.005519941400      53.000000000000
       269    2       90.752000000000       1.637369941400      53.000000000000
       270    2       93.588000000000       6.549469941400      53.000000000000
       271    1       92.170000000000       0.818680058600      53.923790000000
       272    1       95.006000000000       5.730780058600      53.923790000000
       273    1      100.678000000000       0.818680058600      53.923790000000
       274    1       99.260000000000       3.274730058600      53.923790000000
       275    1       97.842000000000       5.730780058600      53.923790000000
       276    2       99.260000000000       1.637369941400      53.000000000000
       277    1       96.424000000000       8.186830058600      53.923790000000
       278    2       96.424000000000       6.549469941400      53.000000000000
       279    2      100.678000000000       4.093419941400      53.000000000000
       280    2       97.842000000000       9.005519941400      53.000000000000
       281    1      102.096000000000       3.274730058600      53.923790000000
       282    1       99.260000000000       8.186830058600      53.923790000000
       283    2       97.842000000000       4.093419941400      53.000000000000
       284    2      100.678000000000       9.005519941400      53.000000000000
       285    2       96.424000000000       1.637369941400      53.000000000000
       286    2       99.260000000000       6.549469941400      53.000000000000
       287    1       97.842000000000       0.818680058600      53.923790000000
       288    1      100.678000000000       5.730780058600      53.923790000000
       289    1        4.254000000000      10.642880058600      53.923790000000
       290    1        2.836000000000      13.098930058600      53.923790000000
       291    1        1.418000000000      15.554980058600      53.923790000000
       292    2        2.836000000000      11.461569941400      53.000000000000
       293    1        0.000000000000      18.011030058600      53.923790000000
       294    2        0.000000000000      16.373669941400      53.000000000000
       295    2        4.254000000000      13.917619941400      53.000000000000
       296    2        1.418000000000      18.829719941400      53.000000000000
       297    1        5.672000000000      13.098930058600      53.923790000000
       298    1        2.836000000000      18.011030058600      53.923790000000
       299    2        1.418000000000      13.917619941400      53.000000000000
       300    2        4.254000000000      18.829719941400      53.000000000000
       301    2        0.000000000000      11.461569941400      53.000000000000
       302    2        2.836000000000      16.373669941400      53.000000000000
       303    1        1.418000000000      10.642880058600      53.923790000000
       304    1        4.254000000000      15.554980058600      53.923790000000
       305    1        9.926000000000      10.642880058600      53.923790000000
       306    1        8.508000000000      13.098930058600      53.923790000000
       307    1        7.090000000000      15.554980058600      53.923790000000
       308    2        8.508000000000      11.461569941400      53.000000000000
       309    1        5.672000000000      18.011030058600      53.923790000000
       310    2        5.672000000000      16.373669941400      53.000000000000
       311    2        9.926000000000      13.917619941400      53.000000000000
       312    2        7.090000000000      18.829719941400      53.000000000000
       313    1       11.344000000000      13.098930058600      53.923790000000
       314    1        8.508000000000      18.011030058600      53.923790000000
       315    2        7.090000000000      13.917619941400      53.000000000000
       316    2        9.926000000000      18.829719941400      53.000000000000
       317    2        5.672000000000      11.461569941400      53.000000000000
       318    2        8.508000000000      16.373669941400      53.000000000000
       319    1        7.090000000000      10.642880058600      53.923790000000
       320    1        9.926000000000      15.554980058600      53.923790000000
       321    1       15.598000000000      10.642880058600      53.923790000000
       322    1       14.180000000000      13.098930058600      53.923790000000
       323    1       12.762000000000      15.554980058600      53.923790000000
       324    2       14.180000000000      11.461569941400      53.000000000000
       325    1       11.344000000000      18.011030058600      53.923790000000
       326    2       11.344000000000      16.373669941400      53.000000000000
       327    2       15.598000000000      13.917619941400      53.000000000000
       328    2       12.762000000000      18.829719941400      53.000000000000
       329    1       17.016000000000      13.098930058600      53.923790000000
       330    1       14.180000000000      18.011030058600      53.923790000000
       331    2       12.762000000000      13.917619941400      53.000000000000
       332    2       15.598000000000      18.829719941400      53.000000000000
       333    2       11.344000000000      11.461569941400      53.000000000000
       334    2       14.180000000000      16.373669941400      53.000000000000
       335    1       12.762000000000      10.642880058600      53.923790000000
       336    1       15.598000000000      15.554980058600      53.923790000000
       337    1       21.270000000000      10.642880058600      53.923790000000
       338    1       19.852000000000      13.098930058600      53.923790000000
       339    1       18.434000000000      15.554980058600      53.923790000000
       340    2       19.852000000000      11.461569941400      53.000000000000
       341    1       17.016000000000      18.011030058600      53.923790000000
       342    2       17.016000000000      16.373669941400      53.000000000000
       343    2       21.270000000000      13.917619941400      53.000000000000
       344    2       18.434000000000      18.829719941400      53.000000000000
       345    1       22.688000000000      13.098930058600      53.923790000000
       346    1       19.852000000000      18.011030058600      53.923790000000
       347    2       18.434000000000      13.917619941400      53.000000000000
       348    2       21.270000000000      18.829719941400      53.000000000000
       349    2       17.016000000000      11.461569941400      53.000000000000
       350    2       19.852000000000      16.373669941400      53.000000000000
       351    1       18.434000000000      10.642880058600      53.923790000000
       352    1       21.270000000000      15.554980058600      53.923790000000
       353    1       26.942000000000      10.642880058600      53.923790000000
       354    1       25.524000000000      13.098930058600      53.923790000000
       355    1       24.106000000000      15.554980058600      53.923790000000
       356    2       25.524000000000      11.461569941400      53.000000000000
       357    1       22.688000000000      18.011030058600      53.923790000000
       358    2       22.688000000000      16.373669941400      53.000000000000
       359    2       26.942000000000      13.917619941400      53.000000000000
       360    2       24.106000000000      18.829719941400      53.000000000000
       361    1       28.360000000000      13.098930058600      53.923790000000
       362    1       25.524000000000      18.011030058600      53.923790000000
       363    2       24.106000000000      13.917619941400      53.000000000000
       364    2       26.942000000000      18.829719941400      53.000000000000
       365    2       22.688000000000      11.461569941400      53.000000000000
       366    2       25.524000000000      16.373669941400      53.000000000000
       367    1       24.106000000000      10.642880058600      53.923790000000
       368    1       26.942000000000      15.554980058600      53.923790000000
       369    1       32.614000000000      10.642880058600      53.923790000000
       370    1       31.196000000000      13.098930058600      53.923790000000