 # Ge8 O8
  
        2720  atoms
           2  atom types
 
      0.000000000000     102.368900000000  xlo xhi
      0.000000000000     104.299000000000  ylo yhi
      0.000000000000      15.992300000000  zlo zhi
 
Masses
 
            1   72.63000000             # Ge
            2   15.99900000             # O
 
Atoms # atomic
 
         1    1        6.021700000000       3.476629856700       8.493222668600
         2    1        3.010850000000       8.691579856700       8.493222668600
         3    1        3.010850000000       3.476629856700       8.493222668600
         4    1        6.021700000000       8.691579856700       8.493222668600
         5    2        6.021700000000       1.738320143300       7.498773477700
         6    2        3.010850000000       6.953270143300       7.498773477700
         7    2        1.505425000000       4.345795143300       7.498773477700
         8    2        4.516275000000       9.560745143300       7.498773477700
         9    1        1.505425000000       0.869154856700       8.493222668600
        10    1        4.516275000000       6.084104856700       8.493222668600
        11    2        4.516275000000       4.345795143300       7.498773477700
        12    2        1.505425000000       9.560745143300       7.498773477700
        13    2        3.010850000000       1.738320143300       7.498773477700
        14    2        6.021700000000       6.953270143300       7.498773477700
        15    1        4.516275000000       0.869154856700       8.493222668600
        16    1        1.505425000000       6.084104856700       8.493222668600
        17    1       12.043400000000       3.476629856700       8.493222668600
        18    1        9.032550000000       8.691579856700       8.493222668600
        19    1        9.032550000000       3.476629856700       8.493222668600
        20    1       12.043400000000       8.691579856700       8.493222668600
        21    2       12.043400000000       1.738320143300       7.498773477700
        22    2        9.032550000000       6.953270143300       7.498773477700
        23    2        7.527125000000       4.345795143300       7.498773477700
        24    2       10.537975000000       9.560745143300       7.498773477700
        25    1        7.527125000000       0.869154856700       8.493222668600
        26    1       10.537975000000       6.084104856700       8.493222668600
        27    2       10.537975000000       4.345795143300       7.498773477700
        28    2        7.527125000000       9.560745143300       7.498773477700
        29    2        9.032550000000       1.738320143300       7.498773477700
        30    2       12.043400000000       6.953270143300       7.498773477700
        31    1       10.537975000000       0.869154856700       8.493222668600
        32    1        7.527125000000       6.084104856700       8.493222668600
        33    1       18.065100000000       3.476629856700       8.493222668600
        34    1       15.054250000000       8.691579856700       8.493222668600
        35    1       15.054250000000       3.476629856700       8.493222668600
        36    1       18.065100000000       8.691579856700       8.493222668600
        37    2       18.065100000000       1.738320143300       7.498773477700
        38    2       15.054250000000       6.953270143300       7.498773477700
        39    2       13.548825000000       4.345795143300       7.498773477700
        40    2       16.559675000000       9.560745143300       7.498773477700
        41    1       13.548825000000       0.869154856700       8.493222668600
        42    1       16.559675000000       6.084104856700       8.493222668600
        43    2       16.559675000000       4.345795143300       7.498773477700
        44    2       13.548825000000       9.560745143300       7.498773477700
        45    2       15.054250000000       1.738320143300       7.498773477700
        46    2       18.065100000000       6.953270143300       7.498773477700
        47    1       16.559675000000       0.869154856700       8.493222668600
        48    1       13.548825000000       6.084104856700       8.493222668600
        49    1       24.086800000000       3.476629856700       8.493222668600
        50    1       21.075950000000       8.691579856700       8.493222668600
        51    1       21.075950000000       3.476629856700       8.493222668600
        52    1       24.086800000000       8.691579856700       8.493222668600
        53    2       24.086800000000       1.738320143300       7.498773477700
        54    2       21.075950000000       6.953270143300       7.498773477700
        55    2       19.570525000000       4.345795143300       7.498773477700
        56    2       22.581375000000       9.560745143300       7.498773477700
        57    1       19.570525000000       0.869154856700       8.493222668600
        58    1       22.581375000000       6.084104856700       8.493222668600
        59    2       22.581375000000       4.345795143300       7.498773477700
        60    2       19.570525000000       9.560745143300       7.498773477700
        61    2       21.075950000000       1.738320143300       7.498773477700
        62    2       24.086800000000       6.953270143300       7.498773477700
        63    1       22.581375000000       0.869154856700       8.493222668600
        64    1       19.570525000000       6.084104856700       8.493222668600
        65    1       30.108500000000       3.476629856700       8.493222668600
        66    1       27.097650000000       8.691579856700       8.493222668600
        67    1       27.097650000000       3.476629856700       8.493222668600
        68    1       30.108500000000       8.691579856700       8.493222668600
        69    2       30.108500000000       1.738320143300       7.498773477700
        70    2       27.097650000000       6.953270143300       7.498773477700
        71    2       25.592225000000       4.345795143300       7.498773477700
        72    2       28.603075000000       9.560745143300       7.498773477700
        73    1       25.592225000000       0.869154856700       8.493222668600
        74    1       28.603075000000       6.084104856700       8.493222668600
        75    2       28.603075000000       4.345795143300       7.498773477700
        76    2       25.592225000000       9.560745143300       7.498773477700
        77    2       27.097650000000       1.738320143300       7.498773477700
        78    2       30.108500000000       6.953270143300       7.498773477700
        79    1       28.603075000000       0.869154856700       8.493222668600
        80    1       25.592225000000       6.084104856700       8.493222668600
        81    1       36.130200000000       3.476629856700       8.493222668600
        82    1       33.119350000000       8.691579856700       8.493222668600
        83    1       33.119350000000       3.476629856700       8.493222668600
        84    1       36.130200000000       8.691579856700       8.493222668600
        85    2       36.130200000000       1.738320143300       7.498773477700
        86    2       33.119350000000       6.953270143300       7.498773477700
        87    2       31.613925000000       4.345795143300       7.498773477700
        88    2       34.624775000000       9.560745143300       7.498773477700
        89    1       31.613925000000       0.869154856700       8.493222668600
        90    1       34.624775000000       6.084104856700       8.493222668600
        91    2       34.624775000000       4.345795143300       7.498773477700
        92    2       31.613925000000       9.560745143300       7.498773477700
        93    2       33.119350000000       1.738320143300       7.498773477700
        94    2       36.130200000000       6.953270143300       7.498773477700
        95    1       34.624775000000       0.869154856700       8.493222668600
        96    1       31.613925000000       6.084104856700       8.493222668600
        97    1       42.151900000000       3.476629856700       8.493222668600
        98    1       39.141050000000       8.691579856700       8.493222668600
        99    1       39.141050000000       3.476629856700       8.493222668600
       100    1       42.151900000000       8.691579856700       8.493222668600
       101    2       42.151900000000       1.738320143300       7.498773477700
       102    2       39.141050000000       6.953270143300       7.498773477700
       103    2       37.635625000000       4.345795143300       7.498773477700
       104    2       40.646475000000       9.560745143300       7.498773477700
       105    1       37.635625000000       0.869154856700       8.493222668600
       106    1       40.646475000000       6.084104856700       8.493222668600
       107    2       40.646475000000       4.345795143300       7.498773477700
       108    2       37.635625000000       9.560745143300       7.498773477700
       109    2       39.141050000000       1.738320143300       7.498773477700
       110    2       42.151900000000       6.953270143300       7.498773477700
       111    1       40.646475000000       0.869154856700       8.493222668600
       112    1       37.635625000000       6.084104856700       8.493222668600
       113    1       48.173600000000       3.476629856700       8.493222668600
       114    1       45.162750000000       8.691579856700       8.493222668600
       115    1       45.162750000000       3.476629856700       8.493222668600
       116    1       48.173600000000       8.691579856700       8.493222668600
       117    2       48.173600000000       1.738320143300       7.498773477700
       118    2       45.162750000000       6.953270143300       7.498773477700
       119    2       43.657325000000       4.345795143300       7.498773477700
       120    2       46.668175000000       9.560745143300       7.498773477700
       121    1       43.657325000000       0.869154856700       8.493222668600
       122    1       46.668175000000       6.084104856700       8.493222668600
       123    2       46.668175000000       4.345795143300       7.498773477700
       124    2       43.657325000000       9.560745143300       7.498773477700
       125    2       45.162750000000       1.738320143300       7.498773477700
       126    2       48.173600000000       6.953270143300       7.498773477700
       127    1       46.668175000000       0.869154856700       8.493222668600
       128    1       43.657325000000       6.084104856700       8.493222668600
       129    1       54.195300000000       3.476629856700       8.493222668600
       130    1       51.184450000000       8.691579856700       8.493222668600
       131    1       51.184450000000       3.476629856700       8.493222668600
       132    1       54.195300000000       8.691579856700       8.493222668600
       133    2       54.195300000000       1.738320143300       7.498773477700
       134    2       51.184450000000       6.953270143300       7.498773477700
       135    2       49.679025000000       4.345795143300       7.498773477700
       136    2       52.689875000000       9.560745143300       7.498773477700
       137    1       49.679025000000       0.869154856700       8.493222668600
       138    1       52.689875000000       6.084104856700       8.493222668600
       139    2       52.689875000000       4.345795143300       7.498773477700
       140    2       49.679025000000       9.560745143300       7.498773477700
       141    2       51.184450000000       1.738320143300       7.498773477700
       142    2       54.195300000000       6.953270143300       7.498773477700
       143    1       52.689875000000       0.869154856700       8.493222668600
       144    1       49.679025000000       6.084104856700       8.493222668600
       145    1       60.217000000000       3.476629856700       8.493222668600
       146    1       57.206150000000       8.691579856700       8.493222668600
       147    1       57.206150000000       3.476629856700       8.493222668600
       148    1       60.217000000000       8.691579856700       8.493222668600
       149    2       60.217000000000       1.738320143300       7.498773477700
       150    2       57.206150000000       6.953270143300       7.498773477700
       151    2       55.700725000000       4.345795143300       7.498773477700
       152    2       58.711575000000       9.560745143300       7.498773477700
       153    1       55.700725000000       0.869154856700       8.493222668600
       154    1       58.711575000000       6.084104856700       8.493222668600
       155    2       58.711575000000       4.345795143300       7.498773477700
       156    2       55.700725000000       9.560745143300       7.498773477700
       157    2       57.206150000000       1.738320143300       7.498773477700
       158    2       60.217000000000       6.953270143300       7.498773477700
       159    1       58.711575000000       0.869154856700       8.493222668600
       160    1       55.700725000000       6.084104856700       8.493222668600
       161    1       66.238700000000       3.476629856700       8.493222668600
       162    1       63.227850000000       8.691579856700       8.493222668600
       163    1       63.227850000000       3.476629856700       8.493222668600
       164    1       66.238700000000       8.691579856700       8.493222668600
       165    2       66.238700000000       1.738320143300       7.498773477700
       166    2       63.227850000000       6.953270143300       7.498773477700
       167    2       61.722425000000       4.345795143300       7.498773477700
       168    2       64.733275000000       9.560745143300       7.498773477700
       169    1       61.722425000000       0.869154856700       8.493222668600
       170    1       64.733275000000       6.084104856700       8.493222668600
       171    2       64.733275000000       4.345795143300       7.498773477700
       172    2       61.722425000000       9.560745143300       7.498773477700
       173    2       63.227850000000       1.738320143300       7.498773477700
       174    2       66.238700000000       6.953270143300       7.498773477700
       175    1       64.733275000000       0.869154856700       8.493222668600
       176    1       61.722425000000       6.084104856700       8.493222668600
       177    1       72.260400000000       3.476629856700       8.493222668600
       178    1       69.249550000000       8.691579856700       8.493222668600
       179    1       69.249550000000       3.476629856700       8.493222668600
       180    1       72.260400000000       8.691579856700       8.493222668600
       181    2       72.260400000000       1.738320143300       7.498773477700
       182    2       69.249550000000       6.953270143300       7.498773477700
       183    2       67.744125000000       4.345795143300       7.498773477700
       184    2       70.754975000000       9.560745143300       7.498773477700
       185    1       67.744125000000       0.869154856700       8.493222668600
       186    1       70.754975000000       6.084104856700       8.493222668600
       187    2       70.754975000000       4.345795143300       7.498773477700
       188    2       67.744125000000       9.560745143300       7.498773477700
       189    2       69.249550000000       1.738320143300       7.498773477700
       190    2       72.260400000000       6.953270143300       7.498773477700
       191    1       70.754975000000       0.869154856700       8.493222668600
       192    1       67.744125000000       6.084104856700       8.493222668600
       193    1       78.282100000000       3.476629856700       8.493222668600
       194    1       75.271250000000       8.691579856700       8.493222668600
       195    1       75.271250000000       3.476629856700       8.493222668600
       196    1       78.282100000000       8.691579856700       8.493222668600
       197    2       78.282100000000       1.738320143300       7.498773477700
       198    2       75.271250000000       6.953270143300       7.498773477700
       199    2       73.765825000000       4.345795143300       7.498773477700
       200    2       76.776675000000       9.560745143300       7.498773477700
       201    1       73.765825000000       0.869154856700       8.493222668600
       202    1       76.776675000000       6.084104856700       8.493222668600
       203    2       76.776675000000       4.345795143300       7.498773477700
       204    2       73.765825000000       9.560745143300       7.498773477700
       205    2       75.271250000000       1.738320143300       7.498773477700
       206    2       78.282100000000       6.953270143300       7.498773477700
       207    1       76.776675000000       0.869154856700       8.493222668600
       208    1       73.765825000000       6.084104856700       8.493222668600
       209    1       84.303800000000       3.476629856700       8.493222668600
       210    1       81.292950000000       8.691579856700       8.493222668600
       211    1       81.292950000000       3.476629856700       8.493222668600
       212    1       84.303800000000       8.691579856700       8.493222668600
       213    2       84.303800000000       1.738320143300       7.498773477700
       214    2       81.292950000000       6.953270143300       7.498773477700
       215    2       79.787525000000       4.345795143300       7.498773477700
       216    2       82.798375000000       9.560745143300       7.498773477700
       217    1       79.787525000000       0.869154856700       8.493222668600
       218    1       82.798375000000       6.084104856700       8.493222668600
       219    2       82.798375000000       4.345795143300       7.498773477700
       220    2       79.787525000000       9.560745143300       7.498773477700
       221    2       81.292950000000       1.738320143300       7.498773477700
       222    2       84.303800000000       6.953270143300       7.498773477700
       223    1       82.798375000000       0.869154856700       8.493222668600
       224    1       79.787525000000       6.084104856700       8.493222668600
       225    1       90.325500000000       3.476629856700       8.493222668600
       226    1       87.314650000000       8.691579856700       8.493222668600
       227    1       87.314650000000       3.476629856700       8.493222668600
       228    1       90.325500000000       8.691579856700       8.493222668600
       229    2       90.325500000000       1.738320143300       7.498773477700
       230    2       87.314650000000       6.953270143300       7.498773477700
       231    2       85.809225000000       4.345795143300       7.498773477700
       232    2       88.820075000000       9.560745143300       7.498773477700
       233    1       85.809225000000       0.869154856700       8.493222668600
       234    1       88.820075000000       6.084104856700       8.493222668600
       235    2       88.820075000000       4.345795143300       7.498773477700
       236    2       85.809225000000       9.560745143300       7.498773477700
       237    2       87.314650000000       1.738320143300       7.498773477700
       238    2       90.325500000000       6.953270143300       7.498773477700
       239    1       88.820075000000       0.869154856700       8.493222668600
       240    1       85.809225000000       6.084104856700       8.493222668600
       241    1       96.347200000000       3.476629856700       8.493222668600
       242    1       93.336350000000       8.691579856700       8.493222668600
       243    1       93.336350000000       3.476629856700       8.493222668600
       244    1       96.347200000000       8.691579856700       8.493222668600
       245    2       96.347200000000       1.738320143300       7.498773477700
       246    2       93.336350000000       6.953270143300       7.498773477700
       247    2       91.830925000000       4.345795143300       7.498773477700
       248    2       94.841775000000       9.560745143300       7.498773477700
       249    1       91.830925000000       0.869154856700       8.493222668600
       250    1       94.841775000000       6.084104856700       8.493222668600
       251    2       94.841775000000       4.345795143300       7.498773477700
       252    2       91.830925000000       9.560745143300       7.498773477700
       253    2       93.336350000000       1.738320143300       7.498773477700
       254    2       96.347200000000       6.953270143300       7.498773477700
       255    1       94.841775000000       0.869154856700       8.493222668600
       256    1       91.830925000000       6.084104856700       8.493222668600
       257    1      102.368900000000       3.476629856700       8.493222668600
       258    1       99.358050000000       8.691579856700       8.493222668600
       259    1       99.358050000000       3.476629856700       8.493222668600
       260    1      102.368900000000       8.691579856700       8.493222668600
       261    2      102.368900000000       1.738320143300       7.498773477700
       262    2       99.358050000000       6.953270143300       7.498773477700
       263    2       97.852625000000       4.345795143300       7.498773477700
       264    2      100.863475000000       9.560745143300       7.498773477700
       265    1       97.852625000000       0.869154856700       8.493222668600
       266    1      100.863475000000       6.084104856700       8.493222668600
       267    2      100.863475000000       4.345795143300       7.498773477700
       268    2       97.852625000000       9.560745143300       7.498773477700
       269    2       99.358050000000       1.738320143300       7.498773477700
       270    2      102.368900000000       6.953270143300       7.498773477700
       271    1      100.863475000000       0.869154856700       8.493222668600
       272    1       97.852625000000       6.084104856700       8.493222668600
       273    1        6.021700000000      13.906529856700       8.493222668600
       274    1        3.010850000000      19.121479856700       8.493222668600
       275    1        3.010850000000      13.906529856700       8.493222668600
       276    1        6.021700000000      19.121479856700       8.493222668600
       277    2        6.021700000000      12.168220143300       7.498773477700
       278    2        3.010850000000      17.383170143300       7.498773477700
       279    2        1.505425000000      14.775695143300       7.498773477700
       280    2        4.516275000000      19.990645143300       7.498773477700
       281    1        1.505425000000      11.299054856700       8.493222668600
       282    1        4.516275000000      16.514004856700       8.493222668600
       283    2        4.516275000000      14.775695143300       7.498773477700
       284    2        1.505425000000      19.990645143300       7.498773477700
       285    2        3.010850000000      12.168220143300       7.498773477700
       286    2        6.021700000000      17.383170143300       7.498773477700
       287    1        4.516275000000      11.299054856700       8.493222668600
       288    1        1.505425000000      16.514004856700       8.493222668600
       289    1       12.043400000000      13.906529856700       8.493222668600
       290    1        9.032550000000      19.121479856700       8.493222668600
       291    1        9.032550000000      13.906529856700       8.493222668600
       292    1       12.043400000000      19.121479856700       8.493222668600
       293    2       12.043400000000      12.168220143300       7.498773477700
       294    2        9.032550000000      17.383170143300       7.498773477700
       295    2        7.527125000000      14.775695143300       7.498773477700
       296    2       10.537975000000      19.990645143300       7.498773477700
       297    1        7.527125000000      11.299054856700       8.493222668600
       298    1       10.537975000000      16.514004856700       8.493222668600
       299    2       10.537975000000      14.775695143300       7.498773477700
       300    2        7.527125000000      19.990645143300       7.498773477700
       301    2        9.032550000000      12.168220143300       7.498773477700
       302    2       12.043400000000      17.383170143300       7.498773477700
       303    1       10.537975000000      11.299054856700       8.493222668600
       304    1        7.527125000000      16.514004856700       8.493222668600
       305    1       18.065100000000      13.906529856700       8.493222668600
       306    1       15.054250000000      19.121479856700       8.493222668600
       307    1       15.054250000000      13.906529856700       8.493222668600
       308    1       18.065100000000      19.121479856700       8.493222668600
       309    2       18.065100000000      12.168220143300       7.498773477700
       310    2       15.054250000000      17.383170143300       7.498773477700
       311    2       13.548825000000      14.775695143300       7.498773477700
       312    2       16.559675000000      19.990645143300       7.498773477700
       313    1       13.548825000000      11.299054856700       8.493222668600
       314    1       16.559675000000      16.514004856700       8.493222668600
       315    2       16.559675000000      14.775695143300       7.498773477700
       316    2       13.548825000000      19.990645143300       7.498773477700
       317    2       15.054250000000      12.168220143300       7.498773477700
       318    2       18.065100000000      17.383170143300       7.498773477700
       319    1       16.559675000000      11.299054856700       8.493222668600
       320    1       13.548825000000      16.514004856700       8.493222668600
       321    1       24.086800000000      13.906529856700       8.493222668600
       322    1       21.075950000000      19.121479856700       8.493222668600
       323    1       21.075950000000      13.906529856700       8.493222668600
       324    1       24.086800000000      19.121479856700       8.493222668600
       325    2       24.086800000000      12.168220143300       7.498773477700
       326    2       21.075950000000      17.383170143300       7.498773477700
       327    2       19.570525000000      14.775695143300       7.498773477700
       328    2       22.581375000000      19.990645143300       7.498773477700
       329    1       19.570525000000      11.299054856700       8.493222668600
       330    1       22.581375000000      16.514004856700       8.493222668600
       331    2       22.581375000000      14.775695143300       7.498773477700
       332    2       19.570525000000      19.990645143300       7.498773477700
       333    2       21.075950000000      12.168220143300       7.498773477700
       334    2       24.086800000000      17.383170143300       7.498773477700
       335    1       22.581375000000      11.299054856700       8.493222668600
       336    1       19.570525000000      16.514004856700       8.493222668600
       337    1       30.108500000000      13.906529856700       8.493222668600
       338    1       27.097650000000      19.121479856700       8.493222668600
       339    1       27.097650000000      13.906529856700       8.493222668600
       340    1       30.108500000000      19.121479856700       8.493222668600
       341    2       30.108500000000      12.168220143300       7.498773477700
       342    2       27.097650000000      17.383170143300       7.498773477700
       343    2       25.592225000000      14.775695143300       7.498773477700
       344    2       28.603075000000      19.990645143300       7.498773477700
       345    1       25.592225000000      11.299054856700       8.493222668600
       346    1       28.603075000000      16.514004856700       8.493222668600
       347    2       28.603075000000      14.775695143300       7.498773477700
       348    2       25.592225000000      19.990645143300       7.498773477700
       349    2       27.097650000000      12.168220143300       7.498773477700
       350    2       30.108500000000      17.383170143300       7.498773477700
       351    1       28.603075000000      11.299054856700       8.493222668600
       352    1       25.592225000000      16.514004856700       8.493222668600
       353    1       36.130200000000      13.906529856700       8.493222668600
       354    1       33.119350000000      19.121479856700       8.493222668600
       355    1       33.119350000000      13.906529856700       8.493222668600
       356    1       36.130200000000      19.121479856700       8.493222668600
       357    2       36.130200000000      12.168220143300       7.498773477700
       358    2       33.119350000000      17.383170143300       7.498773477700
       359    2       31.613925000000      14.775695143300       7.498773477700
       360    2       34.624775000000      19.990645143300       7.498773477700
       361    1       31.613925000000      11.299054856700       8.493222668600
       362    1       34.624775000000      16.514004856700       8.493222668600
       363    2       34.624775000000      14.775695143300       7.498773477700
       364    2       31.613925000000      19.990645143300       7.498773477700
       365    2       33.119350000000      12.168220143300       7.498773477700
       366    2       36.130200000000      17.383170143300       7.498773477700
       367    1       34.624775000000      11.299054856700       8.493222668600
       368    1       31.613925000000      16.514004856700       8.493222668600
       369    1       42.151900000000      13.906529856700       8.493222668600
       370    1       39.141050000000      19.121479856700       8.493222668600