 # S8 Ge8
  
        1792  atoms
           2  atom types
 
      0.000000000000      97.673800000000  xlo xhi
      0.000000000000      96.672000000000  ylo yhi
      0.000000000000      16.359800000000  zlo zhi
 
Masses
 
            1   32.06000000             # S
            2   72.63000000             # Ge
 
Atoms # atomic
 
         1    1        1.744175000000       5.035004028000       7.499217801400
         2    2        3.488350000000       4.027995972000       8.860255002600
         3    2        0.000000000000      10.069995972000       8.860255002600
         4    1        5.232525000000      11.077004028000       7.499217801400
         5    1        3.488350000000       2.014004028000       7.499217801400
         6    2        6.976700000000       4.027995972000       8.860255002600
         7    1        6.976700000000       8.056004028000       7.499217801400
         8    1        5.232525000000       5.035004028000       7.499217801400
         9    2        3.488350000000      10.069995972000       8.860255002600
        10    1        1.744175000000      11.077004028000       7.499217801400
        11    2        5.232525000000       1.006995972000       8.860255002600
        12    2        1.744175000000       7.048995972000       8.860255002600
        13    1        6.976700000000       2.014004028000       7.499217801400
        14    1        3.488350000000       8.056004028000       7.499217801400
        15    2        1.744175000000       1.006995972000       8.860255002600
        16    2        5.232525000000       7.048995972000       8.860255002600
        17    1        8.720875000000       5.035004028000       7.499217801400
        18    2       10.465050000000       4.027995972000       8.860255002600
        19    2        6.976700000000      10.069995972000       8.860255002600
        20    1       12.209225000000      11.077004028000       7.499217801400
        21    1       10.465050000000       2.014004028000       7.499217801400
        22    2       13.953400000000       4.027995972000       8.860255002600
        23    1       13.953400000000       8.056004028000       7.499217801400
        24    1       12.209225000000       5.035004028000       7.499217801400
        25    2       10.465050000000      10.069995972000       8.860255002600
        26    1        8.720875000000      11.077004028000       7.499217801400
        27    2       12.209225000000       1.006995972000       8.860255002600
        28    2        8.720875000000       7.048995972000       8.860255002600
        29    1       13.953400000000       2.014004028000       7.499217801400
        30    1       10.465050000000       8.056004028000       7.499217801400
        31    2        8.720875000000       1.006995972000       8.860255002600
        32    2       12.209225000000       7.048995972000       8.860255002600
        33    1       15.697575000000       5.035004028000       7.499217801400
        34    2       17.441750000000       4.027995972000       8.860255002600
        35    2       13.953400000000      10.069995972000       8.860255002600
        36    1       19.185925000000      11.077004028000       7.499217801400
        37    1       17.441750000000       2.014004028000       7.499217801400
        38    2       20.930100000000       4.027995972000       8.860255002600
        39    1       20.930100000000       8.056004028000       7.499217801400
        40    1       19.185925000000       5.035004028000       7.499217801400
        41    2       17.441750000000      10.069995972000       8.860255002600
        42    1       15.697575000000      11.077004028000       7.499217801400
        43    2       19.185925000000       1.006995972000       8.860255002600
        44    2       15.697575000000       7.048995972000       8.860255002600
        45    1       20.930100000000       2.014004028000       7.499217801400
        46    1       17.441750000000       8.056004028000       7.499217801400
        47    2       15.697575000000       1.006995972000       8.860255002600
        48    2       19.185925000000       7.048995972000       8.860255002600
        49    1       22.674275000000       5.035004028000       7.499217801400
        50    2       24.418450000000       4.027995972000       8.860255002600
        51    2       20.930100000000      10.069995972000       8.860255002600
        52    1       26.162625000000      11.077004028000       7.499217801400
        53    1       24.418450000000       2.014004028000       7.499217801400
        54    2       27.906800000000       4.027995972000       8.860255002600
        55    1       27.906800000000       8.056004028000       7.499217801400
        56    1       26.162625000000       5.035004028000       7.499217801400
        57    2       24.418450000000      10.069995972000       8.860255002600
        58    1       22.674275000000      11.077004028000       7.499217801400
        59    2       26.162625000000       1.006995972000       8.860255002600
        60    2       22.674275000000       7.048995972000       8.860255002600
        61    1       27.906800000000       2.014004028000       7.499217801400
        62    1       24.418450000000       8.056004028000       7.499217801400
        63    2       22.674275000000       1.006995972000       8.860255002600
        64    2       26.162625000000       7.048995972000       8.860255002600
        65    1       29.650975000000       5.035004028000       7.499217801400
        66    2       31.395150000000       4.027995972000       8.860255002600
        67    2       27.906800000000      10.069995972000       8.860255002600
        68    1       33.139325000000      11.077004028000       7.499217801400
        69    1       31.395150000000       2.014004028000       7.499217801400
        70    2       34.883500000000       4.027995972000       8.860255002600
        71    1       34.883500000000       8.056004028000       7.499217801400
        72    1       33.139325000000       5.035004028000       7.499217801400
        73    2       31.395150000000      10.069995972000       8.860255002600
        74    1       29.650975000000      11.077004028000       7.499217801400
        75    2       33.139325000000       1.006995972000       8.860255002600
        76    2       29.650975000000       7.048995972000       8.860255002600
        77    1       34.883500000000       2.014004028000       7.499217801400
        78    1       31.395150000000       8.056004028000       7.499217801400
        79    2       29.650975000000       1.006995972000       8.860255002600
        80    2       33.139325000000       7.048995972000       8.860255002600
        81    1       36.627675000000       5.035004028000       7.499217801400
        82    2       38.371850000000       4.027995972000       8.860255002600
        83    2       34.883500000000      10.069995972000       8.860255002600
        84    1       40.116025000000      11.077004028000       7.499217801400
        85    1       38.371850000000       2.014004028000       7.499217801400
        86    2       41.860200000000       4.027995972000       8.860255002600
        87    1       41.860200000000       8.056004028000       7.499217801400
        88    1       40.116025000000       5.035004028000       7.499217801400
        89    2       38.371850000000      10.069995972000       8.860255002600
        90    1       36.627675000000      11.077004028000       7.499217801400
        91    2       40.116025000000       1.006995972000       8.860255002600
        92    2       36.627675000000       7.048995972000       8.860255002600
        93    1       41.860200000000       2.014004028000       7.499217801400
        94    1       38.371850000000       8.056004028000       7.499217801400
        95    2       36.627675000000       1.006995972000       8.860255002600
        96    2       40.116025000000       7.048995972000       8.860255002600
        97    1       43.604375000000       5.035004028000       7.499217801400
        98    2       45.348550000000       4.027995972000       8.860255002600
        99    2       41.860200000000      10.069995972000       8.860255002600
       100    1       47.092725000000      11.077004028000       7.499217801400
       101    1       45.348550000000       2.014004028000       7.499217801400
       102    2       48.836900000000       4.027995972000       8.860255002600
       103    1       48.836900000000       8.056004028000       7.499217801400
       104    1       47.092725000000       5.035004028000       7.499217801400
       105    2       45.348550000000      10.069995972000       8.860255002600
       106    1       43.604375000000      11.077004028000       7.499217801400
       107    2       47.092725000000       1.006995972000       8.860255002600
       108    2       43.604375000000       7.048995972000       8.860255002600
       109    1       48.836900000000       2.014004028000       7.499217801400
       110    1       45.348550000000       8.056004028000       7.499217801400
       111    2       43.604375000000       1.006995972000       8.860255002600
       112    2       47.092725000000       7.048995972000       8.860255002600
       113    1       50.581075000000       5.035004028000       7.499217801400
       114    2       52.325250000000       4.027995972000       8.860255002600
       115    2       48.836900000000      10.069995972000       8.860255002600
       116    1       54.069425000000      11.077004028000       7.499217801400
       117    1       52.325250000000       2.014004028000       7.499217801400
       118    2       55.813600000000       4.027995972000       8.860255002600
       119    1       55.813600000000       8.056004028000       7.499217801400
       120    1       54.069425000000       5.035004028000       7.499217801400
       121    2       52.325250000000      10.069995972000       8.860255002600
       122    1       50.581075000000      11.077004028000       7.499217801400
       123    2       54.069425000000       1.006995972000       8.860255002600
       124    2       50.581075000000       7.048995972000       8.860255002600
       125    1       55.813600000000       2.014004028000       7.499217801400
       126    1       52.325250000000       8.056004028000       7.499217801400
       127    2       50.581075000000       1.006995972000       8.860255002600
       128    2       54.069425000000       7.048995972000       8.860255002600
       129    1       57.557775000000       5.035004028000       7.499217801400
       130    2       59.301950000000       4.027995972000       8.860255002600
       131    2       55.813600000000      10.069995972000       8.860255002600
       132    1       61.046125000000      11.077004028000       7.499217801400
       133    1       59.301950000000       2.014004028000       7.499217801400
       134    2       62.790300000000       4.027995972000       8.860255002600
       135    1       62.790300000000       8.056004028000       7.499217801400
       136    1       61.046125000000       5.035004028000       7.499217801400
       137    2       59.301950000000      10.069995972000       8.860255002600
       138    1       57.557775000000      11.077004028000       7.499217801400
       139    2       61.046125000000       1.006995972000       8.860255002600
       140    2       57.557775000000       7.048995972000       8.860255002600
       141    1       62.790300000000       2.014004028000       7.499217801400
       142    1       59.301950000000       8.056004028000       7.499217801400
       143    2       57.557775000000       1.006995972000       8.860255002600
       144    2       61.046125000000       7.048995972000       8.860255002600
       145    1       64.534475000000       5.035004028000       7.499217801400
       146    2       66.278650000000       4.027995972000       8.860255002600
       147    2       62.790300000000      10.069995972000       8.860255002600
       148    1       68.022825000000      11.077004028000       7.499217801400
       149    1       66.278650000000       2.014004028000       7.499217801400
       150    2       69.767000000000       4.027995972000       8.860255002600
       151    1       69.767000000000       8.056004028000       7.499217801400
       152    1       68.022825000000       5.035004028000       7.499217801400
       153    2       66.278650000000      10.069995972000       8.860255002600
       154    1       64.534475000000      11.077004028000       7.499217801400
       155    2       68.022825000000       1.006995972000       8.860255002600
       156    2       64.534475000000       7.048995972000       8.860255002600
       157    1       69.767000000000       2.014004028000       7.499217801400
       158    1       66.278650000000       8.056004028000       7.499217801400
       159    2       64.534475000000       1.006995972000       8.860255002600
       160    2       68.022825000000       7.048995972000       8.860255002600
       161    1       71.511175000000       5.035004028000       7.499217801400
       162    2       73.255350000000       4.027995972000       8.860255002600
       163    2       69.767000000000      10.069995972000       8.860255002600
       164    1       74.999525000000      11.077004028000       7.499217801400
       165    1       73.255350000000       2.014004028000       7.499217801400
       166    2       76.743700000000       4.027995972000       8.860255002600
       167    1       76.743700000000       8.056004028000       7.499217801400
       168    1       74.999525000000       5.035004028000       7.499217801400
       169    2       73.255350000000      10.069995972000       8.860255002600
       170    1       71.511175000000      11.077004028000       7.499217801400
       171    2       74.999525000000       1.006995972000       8.860255002600
       172    2       71.511175000000       7.048995972000       8.860255002600
       173    1       76.743700000000       2.014004028000       7.499217801400
       174    1       73.255350000000       8.056004028000       7.499217801400
       175    2       71.511175000000       1.006995972000       8.860255002600
       176    2       74.999525000000       7.048995972000       8.860255002600
       177    1       78.487875000000       5.035004028000       7.499217801400
       178    2       80.232050000000       4.027995972000       8.860255002600
       179    2       76.743700000000      10.069995972000       8.860255002600
       180    1       81.976225000000      11.077004028000       7.499217801400
       181    1       80.232050000000       2.014004028000       7.499217801400
       182    2       83.720400000000       4.027995972000       8.860255002600
       183    1       83.720400000000       8.056004028000       7.499217801400
       184    1       81.976225000000       5.035004028000       7.499217801400
       185    2       80.232050000000      10.069995972000       8.860255002600
       186    1       78.487875000000      11.077004028000       7.499217801400
       187    2       81.976225000000       1.006995972000       8.860255002600
       188    2       78.487875000000       7.048995972000       8.860255002600
       189    1       83.720400000000       2.014004028000       7.499217801400
       190    1       80.232050000000       8.056004028000       7.499217801400
       191    2       78.487875000000       1.006995972000       8.860255002600
       192    2       81.976225000000       7.048995972000       8.860255002600
       193    1       85.464575000000       5.035004028000       7.499217801400
       194    2       87.208750000000       4.027995972000       8.860255002600
       195    2       83.720400000000      10.069995972000       8.860255002600
       196    1       88.952925000000      11.077004028000       7.499217801400
       197    1       87.208750000000       2.014004028000       7.499217801400
       198    2       90.697100000000       4.027995972000       8.860255002600
       199    1       90.697100000000       8.056004028000       7.499217801400
       200    1       88.952925000000       5.035004028000       7.499217801400
       201    2       87.208750000000      10.069995972000       8.860255002600
       202    1       85.464575000000      11.077004028000       7.499217801400
       203    2       88.952925000000       1.006995972000       8.860255002600
       204    2       85.464575000000       7.048995972000       8.860255002600
       205    1       90.697100000000       2.014004028000       7.499217801400
       206    1       87.208750000000       8.056004028000       7.499217801400
       207    2       85.464575000000       1.006995972000       8.860255002600
       208    2       88.952925000000       7.048995972000       8.860255002600
       209    1       92.441275000000       5.035004028000       7.499217801400
       210    2       94.185450000000       4.027995972000       8.860255002600
       211    2       90.697100000000      10.069995972000       8.860255002600
       212    1       95.929625000000      11.077004028000       7.499217801400
       213    1       94.185450000000       2.014004028000       7.499217801400
       214    2       97.673800000000       4.027995972000       8.860255002600
       215    1       97.673800000000       8.056004028000       7.499217801400
       216    1       95.929625000000       5.035004028000       7.499217801400
       217    2       94.185450000000      10.069995972000       8.860255002600
       218    1       92.441275000000      11.077004028000       7.499217801400
       219    2       95.929625000000       1.006995972000       8.860255002600
       220    2       92.441275000000       7.048995972000       8.860255002600
       221    1       97.673800000000       2.014004028000       7.499217801400
       222    1       94.185450000000       8.056004028000       7.499217801400
       223    2       92.441275000000       1.006995972000       8.860255002600
       224    2       95.929625000000       7.048995972000       8.860255002600
       225    1        1.744175000000      17.119004028000       7.499217801400
       226    2        3.488350000000      16.111995972000       8.860255002600
       227    2        0.000000000000      22.153995972000       8.860255002600
       228    1        5.232525000000      23.161004028000       7.499217801400
       229    1        3.488350000000      14.098004028000       7.499217801400
       230    2        6.976700000000      16.111995972000       8.860255002600
       231    1        6.976700000000      20.140004028000       7.499217801400
       232    1        5.232525000000      17.119004028000       7.499217801400
       233    2        3.488350000000      22.153995972000       8.860255002600
       234    1        1.744175000000      23.161004028000       7.499217801400
       235    2        5.232525000000      13.090995972000       8.860255002600
       236    2        1.744175000000      19.132995972000       8.860255002600
       237    1        6.976700000000      14.098004028000       7.499217801400
       238    1        3.488350000000      20.140004028000       7.499217801400
       239    2        1.744175000000      13.090995972000       8.860255002600
       240    2        5.232525000000      19.132995972000       8.860255002600
       241    1        8.720875000000      17.119004028000       7.499217801400
       242    2       10.465050000000      16.111995972000       8.860255002600
       243    2        6.976700000000      22.153995972000       8.860255002600
       244    1       12.209225000000      23.161004028000       7.499217801400
       245    1       10.465050000000      14.098004028000       7.499217801400
       246    2       13.953400000000      16.111995972000       8.860255002600
       247    1       13.953400000000      20.140004028000       7.499217801400
       248    1       12.209225000000      17.119004028000       7.499217801400
       249    2       10.465050000000      22.153995972000       8.860255002600
       250    1        8.720875000000      23.161004028000       7.499217801400
       251    2       12.209225000000      13.090995972000       8.860255002600
       252    2        8.720875000000      19.132995972000       8.860255002600
       253    1       13.953400000000      14.098004028000       7.499217801400
       254    1       10.465050000000      20.140004028000       7.499217801400
       255    2        8.720875000000      13.090995972000       8.860255002600
       256    2       12.209225000000      19.132995972000       8.860255002600
       257    1       15.697575000000      17.119004028000       7.499217801400
       258    2       17.441750000000      16.111995972000       8.860255002600
       259    2       13.953400000000      22.153995972000       8.860255002600
       260    1       19.185925000000      23.161004028000       7.499217801400
       261    1       17.441750000000      14.098004028000       7.499217801400
       262    2       20.930100000000      16.111995972000       8.860255002600
       263    1       20.930100000000      20.140004028000       7.499217801400
       264    1       19.185925000000      17.119004028000       7.499217801400
       265    2       17.441750000000      22.153995972000       8.860255002600
       266    1       15.697575000000      23.161004028000       7.499217801400
       267    2       19.185925000000      13.090995972000       8.860255002600
       268    2       15.697575000000      19.132995972000       8.860255002600
       269    1       20.930100000000      14.098004028000       7.499217801400
       270    1       17.441750000000      20.140004028000       7.499217801400
       271    2       15.697575000000      13.090995972000       8.860255002600
       272    2       19.185925000000      19.132995972000       8.860255002600
       273    1       22.674275000000      17.119004028000       7.499217801400
       274    2       24.418450000000      16.111995972000       8.860255002600
       275    2       20.930100000000      22.153995972000       8.860255002600
       276    1       26.162625000000      23.161004028000       7.499217801400
       277    1       24.418450000000      14.098004028000       7.499217801400
       278    2       27.906800000000      16.111995972000       8.860255002600
       279    1       27.906800000000      20.140004028000       7.499217801400
       280    1       26.162625000000      17.119004028000       7.499217801400
       281    2       24.418450000000      22.153995972000       8.860255002600
       282    1       22.674275000000      23.161004028000       7.499217801400
       283    2       26.162625000000      13.090995972000       8.860255002600
       284    2       22.674275000000      19.132995972000       8.860255002600
       285    1       27.906800000000      14.098004028000       7.499217801400
       286    1       24.418450000000      20.140004028000       7.499217801400
       287    2       22.674275000000      13.090995972000       8.860255002600
       288    2       26.162625000000      19.132995972000       8.860255002600
       289    1       29.650975000000      17.119004028000       7.499217801400
       290    2       31.395150000000      16.111995972000       8.860255002600
       291    2       27.906800000000      22.153995972000       8.860255002600
       292    1       33.139325000000      23.161004028000       7.499217801400
       293    1       31.395150000000      14.098004028000       7.499217801400
       294    2       34.883500000000      16.111995972000       8.860255002600
       295    1       34.883500000000      20.140004028000       7.499217801400
       296    1       33.139325000000      17.119004028000       7.499217801400
       297    2       31.395150000000      22.153995972000       8.860255002600
       298    1       29.650975000000      23.161004028000       7.499217801400
       299    2       33.139325000000      13.090995972000       8.860255002600
       300    2       29.650975000000      19.132995972000       8.860255002600
       301    1       34.883500000000      14.098004028000       7.499217801400
       302    1       31.395150000000      20.140004028000       7.499217801400
       303    2       29.650975000000      13.090995972000       8.860255002600
       304    2       33.139325000000      19.132995972000       8.860255002600
       305    1       36.627675000000      17.119004028000       7.499217801400
       306    2       38.371850000000      16.111995972000       8.860255002600
       307    2       34.883500000000      22.153995972000       8.860255002600
       308    1       40.116025000000      23.161004028000       7.499217801400
       309    1       38.371850000000      14.098004028000       7.499217801400
       310    2       41.860200000000      16.111995972000       8.860255002600
       311    1       41.860200000000      20.140004028000       7.499217801400
       312    1       40.116025000000      17.119004028000       7.499217801400
       313    2       38.371850000000      22.153995972000       8.860255002600
       314    1       36.627675000000      23.161004028000       7.499217801400
       315    2       40.116025000000      13.090995972000       8.860255002600
       316    2       36.627675000000      19.132995972000       8.860255002600
       317    1       41.860200000000      14.098004028000       7.499217801400
       318    1       38.371850000000      20.140004028000       7.499217801400
       319    2       36.627675000000      13.090995972000       8.860255002600
       320    2       40.116025000000      19.132995972000       8.860255002600
       321    1       43.604375000000      17.119004028000       7.499217801400
       322    2       45.348550000000      16.111995972000       8.860255002600
       323    2       41.860200000000      22.153995972000       8.860255002600
       324    1       47.092725000000      23.161004028000       7.499217801400
       325    1       45.348550000000      14.098004028000       7.499217801400
       326    2       48.836900000000      16.111995972000       8.860255002600
       327    1       48.836900000000      20.140004028000       7.499217801400
       328    1       47.092725000000      17.119004028000       7.499217801400
       329    2       45.348550000000      22.153995972000       8.860255002600
       330    1       43.604375000000      23.161004028000       7.499217801400
       331    2       47.092725000000      13.090995972000       8.860255002600
       332    2       43.604375000000      19.132995972000       8.860255002600
       333    1       48.836900000000      14.098004028000       7.499217801400
       334    1       45.348550000000      20.140004028000       7.499217801400
       335    2       43.604375000000      13.090995972000       8.860255002600
       336    2       47.092725000000      19.132995972000       8.860255002600
       337    1       50.581075000000      17.119004028000       7.499217801400
       338    2       52.325250000000      16.111995972000       8.860255002600
       339    2       48.836900000000      22.153995972000       8.860255002600
       340    1       54.069425000000      23.161004028000       7.499217801400
       341    1       52.325250000000      14.098004028000       7.499217801400
       342    2       55.813600000000      16.111995972000       8.860255002600
       343    1       55.813600000000      20.140004028000       7.499217801400
       344    1       54.069425000000      17.119004028000       7.499217801400
       345    2       52.325250000000      22.153995972000       8.860255002600
       346    1       50.581075000000      23.161004028000       7.499217801400
       347    2       54.069425000000      13.090995972000       8.860255002600
       348    2       50.581075000000      19.132995972000       8.860255002600
       349    1       55.813600000000      14.098004028000       7.499217801400
       350    1       52.325250000000      20.140004028000       7.499217801400
       351    2       50.581075000000      13.090995972000       8.860255002600
       352    2       54.069425000000      19.132995972000       8.860255002600
       353    1       57.557775000000      17.119004028000       7.499217801400
       354    2       59.301950000000      16.111995972000       8.860255002600
       355    2       55.813600000000      22.153995972000       8.860255002600
       356    1       61.046125000000      23.161004028000       7.499217801400
       357    1       59.301950000000      14.098004028000       7.499217801400
       358    2       62.790300000000      16.111995972000       8.860255002600
       359    1       62.790300000000      20.140004028000       7.499217801400
       360    1       61.046125000000      17.119004028000       7.499217801400
       361    2       59.301950000000      22.153995972000       8.860255002600
       362    1       57.557775000000      23.161004028000       7.499217801400
       363    2       61.046125000000      13.090995972000       8.860255002600
       364    2       57.557775000000      19.132995972000       8.860255002600
       365    1       62.790300000000      14.098004028000       7.499217801400
       366    1       59.301950000000      20.140004028000       7.499217801400
       367    2       57.557775000000      13.090995972000       8.860255002600
       368    2       61.046125000000      19.132995972000       8.860255002600
       369    1       64.534475000000      17.119004028000       7.499217801400
       370    2       66.278650000000      16.111995972000       8.860255002600