 # Se8 Ge8
  
        1792  atoms
           2  atom types
 
      0.000000000000     102.653600000000  xlo xhi
      0.000000000000     101.600800000000  ylo yhi
      0.000000000000      16.445300000000  zlo zhi
 
Masses
 
            1   78.96000000             # Se
            2   72.63000000             # Ge
 
Atoms # atomic
 
         1    1        1.833100000000       5.291712566700       7.498892347000
         2    2        5.499300000000       1.058337433300       8.946259645300
         3    1        5.499300000000       5.291712566700       7.498892347000
         4    2        1.833100000000       7.408387433300       8.946259645300
         5    1        5.499300000000      11.641762566700       7.498892347000
         6    1        1.833100000000      11.641762566700       7.498892347000
         7    2        3.666200000000       4.233362433300       8.946259645300
         8    2        7.332400000000      10.583412433300       8.946259645300
         9    1        3.666200000000       2.116687566700       7.498892347000
        10    1        7.332400000000       8.466737566700       7.498892347000
        11    2        1.833100000000       1.058337433300       8.946259645300
        12    2        5.499300000000       7.408387433300       8.946259645300
        13    2        7.332400000000       4.233362433300       8.946259645300
        14    2        3.666200000000      10.583412433300       8.946259645300
        15    1        7.332400000000       2.116687566700       7.498892347000
        16    1        3.666200000000       8.466737566700       7.498892347000
        17    1        9.165500000000       5.291712566700       7.498892347000
        18    2       12.831700000000       1.058337433300       8.946259645300
        19    1       12.831700000000       5.291712566700       7.498892347000
        20    2        9.165500000000       7.408387433300       8.946259645300
        21    1       12.831700000000      11.641762566700       7.498892347000
        22    1        9.165500000000      11.641762566700       7.498892347000
        23    2       10.998600000000       4.233362433300       8.946259645300
        24    2       14.664800000000      10.583412433300       8.946259645300
        25    1       10.998600000000       2.116687566700       7.498892347000
        26    1       14.664800000000       8.466737566700       7.498892347000
        27    2        9.165500000000       1.058337433300       8.946259645300
        28    2       12.831700000000       7.408387433300       8.946259645300
        29    2       14.664800000000       4.233362433300       8.946259645300
        30    2       10.998600000000      10.583412433300       8.946259645300
        31    1       14.664800000000       2.116687566700       7.498892347000
        32    1       10.998600000000       8.466737566700       7.498892347000
        33    1       16.497900000000       5.291712566700       7.498892347000
        34    2       20.164100000000       1.058337433300       8.946259645300
        35    1       20.164100000000       5.291712566700       7.498892347000
        36    2       16.497900000000       7.408387433300       8.946259645300
        37    1       20.164100000000      11.641762566700       7.498892347000
        38    1       16.497900000000      11.641762566700       7.498892347000
        39    2       18.331000000000       4.233362433300       8.946259645300
        40    2       21.997200000000      10.583412433300       8.946259645300
        41    1       18.331000000000       2.116687566700       7.498892347000
        42    1       21.997200000000       8.466737566700       7.498892347000
        43    2       16.497900000000       1.058337433300       8.946259645300
        44    2       20.164100000000       7.408387433300       8.946259645300
        45    2       21.997200000000       4.233362433300       8.946259645300
        46    2       18.331000000000      10.583412433300       8.946259645300
        47    1       21.997200000000       2.116687566700       7.498892347000
        48    1       18.331000000000       8.466737566700       7.498892347000
        49    1       23.830300000000       5.291712566700       7.498892347000
        50    2       27.496500000000       1.058337433300       8.946259645300
        51    1       27.496500000000       5.291712566700       7.498892347000
        52    2       23.830300000000       7.408387433300       8.946259645300
        53    1       27.496500000000      11.641762566700       7.498892347000
        54    1       23.830300000000      11.641762566700       7.498892347000
        55    2       25.663400000000       4.233362433300       8.946259645300
        56    2       29.329600000000      10.583412433300       8.946259645300
        57    1       25.663400000000       2.116687566700       7.498892347000
        58    1       29.329600000000       8.466737566700       7.498892347000
        59    2       23.830300000000       1.058337433300       8.946259645300
        60    2       27.496500000000       7.408387433300       8.946259645300
        61    2       29.329600000000       4.233362433300       8.946259645300
        62    2       25.663400000000      10.583412433300       8.946259645300
        63    1       29.329600000000       2.116687566700       7.498892347000
        64    1       25.663400000000       8.466737566700       7.498892347000
        65    1       31.162700000000       5.291712566700       7.498892347000
        66    2       34.828900000000       1.058337433300       8.946259645300
        67    1       34.828900000000       5.291712566700       7.498892347000
        68    2       31.162700000000       7.408387433300       8.946259645300
        69    1       34.828900000000      11.641762566700       7.498892347000
        70    1       31.162700000000      11.641762566700       7.498892347000
        71    2       32.995800000000       4.233362433300       8.946259645300
        72    2       36.662000000000      10.583412433300       8.946259645300
        73    1       32.995800000000       2.116687566700       7.498892347000
        74    1       36.662000000000       8.466737566700       7.498892347000
        75    2       31.162700000000       1.058337433300       8.946259645300
        76    2       34.828900000000       7.408387433300       8.946259645300
        77    2       36.662000000000       4.233362433300       8.946259645300
        78    2       32.995800000000      10.583412433300       8.946259645300
        79    1       36.662000000000       2.116687566700       7.498892347000
        80    1       32.995800000000       8.466737566700       7.498892347000
        81    1       38.495100000000       5.291712566700       7.498892347000
        82    2       42.161300000000       1.058337433300       8.946259645300
        83    1       42.161300000000       5.291712566700       7.498892347000
        84    2       38.495100000000       7.408387433300       8.946259645300
        85    1       42.161300000000      11.641762566700       7.498892347000
        86    1       38.495100000000      11.641762566700       7.498892347000
        87    2       40.328200000000       4.233362433300       8.946259645300
        88    2       43.994400000000      10.583412433300       8.946259645300
        89    1       40.328200000000       2.116687566700       7.498892347000
        90    1       43.994400000000       8.466737566700       7.498892347000
        91    2       38.495100000000       1.058337433300       8.946259645300
        92    2       42.161300000000       7.408387433300       8.946259645300
        93    2       43.994400000000       4.233362433300       8.946259645300
        94    2       40.328200000000      10.583412433300       8.946259645300
        95    1       43.994400000000       2.116687566700       7.498892347000
        96    1       40.328200000000       8.466737566700       7.498892347000
        97    1       45.827500000000       5.291712566700       7.498892347000
        98    2       49.493700000000       1.058337433300       8.946259645300
        99    1       49.493700000000       5.291712566700       7.498892347000
       100    2       45.827500000000       7.408387433300       8.946259645300
       101    1       49.493700000000      11.641762566700       7.498892347000
       102    1       45.827500000000      11.641762566700       7.498892347000
       103    2       47.660600000000       4.233362433300       8.946259645300
       104    2       51.326800000000      10.583412433300       8.946259645300
       105    1       47.660600000000       2.116687566700       7.498892347000
       106    1       51.326800000000       8.466737566700       7.498892347000
       107    2       45.827500000000       1.058337433300       8.946259645300
       108    2       49.493700000000       7.408387433300       8.946259645300
       109    2       51.326800000000       4.233362433300       8.946259645300
       110    2       47.660600000000      10.583412433300       8.946259645300
       111    1       51.326800000000       2.116687566700       7.498892347000
       112    1       47.660600000000       8.466737566700       7.498892347000
       113    1       53.159900000000       5.291712566700       7.498892347000
       114    2       56.826100000000       1.058337433300       8.946259645300
       115    1       56.826100000000       5.291712566700       7.498892347000
       116    2       53.159900000000       7.408387433300       8.946259645300
       117    1       56.826100000000      11.641762566700       7.498892347000
       118    1       53.159900000000      11.641762566700       7.498892347000
       119    2       54.993000000000       4.233362433300       8.946259645300
       120    2       58.659200000000      10.583412433300       8.946259645300
       121    1       54.993000000000       2.116687566700       7.498892347000
       122    1       58.659200000000       8.466737566700       7.498892347000
       123    2       53.159900000000       1.058337433300       8.946259645300
       124    2       56.826100000000       7.408387433300       8.946259645300
       125    2       58.659200000000       4.233362433300       8.946259645300
       126    2       54.993000000000      10.583412433300       8.946259645300
       127    1       58.659200000000       2.116687566700       7.498892347000
       128    1       54.993000000000       8.466737566700       7.498892347000
       129    1       60.492300000000       5.291712566700       7.498892347000
       130    2       64.158500000000       1.058337433300       8.946259645300
       131    1       64.158500000000       5.291712566700       7.498892347000
       132    2       60.492300000000       7.408387433300       8.946259645300
       133    1       64.158500000000      11.641762566700       7.498892347000
       134    1       60.492300000000      11.641762566700       7.498892347000
       135    2       62.325400000000       4.233362433300       8.946259645300
       136    2       65.991600000000      10.583412433300       8.946259645300
       137    1       62.325400000000       2.116687566700       7.498892347000
       138    1       65.991600000000       8.466737566700       7.498892347000
       139    2       60.492300000000       1.058337433300       8.946259645300
       140    2       64.158500000000       7.408387433300       8.946259645300
       141    2       65.991600000000       4.233362433300       8.946259645300
       142    2       62.325400000000      10.583412433300       8.946259645300
       143    1       65.991600000000       2.116687566700       7.498892347000
       144    1       62.325400000000       8.466737566700       7.498892347000
       145    1       67.824700000000       5.291712566700       7.498892347000
       146    2       71.490900000000       1.058337433300       8.946259645300
       147    1       71.490900000000       5.291712566700       7.498892347000
       148    2       67.824700000000       7.408387433300       8.946259645300
       149    1       71.490900000000      11.641762566700       7.498892347000
       150    1       67.824700000000      11.641762566700       7.498892347000
       151    2       69.657800000000       4.233362433300       8.946259645300
       152    2       73.324000000000      10.583412433300       8.946259645300
       153    1       69.657800000000       2.116687566700       7.498892347000
       154    1       73.324000000000       8.466737566700       7.498892347000
       155    2       67.824700000000       1.058337433300       8.946259645300
       156    2       71.490900000000       7.408387433300       8.946259645300
       157    2       73.324000000000       4.233362433300       8.946259645300
       158    2       69.657800000000      10.583412433300       8.946259645300
       159    1       73.324000000000       2.116687566700       7.498892347000
       160    1       69.657800000000       8.466737566700       7.498892347000
       161    1       75.157100000000       5.291712566700       7.498892347000
       162    2       78.823300000000       1.058337433300       8.946259645300
       163    1       78.823300000000       5.291712566700       7.498892347000
       164    2       75.157100000000       7.408387433300       8.946259645300
       165    1       78.823300000000      11.641762566700       7.498892347000
       166    1       75.157100000000      11.641762566700       7.498892347000
       167    2       76.990200000000       4.233362433300       8.946259645300
       168    2       80.656400000000      10.583412433300       8.946259645300
       169    1       76.990200000000       2.116687566700       7.498892347000
       170    1       80.656400000000       8.466737566700       7.498892347000
       171    2       75.157100000000       1.058337433300       8.946259645300
       172    2       78.823300000000       7.408387433300       8.946259645300
       173    2       80.656400000000       4.233362433300       8.946259645300
       174    2       76.990200000000      10.583412433300       8.946259645300
       175    1       80.656400000000       2.116687566700       7.498892347000
       176    1       76.990200000000       8.466737566700       7.498892347000
       177    1       82.489500000000       5.291712566700       7.498892347000
       178    2       86.155700000000       1.058337433300       8.946259645300
       179    1       86.155700000000       5.291712566700       7.498892347000
       180    2       82.489500000000       7.408387433300       8.946259645300
       181    1       86.155700000000      11.641762566700       7.498892347000
       182    1       82.489500000000      11.641762566700       7.498892347000
       183    2       84.322600000000       4.233362433300       8.946259645300
       184    2       87.988800000000      10.583412433300       8.946259645300
       185    1       84.322600000000       2.116687566700       7.498892347000
       186    1       87.988800000000       8.466737566700       7.498892347000
       187    2       82.489500000000       1.058337433300       8.946259645300
       188    2       86.155700000000       7.408387433300       8.946259645300
       189    2       87.988800000000       4.233362433300       8.946259645300
       190    2       84.322600000000      10.583412433300       8.946259645300
       191    1       87.988800000000       2.116687566700       7.498892347000
       192    1       84.322600000000       8.466737566700       7.498892347000
       193    1       89.821900000000       5.291712566700       7.498892347000
       194    2       93.488100000000       1.058337433300       8.946259645300
       195    1       93.488100000000       5.291712566700       7.498892347000
       196    2       89.821900000000       7.408387433300       8.946259645300
       197    1       93.488100000000      11.641762566700       7.498892347000
       198    1       89.821900000000      11.641762566700       7.498892347000
       199    2       91.655000000000       4.233362433300       8.946259645300
       200    2       95.321200000000      10.583412433300       8.946259645300
       201    1       91.655000000000       2.116687566700       7.498892347000
       202    1       95.321200000000       8.466737566700       7.498892347000
       203    2       89.821900000000       1.058337433300       8.946259645300
       204    2       93.488100000000       7.408387433300       8.946259645300
       205    2       95.321200000000       4.233362433300       8.946259645300
       206    2       91.655000000000      10.583412433300       8.946259645300
       207    1       95.321200000000       2.116687566700       7.498892347000
       208    1       91.655000000000       8.466737566700       7.498892347000
       209    1       97.154300000000       5.291712566700       7.498892347000
       210    2      100.820500000000       1.058337433300       8.946259645300
       211    1      100.820500000000       5.291712566700       7.498892347000
       212    2       97.154300000000       7.408387433300       8.946259645300
       213    1      100.820500000000      11.641762566700       7.498892347000
       214    1       97.154300000000      11.641762566700       7.498892347000
       215    2       98.987400000000       4.233362433300       8.946259645300
       216    2      102.653600000000      10.583412433300       8.946259645300
       217    1       98.987400000000       2.116687566700       7.498892347000
       218    1      102.653600000000       8.466737566700       7.498892347000
       219    2       97.154300000000       1.058337433300       8.946259645300
       220    2      100.820500000000       7.408387433300       8.946259645300
       221    2      102.653600000000       4.233362433300       8.946259645300
       222    2       98.987400000000      10.583412433300       8.946259645300
       223    1      102.653600000000       2.116687566700       7.498892347000
       224    1       98.987400000000       8.466737566700       7.498892347000
       225    1        1.833100000000      17.991812566700       7.498892347000
       226    2        5.499300000000      13.758437433300       8.946259645300
       227    1        5.499300000000      17.991812566700       7.498892347000
       228    2        1.833100000000      20.108487433300       8.946259645300
       229    1        5.499300000000      24.341862566700       7.498892347000
       230    1        1.833100000000      24.341862566700       7.498892347000
       231    2        3.666200000000      16.933462433300       8.946259645300
       232    2        7.332400000000      23.283512433300       8.946259645300
       233    1        3.666200000000      14.816787566700       7.498892347000
       234    1        7.332400000000      21.166837566700       7.498892347000
       235    2        1.833100000000      13.758437433300       8.946259645300
       236    2        5.499300000000      20.108487433300       8.946259645300
       237    2        7.332400000000      16.933462433300       8.946259645300
       238    2        3.666200000000      23.283512433300       8.946259645300
       239    1        7.332400000000      14.816787566700       7.498892347000
       240    1        3.666200000000      21.166837566700       7.498892347000
       241    1        9.165500000000      17.991812566700       7.498892347000
       242    2       12.831700000000      13.758437433300       8.946259645300
       243    1       12.831700000000      17.991812566700       7.498892347000
       244    2        9.165500000000      20.108487433300       8.946259645300
       245    1       12.831700000000      24.341862566700       7.498892347000
       246    1        9.165500000000      24.341862566700       7.498892347000
       247    2       10.998600000000      16.933462433300       8.946259645300
       248    2       14.664800000000      23.283512433300       8.946259645300
       249    1       10.998600000000      14.816787566700       7.498892347000
       250    1       14.664800000000      21.166837566700       7.498892347000
       251    2        9.165500000000      13.758437433300       8.946259645300
       252    2       12.831700000000      20.108487433300       8.946259645300
       253    2       14.664800000000      16.933462433300       8.946259645300
       254    2       10.998600000000      23.283512433300       8.946259645300
       255    1       14.664800000000      14.816787566700       7.498892347000
       256    1       10.998600000000      21.166837566700       7.498892347000
       257    1       16.497900000000      17.991812566700       7.498892347000
       258    2       20.164100000000      13.758437433300       8.946259645300
       259    1       20.164100000000      17.991812566700       7.498892347000
       260    2       16.497900000000      20.108487433300       8.946259645300
       261    1       20.164100000000      24.341862566700       7.498892347000
       262    1       16.497900000000      24.341862566700       7.498892347000
       263    2       18.331000000000      16.933462433300       8.946259645300
       264    2       21.997200000000      23.283512433300       8.946259645300
       265    1       18.331000000000      14.816787566700       7.498892347000
       266    1       21.997200000000      21.166837566700       7.498892347000
       267    2       16.497900000000      13.758437433300       8.946259645300
       268    2       20.164100000000      20.108487433300       8.946259645300
       269    2       21.997200000000      16.933462433300       8.946259645300
       270    2       18.331000000000      23.283512433300       8.946259645300
       271    1       21.997200000000      14.816787566700       7.498892347000
       272    1       18.331000000000      21.166837566700       7.498892347000
       273    1       23.830300000000      17.991812566700       7.498892347000
       274    2       27.496500000000      13.758437433300       8.946259645300
       275    1       27.496500000000      17.991812566700       7.498892347000
       276    2       23.830300000000      20.108487433300       8.946259645300
       277    1       27.496500000000      24.341862566700       7.498892347000
       278    1       23.830300000000      24.341862566700       7.498892347000
       279    2       25.663400000000      16.933462433300       8.946259645300
       280    2       29.329600000000      23.283512433300       8.946259645300
       281    1       25.663400000000      14.816787566700       7.498892347000
       282    1       29.329600000000      21.166837566700       7.498892347000
       283    2       23.830300000000      13.758437433300       8.946259645300
       284    2       27.496500000000      20.108487433300       8.946259645300
       285    2       29.329600000000      16.933462433300       8.946259645300
       286    2       25.663400000000      23.283512433300       8.946259645300
       287    1       29.329600000000      14.816787566700       7.498892347000
       288    1       25.663400000000      21.166837566700       7.498892347000
       289    1       31.162700000000      17.991812566700       7.498892347000
       290    2       34.828900000000      13.758437433300       8.946259645300
       291    1       34.828900000000      17.991812566700       7.498892347000
       292    2       31.162700000000      20.108487433300       8.946259645300
       293    1       34.828900000000      24.341862566700       7.498892347000
       294    1       31.162700000000      24.341862566700       7.498892347000
       295    2       32.995800000000      16.933462433300       8.946259645300
       296    2       36.662000000000      23.283512433300       8.946259645300
       297    1       32.995800000000      14.816787566700       7.498892347000
       298    1       36.662000000000      21.166837566700       7.498892347000
       299    2       31.162700000000      13.758437433300       8.946259645300
       300    2       34.828900000000      20.108487433300       8.946259645300
       301    2       36.662000000000      16.933462433300       8.946259645300
       302    2       32.995800000000      23.283512433300       8.946259645300
       303    1       36.662000000000      14.816787566700       7.498892347000
       304    1       32.995800000000      21.166837566700       7.498892347000
       305    1       38.495100000000      17.991812566700       7.498892347000
       306    2       42.161300000000      13.758437433300       8.946259645300
       307    1       42.161300000000      17.991812566700       7.498892347000
       308    2       38.495100000000      20.108487433300       8.946259645300
       309    1       42.161300000000      24.341862566700       7.498892347000
       310    1       38.495100000000      24.341862566700       7.498892347000
       311    2       40.328200000000      16.933462433300       8.946259645300
       312    2       43.994400000000      23.283512433300       8.946259645300
       313    1       40.328200000000      14.816787566700       7.498892347000
       314    1       43.994400000000      21.166837566700       7.498892347000
       315    2       38.495100000000      13.758437433300       8.946259645300
       316    2       42.161300000000      20.108487433300       8.946259645300
       317    2       43.994400000000      16.933462433300       8.946259645300
       318    2       40.328200000000      23.283512433300       8.946259645300
       319    1       43.994400000000      14.816787566700       7.498892347000
       320    1       40.328200000000      21.166837566700       7.498892347000
       321    1       45.827500000000      17.991812566700       7.498892347000
       322    2       49.493700000000      13.758437433300       8.946259645300
       323    1       49.493700000000      17.991812566700       7.498892347000
       324    2       45.827500000000      20.108487433300       8.946259645300
       325    1       49.493700000000      24.341862566700       7.498892347000
       326    1       45.827500000000      24.341862566700       7.498892347000
       327    2       47.660600000000      16.933462433300       8.946259645300
       328    2       51.326800000000      23.283512433300       8.946259645300
       329    1       47.660600000000      14.816787566700       7.498892347000
       330    1       51.326800000000      21.166837566700       7.498892347000
       331    2       45.827500000000      13.758437433300       8.946259645300
       332    2       49.493700000000      20.108487433300       8.946259645300
       333    2       51.326800000000      16.933462433300       8.946259645300
       334    2       47.660600000000      23.283512433300       8.946259645300
       335    1       51.326800000000      14.816787566700       7.498892347000
       336    1       47.660600000000      21.166837566700       7.498892347000
       337    1       53.159900000000      17.991812566700       7.498892347000
       338    2       56.826100000000      13.758437433300       8.946259645300
       339    1       56.826100000000      17.991812566700       7.498892347000
       340    2       53.159900000000      20.108487433300       8.946259645300
       341    1       56.826100000000      24.341862566700       7.498892347000
       342    1       53.159900000000      24.341862566700       7.498892347000
       343    2       54.993000000000      16.933462433300       8.946259645300
       344    2       58.659200000000      23.283512433300       8.946259645300
       345    1       54.993000000000      14.816787566700       7.498892347000
       346    1       58.659200000000      21.166837566700       7.498892347000
       347    2       53.159900000000      13.758437433300       8.946259645300
       348    2       56.826100000000      20.108487433300       8.946259645300
       349    2       58.659200000000      16.933462433300       8.946259645300
       350    2       54.993000000000      23.283512433300       8.946259645300
       351    1       58.659200000000      14.816787566700       7.498892347000
       352    1       54.993000000000      21.166837566700       7.498892347000
       353    1       60.492300000000      17.991812566700       7.498892347000
       354    2       64.158500000000      13.758437433300       8.946259645300
       355    1       64.158500000000      17.991812566700       7.498892347000
       356    2       60.492300000000      20.108487433300       8.946259645300
       357    1       64.158500000000      24.341862566700       7.498892347000
       358    1       60.492300000000      24.341862566700       7.498892347000
       359    2       62.325400000000      16.933462433300       8.946259645300
       360    2       65.991600000000      23.283512433300       8.946259645300
       361    1       62.325400000000      14.816787566700       7.498892347000
       362    1       65.991600000000      21.166837566700       7.498892347000
       363    2       60.492300000000      13.758437433300       8.946259645300
       364    2       64.158500000000      20.108487433300       8.946259645300
       365    2       65.991600000000      16.933462433300       8.946259645300
       366    2       62.325400000000      23.283512433300       8.946259645300
       367    1       65.991600000000      14.816787566700       7.498892347000
       368    1       62.325400000000      21.166837566700       7.498892347000
       369    1       67.824700000000      17.991812566700       7.498892347000
       370    2       71.490900000000      13.758437433300       8.946259645300