 # P8 In8
  
        1344  atoms
           2  atom types
 
      0.000000000000     101.164800000000  xlo xhi
      0.000000000000     102.213300000000  ylo yhi
      0.000000000000      15.494900000000  zlo zhi
 
Masses
 
            1   30.97376200             # P
            2   114.81800000            # In
 
Atoms # charge
 
         1    1   0.000000        0.000000000000       4.867295132700       7.994903553000
         2    1   0.000000        4.215200000000      12.168245132700       7.994903553000
         3    2   0.000000        6.322800000000       6.084129867300       7.499996447000
         4    2   0.000000        2.107600000000      13.385079867300       7.499996447000
         5    1   0.000000        4.215200000000       4.867295132700       7.994903553000
         6    1   0.000000        0.000000000000      12.168245132700       7.994903553000
         7    2   0.000000        2.107600000000       6.084129867300       7.499996447000
         8    2   0.000000        6.322800000000      13.385079867300       7.499996447000
         9    1   0.000000        2.107600000000       1.216820132700       7.994903553000
        10    1   0.000000        6.322800000000       8.517770132700       7.994903553000
        11    1   0.000000        6.322800000000       1.216820132700       7.994903553000
        12    1   0.000000        2.107600000000       8.517770132700       7.994903553000
        13    2   0.000000        4.215200000000       2.433654867300       7.499996447000
        14    2   0.000000        0.000000000000       9.734604867300       7.499996447000
        15    2   0.000000        0.000000000000       2.433654867300       7.499996447000
        16    2   0.000000        4.215200000000       9.734604867300       7.499996447000
        17    1   0.000000        8.430400000000       4.867295132700       7.994903553000
        18    1   0.000000       12.645600000000      12.168245132700       7.994903553000
        19    2   0.000000       14.753200000000       6.084129867300       7.499996447000
        20    2   0.000000       10.538000000000      13.385079867300       7.499996447000
        21    1   0.000000       12.645600000000       4.867295132700       7.994903553000
        22    1   0.000000        8.430400000000      12.168245132700       7.994903553000
        23    2   0.000000       10.538000000000       6.084129867300       7.499996447000
        24    2   0.000000       14.753200000000      13.385079867300       7.499996447000
        25    1   0.000000       10.538000000000       1.216820132700       7.994903553000
        26    1   0.000000       14.753200000000       8.517770132700       7.994903553000
        27    1   0.000000       14.753200000000       1.216820132700       7.994903553000
        28    1   0.000000       10.538000000000       8.517770132700       7.994903553000
        29    2   0.000000       12.645600000000       2.433654867300       7.499996447000
        30    2   0.000000        8.430400000000       9.734604867300       7.499996447000
        31    2   0.000000        8.430400000000       2.433654867300       7.499996447000
        32    2   0.000000       12.645600000000       9.734604867300       7.499996447000
        33    1   0.000000       16.860800000000       4.867295132700       7.994903553000
        34    1   0.000000       21.076000000000      12.168245132700       7.994903553000
        35    2   0.000000       23.183600000000       6.084129867300       7.499996447000
        36    2   0.000000       18.968400000000      13.385079867300       7.499996447000
        37    1   0.000000       21.076000000000       4.867295132700       7.994903553000
        38    1   0.000000       16.860800000000      12.168245132700       7.994903553000
        39    2   0.000000       18.968400000000       6.084129867300       7.499996447000
        40    2   0.000000       23.183600000000      13.385079867300       7.499996447000
        41    1   0.000000       18.968400000000       1.216820132700       7.994903553000
        42    1   0.000000       23.183600000000       8.517770132700       7.994903553000
        43    1   0.000000       23.183600000000       1.216820132700       7.994903553000
        44    1   0.000000       18.968400000000       8.517770132700       7.994903553000
        45    2   0.000000       21.076000000000       2.433654867300       7.499996447000
        46    2   0.000000       16.860800000000       9.734604867300       7.499996447000
        47    2   0.000000       16.860800000000       2.433654867300       7.499996447000
        48    2   0.000000       21.076000000000       9.734604867300       7.499996447000
        49    1   0.000000       25.291200000000       4.867295132700       7.994903553000
        50    1   0.000000       29.506400000000      12.168245132700       7.994903553000
        51    2   0.000000       31.614000000000       6.084129867300       7.499996447000
        52    2   0.000000       27.398800000000      13.385079867300       7.499996447000
        53    1   0.000000       29.506400000000       4.867295132700       7.994903553000
        54    1   0.000000       25.291200000000      12.168245132700       7.994903553000
        55    2   0.000000       27.398800000000       6.084129867300       7.499996447000
        56    2   0.000000       31.614000000000      13.385079867300       7.499996447000
        57    1   0.000000       27.398800000000       1.216820132700       7.994903553000
        58    1   0.000000       31.614000000000       8.517770132700       7.994903553000
        59    1   0.000000       31.614000000000       1.216820132700       7.994903553000
        60    1   0.000000       27.398800000000       8.517770132700       7.994903553000
        61    2   0.000000       29.506400000000       2.433654867300       7.499996447000
        62    2   0.000000       25.291200000000       9.734604867300       7.499996447000
        63    2   0.000000       25.291200000000       2.433654867300       7.499996447000
        64    2   0.000000       29.506400000000       9.734604867300       7.499996447000
        65    1   0.000000       33.721600000000       4.867295132700       7.994903553000
        66    1   0.000000       37.936800000000      12.168245132700       7.994903553000
        67    2   0.000000       40.044400000000       6.084129867300       7.499996447000
        68    2   0.000000       35.829200000000      13.385079867300       7.499996447000
        69    1   0.000000       37.936800000000       4.867295132700       7.994903553000
        70    1   0.000000       33.721600000000      12.168245132700       7.994903553000
        71    2   0.000000       35.829200000000       6.084129867300       7.499996447000
        72    2   0.000000       40.044400000000      13.385079867300       7.499996447000
        73    1   0.000000       35.829200000000       1.216820132700       7.994903553000
        74    1   0.000000       40.044400000000       8.517770132700       7.994903553000
        75    1   0.000000       40.044400000000       1.216820132700       7.994903553000
        76    1   0.000000       35.829200000000       8.517770132700       7.994903553000
        77    2   0.000000       37.936800000000       2.433654867300       7.499996447000
        78    2   0.000000       33.721600000000       9.734604867300       7.499996447000
        79    2   0.000000       33.721600000000       2.433654867300       7.499996447000
        80    2   0.000000       37.936800000000       9.734604867300       7.499996447000
        81    1   0.000000       42.152000000000       4.867295132700       7.994903553000
        82    1   0.000000       46.367200000000      12.168245132700       7.994903553000
        83    2   0.000000       48.474800000000       6.084129867300       7.499996447000
        84    2   0.000000       44.259600000000      13.385079867300       7.499996447000
        85    1   0.000000       46.367200000000       4.867295132700       7.994903553000
        86    1   0.000000       42.152000000000      12.168245132700       7.994903553000
        87    2   0.000000       44.259600000000       6.084129867300       7.499996447000
        88    2   0.000000       48.474800000000      13.385079867300       7.499996447000
        89    1   0.000000       44.259600000000       1.216820132700       7.994903553000
        90    1   0.000000       48.474800000000       8.517770132700       7.994903553000
        91    1   0.000000       48.474800000000       1.216820132700       7.994903553000
        92    1   0.000000       44.259600000000       8.517770132700       7.994903553000
        93    2   0.000000       46.367200000000       2.433654867300       7.499996447000
        94    2   0.000000       42.152000000000       9.734604867300       7.499996447000
        95    2   0.000000       42.152000000000       2.433654867300       7.499996447000
        96    2   0.000000       46.367200000000       9.734604867300       7.499996447000
        97    1   0.000000       50.582400000000       4.867295132700       7.994903553000
        98    1   0.000000       54.797600000000      12.168245132700       7.994903553000
        99    2   0.000000       56.905200000000       6.084129867300       7.499996447000
       100    2   0.000000       52.690000000000      13.385079867300       7.499996447000
       101    1   0.000000       54.797600000000       4.867295132700       7.994903553000
       102    1   0.000000       50.582400000000      12.168245132700       7.994903553000
       103    2   0.000000       52.690000000000       6.084129867300       7.499996447000
       104    2   0.000000       56.905200000000      13.385079867300       7.499996447000
       105    1   0.000000       52.690000000000       1.216820132700       7.994903553000
       106    1   0.000000       56.905200000000       8.517770132700       7.994903553000
       107    1   0.000000       56.905200000000       1.216820132700       7.994903553000
       108    1   0.000000       52.690000000000       8.517770132700       7.994903553000
       109    2   0.000000       54.797600000000       2.433654867300       7.499996447000
       110    2   0.000000       50.582400000000       9.734604867300       7.499996447000
       111    2   0.000000       50.582400000000       2.433654867300       7.499996447000
       112    2   0.000000       54.797600000000       9.734604867300       7.499996447000
       113    1   0.000000       59.012800000000       4.867295132700       7.994903553000
       114    1   0.000000       63.228000000000      12.168245132700       7.994903553000
       115    2   0.000000       65.335600000000       6.084129867300       7.499996447000
       116    2   0.000000       61.120400000000      13.385079867300       7.499996447000
       117    1   0.000000       63.228000000000       4.867295132700       7.994903553000
       118    1   0.000000       59.012800000000      12.168245132700       7.994903553000
       119    2   0.000000       61.120400000000       6.084129867300       7.499996447000
       120    2   0.000000       65.335600000000      13.385079867300       7.499996447000
       121    1   0.000000       61.120400000000       1.216820132700       7.994903553000
       122    1   0.000000       65.335600000000       8.517770132700       7.994903553000
       123    1   0.000000       65.335600000000       1.216820132700       7.994903553000
       124    1   0.000000       61.120400000000       8.517770132700       7.994903553000
       125    2   0.000000       63.228000000000       2.433654867300       7.499996447000
       126    2   0.000000       59.012800000000       9.734604867300       7.499996447000
       127    2   0.000000       59.012800000000       2.433654867300       7.499996447000
       128    2   0.000000       63.228000000000       9.734604867300       7.499996447000
       129    1   0.000000       67.443200000000       4.867295132700       7.994903553000
       130    1   0.000000       71.658400000000      12.168245132700       7.994903553000
       131    2   0.000000       73.766000000000       6.084129867300       7.499996447000
       132    2   0.000000       69.550800000000      13.385079867300       7.499996447000
       133    1   0.000000       71.658400000000       4.867295132700       7.994903553000
       134    1   0.000000       67.443200000000      12.168245132700       7.994903553000
       135    2   0.000000       69.550800000000       6.084129867300       7.499996447000
       136    2   0.000000       73.766000000000      13.385079867300       7.499996447000
       137    1   0.000000       69.550800000000       1.216820132700       7.994903553000
       138    1   0.000000       73.766000000000       8.517770132700       7.994903553000
       139    1   0.000000       73.766000000000       1.216820132700       7.994903553000
       140    1   0.000000       69.550800000000       8.517770132700       7.994903553000
       141    2   0.000000       71.658400000000       2.433654867300       7.499996447000
       142    2   0.000000       67.443200000000       9.734604867300       7.499996447000
       143    2   0.000000       67.443200000000       2.433654867300       7.499996447000
       144    2   0.000000       71.658400000000       9.734604867300       7.499996447000
       145    1   0.000000       75.873600000000       4.867295132700       7.994903553000
       146    1   0.000000       80.088800000000      12.168245132700       7.994903553000
       147    2   0.000000       82.196400000000       6.084129867300       7.499996447000
       148    2   0.000000       77.981200000000      13.385079867300       7.499996447000
       149    1   0.000000       80.088800000000       4.867295132700       7.994903553000
       150    1   0.000000       75.873600000000      12.168245132700       7.994903553000
       151    2   0.000000       77.981200000000       6.084129867300       7.499996447000
       152    2   0.000000       82.196400000000      13.385079867300       7.499996447000
       153    1   0.000000       77.981200000000       1.216820132700       7.994903553000
       154    1   0.000000       82.196400000000       8.517770132700       7.994903553000
       155    1   0.000000       82.196400000000       1.216820132700       7.994903553000
       156    1   0.000000       77.981200000000       8.517770132700       7.994903553000
       157    2   0.000000       80.088800000000       2.433654867300       7.499996447000
       158    2   0.000000       75.873600000000       9.734604867300       7.499996447000
       159    2   0.000000       75.873600000000       2.433654867300       7.499996447000
       160    2   0.000000       80.088800000000       9.734604867300       7.499996447000
       161    1   0.000000       84.304000000000       4.867295132700       7.994903553000
       162    1   0.000000       88.519200000000      12.168245132700       7.994903553000
       163    2   0.000000       90.626800000000       6.084129867300       7.499996447000
       164    2   0.000000       86.411600000000      13.385079867300       7.499996447000
       165    1   0.000000       88.519200000000       4.867295132700       7.994903553000
       166    1   0.000000       84.304000000000      12.168245132700       7.994903553000
       167    2   0.000000       86.411600000000       6.084129867300       7.499996447000
       168    2   0.000000       90.626800000000      13.385079867300       7.499996447000
       169    1   0.000000       86.411600000000       1.216820132700       7.994903553000
       170    1   0.000000       90.626800000000       8.517770132700       7.994903553000
       171    1   0.000000       90.626800000000       1.216820132700       7.994903553000
       172    1   0.000000       86.411600000000       8.517770132700       7.994903553000
       173    2   0.000000       88.519200000000       2.433654867300       7.499996447000
       174    2   0.000000       84.304000000000       9.734604867300       7.499996447000
       175    2   0.000000       84.304000000000       2.433654867300       7.499996447000
       176    2   0.000000       88.519200000000       9.734604867300       7.499996447000
       177    1   0.000000       92.734400000000       4.867295132700       7.994903553000
       178    1   0.000000       96.949600000000      12.168245132700       7.994903553000
       179    2   0.000000       99.057200000000       6.084129867300       7.499996447000
       180    2   0.000000       94.842000000000      13.385079867300       7.499996447000
       181    1   0.000000       96.949600000000       4.867295132700       7.994903553000
       182    1   0.000000       92.734400000000      12.168245132700       7.994903553000
       183    2   0.000000       94.842000000000       6.084129867300       7.499996447000
       184    2   0.000000       99.057200000000      13.385079867300       7.499996447000
       185    1   0.000000       94.842000000000       1.216820132700       7.994903553000
       186    1   0.000000       99.057200000000       8.517770132700       7.994903553000
       187    1   0.000000       99.057200000000       1.216820132700       7.994903553000
       188    1   0.000000       94.842000000000       8.517770132700       7.994903553000
       189    2   0.000000       96.949600000000       2.433654867300       7.499996447000
       190    2   0.000000       92.734400000000       9.734604867300       7.499996447000
       191    2   0.000000       92.734400000000       2.433654867300       7.499996447000
       192    2   0.000000       96.949600000000       9.734604867300       7.499996447000
       193    1   0.000000        0.000000000000      19.469195132700       7.994903553000
       194    1   0.000000        4.215200000000      26.770145132700       7.994903553000
       195    2   0.000000        6.322800000000      20.686029867300       7.499996447000
       196    2   0.000000        2.107600000000      27.986979867300       7.499996447000
       197    1   0.000000        4.215200000000      19.469195132700       7.994903553000
       198    1   0.000000        0.000000000000      26.770145132700       7.994903553000
       199    2   0.000000        2.107600000000      20.686029867300       7.499996447000
       200    2   0.000000        6.322800000000      27.986979867300       7.499996447000
       201    1   0.000000        2.107600000000      15.818720132700       7.994903553000
       202    1   0.000000        6.322800000000      23.119670132700       7.994903553000
       203    1   0.000000        6.322800000000      15.818720132700       7.994903553000
       204    1   0.000000        2.107600000000      23.119670132700       7.994903553000
       205    2   0.000000        4.215200000000      17.035554867300       7.499996447000
       206    2   0.000000        0.000000000000      24.336504867300       7.499996447000
       207    2   0.000000        0.000000000000      17.035554867300       7.499996447000
       208    2   0.000000        4.215200000000      24.336504867300       7.499996447000
       209    1   0.000000        8.430400000000      19.469195132700       7.994903553000
       210    1   0.000000       12.645600000000      26.770145132700       7.994903553000
       211    2   0.000000       14.753200000000      20.686029867300       7.499996447000
       212    2   0.000000       10.538000000000      27.986979867300       7.499996447000
       213    1   0.000000       12.645600000000      19.469195132700       7.994903553000
       214    1   0.000000        8.430400000000      26.770145132700       7.994903553000
       215    2   0.000000       10.538000000000      20.686029867300       7.499996447000
       216    2   0.000000       14.753200000000      27.986979867300       7.499996447000
       217    1   0.000000       10.538000000000      15.818720132700       7.994903553000
       218    1   0.000000       14.753200000000      23.119670132700       7.994903553000
       219    1   0.000000       14.753200000000      15.818720132700       7.994903553000
       220    1   0.000000       10.538000000000      23.119670132700       7.994903553000
       221    2   0.000000       12.645600000000      17.035554867300       7.499996447000
       222    2   0.000000        8.430400000000      24.336504867300       7.499996447000
       223    2   0.000000        8.430400000000      17.035554867300       7.499996447000
       224    2   0.000000       12.645600000000      24.336504867300       7.499996447000
       225    1   0.000000       16.860800000000      19.469195132700       7.994903553000
       226    1   0.000000       21.076000000000      26.770145132700       7.994903553000
       227    2   0.000000       23.183600000000      20.686029867300       7.499996447000
       228    2   0.000000       18.968400000000      27.986979867300       7.499996447000
       229    1   0.000000       21.076000000000      19.469195132700       7.994903553000
       230    1   0.000000       16.860800000000      26.770145132700       7.994903553000
       231    2   0.000000       18.968400000000      20.686029867300       7.499996447000
       232    2   0.000000       23.183600000000      27.986979867300       7.499996447000
       233    1   0.000000       18.968400000000      15.818720132700       7.994903553000
       234    1   0.000000       23.183600000000      23.119670132700       7.994903553000
       235    1   0.000000       23.183600000000      15.818720132700       7.994903553000
       236    1   0.000000       18.968400000000      23.119670132700       7.994903553000
       237    2   0.000000       21.076000000000      17.035554867300       7.499996447000
       238    2   0.000000       16.860800000000      24.336504867300       7.499996447000
       239    2   0.000000       16.860800000000      17.035554867300       7.499996447000
       240    2   0.000000       21.076000000000      24.336504867300       7.499996447000
       241    1   0.000000       25.291200000000      19.469195132700       7.994903553000
       242    1   0.000000       29.506400000000      26.770145132700       7.994903553000
       243    2   0.000000       31.614000000000      20.686029867300       7.499996447000
       244    2   0.000000       27.398800000000      27.986979867300       7.499996447000
       245    1   0.000000       29.506400000000      19.469195132700       7.994903553000
       246    1   0.000000       25.291200000000      26.770145132700       7.994903553000
       247    2   0.000000       27.398800000000      20.686029867300       7.499996447000
       248    2   0.000000       31.614000000000      27.986979867300       7.499996447000
       249    1   0.000000       27.398800000000      15.818720132700       7.994903553000
       250    1   0.000000       31.614000000000      23.119670132700       7.994903553000
       251    1   0.000000       31.614000000000      15.818720132700       7.994903553000
       252    1   0.000000       27.398800000000      23.119670132700       7.994903553000
       253    2   0.000000       29.506400000000      17.035554867300       7.499996447000
       254    2   0.000000       25.291200000000      24.336504867300       7.499996447000
       255    2   0.000000       25.291200000000      17.035554867300       7.499996447000
       256    2   0.000000       29.506400000000      24.336504867300       7.499996447000
       257    1   0.000000       33.721600000000      19.469195132700       7.994903553000
       258    1   0.000000       37.936800000000      26.770145132700       7.994903553000
       259    2   0.000000       40.044400000000      20.686029867300       7.499996447000
       260    2   0.000000       35.829200000000      27.986979867300       7.499996447000
       261    1   0.000000       37.936800000000      19.469195132700       7.994903553000
       262    1   0.000000       33.721600000000      26.770145132700       7.994903553000
       263    2   0.000000       35.829200000000      20.686029867300       7.499996447000
       264    2   0.000000       40.044400000000      27.986979867300       7.499996447000
       265    1   0.000000       35.829200000000      15.818720132700       7.994903553000
       266    1   0.000000       40.044400000000      23.119670132700       7.994903553000
       267    1   0.000000       40.044400000000      15.818720132700       7.994903553000
       268    1   0.000000       35.829200000000      23.119670132700       7.994903553000
       269    2   0.000000       37.936800000000      17.035554867300       7.499996447000
       270    2   0.000000       33.721600000000      24.336504867300       7.499996447000
       271    2   0.000000       33.721600000000      17.035554867300       7.499996447000
       272    2   0.000000       37.936800000000      24.336504867300       7.499996447000
       273    1   0.000000       42.152000000000      19.469195132700       7.994903553000
       274    1   0.000000       46.367200000000      26.770145132700       7.994903553000
       275    2   0.000000       48.474800000000      20.686029867300       7.499996447000
       276    2   0.000000       44.259600000000      27.986979867300       7.499996447000
       277    1   0.000000       46.367200000000      19.469195132700       7.994903553000
       278    1   0.000000       42.152000000000      26.770145132700       7.994903553000
       279    2   0.000000       44.259600000000      20.686029867300       7.499996447000
       280    2   0.000000       48.474800000000      27.986979867300       7.499996447000
       281    1   0.000000       44.259600000000      15.818720132700       7.994903553000
       282    1   0.000000       48.474800000000      23.119670132700       7.994903553000
       283    1   0.000000       48.474800000000      15.818720132700       7.994903553000
       284    1   0.000000       44.259600000000      23.119670132700       7.994903553000
       285    2   0.000000       46.367200000000      17.035554867300       7.499996447000
       286    2   0.000000       42.152000000000      24.336504867300       7.499996447000
       287    2   0.000000       42.152000000000      17.035554867300       7.499996447000
       288    2   0.000000       46.367200000000      24.336504867300       7.499996447000
       289    1   0.000000       50.582400000000      19.469195132700       7.994903553000
       290    1   0.000000       54.797600000000      26.770145132700       7.994903553000
       291    2   0.000000       56.905200000000      20.686029867300       7.499996447000
       292    2   0.000000       52.690000000000      27.986979867300       7.499996447000
       293    1   0.000000       54.797600000000      19.469195132700       7.994903553000
       294    1   0.000000       50.582400000000      26.770145132700       7.994903553000
       295    2   0.000000       52.690000000000      20.686029867300       7.499996447000
       296    2   0.000000       56.905200000000      27.986979867300       7.499996447000
       297    1   0.000000       52.690000000000      15.818720132700       7.994903553000
       298    1   0.000000       56.905200000000      23.119670132700       7.994903553000
       299    1   0.000000       56.905200000000      15.818720132700       7.994903553000
       300    1   0.000000       52.690000000000      23.119670132700       7.994903553000
       301    2   0.000000       54.797600000000      17.035554867300       7.499996447000
       302    2   0.000000       50.582400000000      24.336504867300       7.499996447000
       303    2   0.000000       50.582400000000      17.035554867300       7.499996447000
       304    2   0.000000       54.797600000000      24.336504867300       7.499996447000
       305    1   0.000000       59.012800000000      19.469195132700       7.994903553000
       306    1   0.000000       63.228000000000      26.770145132700       7.994903553000
       307    2   0.000000       65.335600000000      20.686029867300       7.499996447000
       308    2   0.000000       61.120400000000      27.986979867300       7.499996447000
       309    1   0.000000       63.228000000000      19.469195132700       7.994903553000
       310    1   0.000000       59.012800000000      26.770145132700       7.994903553000
       311    2   0.000000       61.120400000000      20.686029867300       7.499996447000
       312    2   0.000000       65.335600000000      27.986979867300       7.499996447000
       313    1   0.000000       61.120400000000      15.818720132700       7.994903553000
       314    1   0.000000       65.335600000000      23.119670132700       7.994903553000
       315    1   0.000000       65.335600000000      15.818720132700       7.994903553000
       316    1   0.000000       61.120400000000      23.119670132700       7.994903553000
       317    2   0.000000       63.228000000000      17.035554867300       7.499996447000
       318    2   0.000000       59.012800000000      24.336504867300       7.499996447000
       319    2   0.000000       59.012800000000      17.035554867300       7.499996447000
       320    2   0.000000       63.228000000000      24.336504867300       7.499996447000
       321    1   0.000000       67.443200000000      19.469195132700       7.994903553000
       322    1   0.000000       71.658400000000      26.770145132700       7.994903553000
       323    2   0.000000       73.766000000000      20.686029867300       7.499996447000
       324    2   0.000000       69.550800000000      27.986979867300       7.499996447000
       325    1   0.000000       71.658400000000      19.469195132700       7.994903553000
       326    1   0.000000       67.443200000000      26.770145132700       7.994903553000