 # In8 Sb8
  
        1056  atoms
           2  atom types
 
      0.000000000000     102.597000000000  xlo xhi
      0.000000000000      96.928800000000  ylo yhi
      0.000000000000      15.758800000000  zlo zhi
 
Masses
 
            1   114.81800000            # In
            2   121.76000000            # Sb
 
Atoms # atomic
 
         1    1        9.327000000000       2.692472051600       7.501062729600
         2    1        4.663500000000      10.769872051600       7.501062729600
         3    2        2.331750000000       1.346227948400       8.257753029200
         4    2        6.995250000000       9.423627948400       8.257753029200
         5    2        6.995250000000       1.346227948400       8.257753029200
         6    2        4.663500000000       5.384927948400       8.257753029200
         7    2        2.331750000000       9.423627948400       8.257753029200
         8    1        4.663500000000       2.692472051600       7.501062729600
         9    2        0.000000000000      13.462327948400       8.257753029200
        10    1        9.327000000000      10.769872051600       7.501062729600
        11    1        2.331750000000       6.731172051600       7.501062729600
        12    1        6.995250000000      14.808572051600       7.501062729600
        13    2        9.327000000000       5.384927948400       8.257753029200
        14    2        4.663500000000      13.462327948400       8.257753029200
        15    1        6.995250000000       6.731172051600       7.501062729600
        16    1        2.331750000000      14.808572051600       7.501062729600
        17    1       18.654000000000       2.692472051600       7.501062729600
        18    1       13.990500000000      10.769872051600       7.501062729600
        19    2       11.658750000000       1.346227948400       8.257753029200
        20    2       16.322250000000       9.423627948400       8.257753029200
        21    2       16.322250000000       1.346227948400       8.257753029200
        22    2       13.990500000000       5.384927948400       8.257753029200
        23    2       11.658750000000       9.423627948400       8.257753029200
        24    1       13.990500000000       2.692472051600       7.501062729600
        25    2        9.327000000000      13.462327948400       8.257753029200
        26    1       18.654000000000      10.769872051600       7.501062729600
        27    1       11.658750000000       6.731172051600       7.501062729600
        28    1       16.322250000000      14.808572051600       7.501062729600
        29    2       18.654000000000       5.384927948400       8.257753029200
        30    2       13.990500000000      13.462327948400       8.257753029200
        31    1       16.322250000000       6.731172051600       7.501062729600
        32    1       11.658750000000      14.808572051600       7.501062729600
        33    1       27.981000000000       2.692472051600       7.501062729600
        34    1       23.317500000000      10.769872051600       7.501062729600
        35    2       20.985750000000       1.346227948400       8.257753029200
        36    2       25.649250000000       9.423627948400       8.257753029200
        37    2       25.649250000000       1.346227948400       8.257753029200
        38    2       23.317500000000       5.384927948400       8.257753029200
        39    2       20.985750000000       9.423627948400       8.257753029200
        40    1       23.317500000000       2.692472051600       7.501062729600
        41    2       18.654000000000      13.462327948400       8.257753029200
        42    1       27.981000000000      10.769872051600       7.501062729600
        43    1       20.985750000000       6.731172051600       7.501062729600
        44    1       25.649250000000      14.808572051600       7.501062729600
        45    2       27.981000000000       5.384927948400       8.257753029200
        46    2       23.317500000000      13.462327948400       8.257753029200
        47    1       25.649250000000       6.731172051600       7.501062729600
        48    1       20.985750000000      14.808572051600       7.501062729600
        49    1       37.308000000000       2.692472051600       7.501062729600
        50    1       32.644500000000      10.769872051600       7.501062729600
        51    2       30.312750000000       1.346227948400       8.257753029200
        52    2       34.976250000000       9.423627948400       8.257753029200
        53    2       34.976250000000       1.346227948400       8.257753029200
        54    2       32.644500000000       5.384927948400       8.257753029200
        55    2       30.312750000000       9.423627948400       8.257753029200
        56    1       32.644500000000       2.692472051600       7.501062729600
        57    2       27.981000000000      13.462327948400       8.257753029200
        58    1       37.308000000000      10.769872051600       7.501062729600
        59    1       30.312750000000       6.731172051600       7.501062729600
        60    1       34.976250000000      14.808572051600       7.501062729600
        61    2       37.308000000000       5.384927948400       8.257753029200
        62    2       32.644500000000      13.462327948400       8.257753029200
        63    1       34.976250000000       6.731172051600       7.501062729600
        64    1       30.312750000000      14.808572051600       7.501062729600
        65    1       46.635000000000       2.692472051600       7.501062729600
        66    1       41.971500000000      10.769872051600       7.501062729600
        67    2       39.639750000000       1.346227948400       8.257753029200
        68    2       44.303250000000       9.423627948400       8.257753029200
        69    2       44.303250000000       1.346227948400       8.257753029200
        70    2       41.971500000000       5.384927948400       8.257753029200
        71    2       39.639750000000       9.423627948400       8.257753029200
        72    1       41.971500000000       2.692472051600       7.501062729600
        73    2       37.308000000000      13.462327948400       8.257753029200
        74    1       46.635000000000      10.769872051600       7.501062729600
        75    1       39.639750000000       6.731172051600       7.501062729600
        76    1       44.303250000000      14.808572051600       7.501062729600
        77    2       46.635000000000       5.384927948400       8.257753029200
        78    2       41.971500000000      13.462327948400       8.257753029200
        79    1       44.303250000000       6.731172051600       7.501062729600
        80    1       39.639750000000      14.808572051600       7.501062729600
        81    1       55.962000000000       2.692472051600       7.501062729600
        82    1       51.298500000000      10.769872051600       7.501062729600
        83    2       48.966750000000       1.346227948400       8.257753029200
        84    2       53.630250000000       9.423627948400       8.257753029200
        85    2       53.630250000000       1.346227948400       8.257753029200
        86    2       51.298500000000       5.384927948400       8.257753029200
        87    2       48.966750000000       9.423627948400       8.257753029200
        88    1       51.298500000000       2.692472051600       7.501062729600
        89    2       46.635000000000      13.462327948400       8.257753029200
        90    1       55.962000000000      10.769872051600       7.501062729600
        91    1       48.966750000000       6.731172051600       7.501062729600
        92    1       53.630250000000      14.808572051600       7.501062729600
        93    2       55.962000000000       5.384927948400       8.257753029200
        94    2       51.298500000000      13.462327948400       8.257753029200
        95    1       53.630250000000       6.731172051600       7.501062729600
        96    1       48.966750000000      14.808572051600       7.501062729600
        97    1       65.289000000000       2.692472051600       7.501062729600
        98    1       60.625500000000      10.769872051600       7.501062729600
        99    2       58.293750000000       1.346227948400       8.257753029200
       100    2       62.957250000000       9.423627948400       8.257753029200
       101    2       62.957250000000       1.346227948400       8.257753029200
       102    2       60.625500000000       5.384927948400       8.257753029200
       103    2       58.293750000000       9.423627948400       8.257753029200
       104    1       60.625500000000       2.692472051600       7.501062729600
       105    2       55.962000000000      13.462327948400       8.257753029200
       106    1       65.289000000000      10.769872051600       7.501062729600
       107    1       58.293750000000       6.731172051600       7.501062729600
       108    1       62.957250000000      14.808572051600       7.501062729600
       109    2       65.289000000000       5.384927948400       8.257753029200
       110    2       60.625500000000      13.462327948400       8.257753029200
       111    1       62.957250000000       6.731172051600       7.501062729600
       112    1       58.293750000000      14.808572051600       7.501062729600
       113    1       74.616000000000       2.692472051600       7.501062729600
       114    1       69.952500000000      10.769872051600       7.501062729600
       115    2       67.620750000000       1.346227948400       8.257753029200
       116    2       72.284250000000       9.423627948400       8.257753029200
       117    2       72.284250000000       1.346227948400       8.257753029200
       118    2       69.952500000000       5.384927948400       8.257753029200
       119    2       67.620750000000       9.423627948400       8.257753029200
       120    1       69.952500000000       2.692472051600       7.501062729600
       121    2       65.289000000000      13.462327948400       8.257753029200
       122    1       74.616000000000      10.769872051600       7.501062729600
       123    1       67.620750000000       6.731172051600       7.501062729600
       124    1       72.284250000000      14.808572051600       7.501062729600
       125    2       74.616000000000       5.384927948400       8.257753029200
       126    2       69.952500000000      13.462327948400       8.257753029200
       127    1       72.284250000000       6.731172051600       7.501062729600
       128    1       67.620750000000      14.808572051600       7.501062729600
       129    1       83.943000000000       2.692472051600       7.501062729600
       130    1       79.279500000000      10.769872051600       7.501062729600
       131    2       76.947750000000       1.346227948400       8.257753029200
       132    2       81.611250000000       9.423627948400       8.257753029200
       133    2       81.611250000000       1.346227948400       8.257753029200
       134    2       79.279500000000       5.384927948400       8.257753029200
       135    2       76.947750000000       9.423627948400       8.257753029200
       136    1       79.279500000000       2.692472051600       7.501062729600
       137    2       74.616000000000      13.462327948400       8.257753029200
       138    1       83.943000000000      10.769872051600       7.501062729600
       139    1       76.947750000000       6.731172051600       7.501062729600
       140    1       81.611250000000      14.808572051600       7.501062729600
       141    2       83.943000000000       5.384927948400       8.257753029200
       142    2       79.279500000000      13.462327948400       8.257753029200
       143    1       81.611250000000       6.731172051600       7.501062729600
       144    1       76.947750000000      14.808572051600       7.501062729600
       145    1       93.270000000000       2.692472051600       7.501062729600
       146    1       88.606500000000      10.769872051600       7.501062729600
       147    2       86.274750000000       1.346227948400       8.257753029200
       148    2       90.938250000000       9.423627948400       8.257753029200
       149    2       90.938250000000       1.346227948400       8.257753029200
       150    2       88.606500000000       5.384927948400       8.257753029200
       151    2       86.274750000000       9.423627948400       8.257753029200
       152    1       88.606500000000       2.692472051600       7.501062729600
       153    2       83.943000000000      13.462327948400       8.257753029200
       154    1       93.270000000000      10.769872051600       7.501062729600
       155    1       86.274750000000       6.731172051600       7.501062729600
       156    1       90.938250000000      14.808572051600       7.501062729600
       157    2       93.270000000000       5.384927948400       8.257753029200
       158    2       88.606500000000      13.462327948400       8.257753029200
       159    1       90.938250000000       6.731172051600       7.501062729600
       160    1       86.274750000000      14.808572051600       7.501062729600
       161    1      102.597000000000       2.692472051600       7.501062729600
       162    1       97.933500000000      10.769872051600       7.501062729600
       163    2       95.601750000000       1.346227948400       8.257753029200
       164    2      100.265250000000       9.423627948400       8.257753029200
       165    2      100.265250000000       1.346227948400       8.257753029200
       166    2       97.933500000000       5.384927948400       8.257753029200
       167    2       95.601750000000       9.423627948400       8.257753029200
       168    1       97.933500000000       2.692472051600       7.501062729600
       169    2       93.270000000000      13.462327948400       8.257753029200
       170    1      102.597000000000      10.769872051600       7.501062729600
       171    1       95.601750000000       6.731172051600       7.501062729600
       172    1      100.265250000000      14.808572051600       7.501062729600
       173    2      102.597000000000       5.384927948400       8.257753029200
       174    2       97.933500000000      13.462327948400       8.257753029200
       175    1      100.265250000000       6.731172051600       7.501062729600
       176    1       95.601750000000      14.808572051600       7.501062729600
       177    1        9.327000000000      18.847272051600       7.501062729600
       178    1        4.663500000000      26.924672051600       7.501062729600
       179    2        2.331750000000      17.501027948400       8.257753029200
       180    2        6.995250000000      25.578427948400       8.257753029200
       181    2        6.995250000000      17.501027948400       8.257753029200
       182    2        4.663500000000      21.539727948400       8.257753029200
       183    2        2.331750000000      25.578427948400       8.257753029200
       184    1        4.663500000000      18.847272051600       7.501062729600
       185    2        0.000000000000      29.617127948400       8.257753029200
       186    1        9.327000000000      26.924672051600       7.501062729600
       187    1        2.331750000000      22.885972051600       7.501062729600
       188    1        6.995250000000      30.963372051600       7.501062729600
       189    2        9.327000000000      21.539727948400       8.257753029200
       190    2        4.663500000000      29.617127948400       8.257753029200
       191    1        6.995250000000      22.885972051600       7.501062729600
       192    1        2.331750000000      30.963372051600       7.501062729600
       193    1       18.654000000000      18.847272051600       7.501062729600
       194    1       13.990500000000      26.924672051600       7.501062729600
       195    2       11.658750000000      17.501027948400       8.257753029200
       196    2       16.322250000000      25.578427948400       8.257753029200
       197    2       16.322250000000      17.501027948400       8.257753029200
       198    2       13.990500000000      21.539727948400       8.257753029200
       199    2       11.658750000000      25.578427948400       8.257753029200
       200    1       13.990500000000      18.847272051600       7.501062729600
       201    2        9.327000000000      29.617127948400       8.257753029200
       202    1       18.654000000000      26.924672051600       7.501062729600
       203    1       11.658750000000      22.885972051600       7.501062729600
       204    1       16.322250000000      30.963372051600       7.501062729600
       205    2       18.654000000000      21.539727948400       8.257753029200
       206    2       13.990500000000      29.617127948400       8.257753029200
       207    1       16.322250000000      22.885972051600       7.501062729600
       208    1       11.658750000000      30.963372051600       7.501062729600
       209    1       27.981000000000      18.847272051600       7.501062729600
       210    1       23.317500000000      26.924672051600       7.501062729600
       211    2       20.985750000000      17.501027948400       8.257753029200
       212    2       25.649250000000      25.578427948400       8.257753029200
       213    2       25.649250000000      17.501027948400       8.257753029200
       214    2       23.317500000000      21.539727948400       8.257753029200
       215    2       20.985750000000      25.578427948400       8.257753029200
       216    1       23.317500000000      18.847272051600       7.501062729600
       217    2       18.654000000000      29.617127948400       8.257753029200
       218    1       27.981000000000      26.924672051600       7.501062729600
       219    1       20.985750000000      22.885972051600       7.501062729600
       220    1       25.649250000000      30.963372051600       7.501062729600
       221    2       27.981000000000      21.539727948400       8.257753029200
       222    2       23.317500000000      29.617127948400       8.257753029200
       223    1       25.649250000000      22.885972051600       7.501062729600
       224    1       20.985750000000      30.963372051600       7.501062729600
       225    1       37.308000000000      18.847272051600       7.501062729600
       226    1       32.644500000000      26.924672051600       7.501062729600
       227    2       30.312750000000      17.501027948400       8.257753029200
       228    2       34.976250000000      25.578427948400       8.257753029200
       229    2       34.976250000000      17.501027948400       8.257753029200
       230    2       32.644500000000      21.539727948400       8.257753029200
       231    2       30.312750000000      25.578427948400       8.257753029200
       232    1       32.644500000000      18.847272051600       7.501062729600
       233    2       27.981000000000      29.617127948400       8.257753029200
       234    1       37.308000000000      26.924672051600       7.501062729600
       235    1       30.312750000000      22.885972051600       7.501062729600
       236    1       34.976250000000      30.963372051600       7.501062729600
       237    2       37.308000000000      21.539727948400       8.257753029200
       238    2       32.644500000000      29.617127948400       8.257753029200
       239    1       34.976250000000      22.885972051600       7.501062729600
       240    1       30.312750000000      30.963372051600       7.501062729600
       241    1       46.635000000000      18.847272051600       7.501062729600
       242    1       41.971500000000      26.924672051600       7.501062729600
       243    2       39.639750000000      17.501027948400       8.257753029200
       244    2       44.303250000000      25.578427948400       8.257753029200
       245    2       44.303250000000      17.501027948400       8.257753029200
       246    2       41.971500000000      21.539727948400       8.257753029200
       247    2       39.639750000000      25.578427948400       8.257753029200
       248    1       41.971500000000      18.847272051600       7.501062729600
       249    2       37.308000000000      29.617127948400       8.257753029200
       250    1       46.635000000000      26.924672051600       7.501062729600
       251    1       39.639750000000      22.885972051600       7.501062729600
       252    1       44.303250000000      30.963372051600       7.501062729600
       253    2       46.635000000000      21.539727948400       8.257753029200
       254    2       41.971500000000      29.617127948400       8.257753029200
       255    1       44.303250000000      22.885972051600       7.501062729600
       256    1       39.639750000000      30.963372051600       7.501062729600
       257    1       55.962000000000      18.847272051600       7.501062729600
       258    1       51.298500000000      26.924672051600       7.501062729600
       259    2       48.966750000000      17.501027948400       8.257753029200
       260    2       53.630250000000      25.578427948400       8.257753029200
       261    2       53.630250000000      17.501027948400       8.257753029200
       262    2       51.298500000000      21.539727948400       8.257753029200
       263    2       48.966750000000      25.578427948400       8.257753029200
       264    1       51.298500000000      18.847272051600       7.501062729600
       265    2       46.635000000000      29.617127948400       8.257753029200
       266    1       55.962000000000      26.924672051600       7.501062729600
       267    1       48.966750000000      22.885972051600       7.501062729600
       268    1       53.630250000000      30.963372051600       7.501062729600
       269    2       55.962000000000      21.539727948400       8.257753029200
       270    2       51.298500000000      29.617127948400       8.257753029200
       271    1       53.630250000000      22.885972051600       7.501062729600
       272    1       48.966750000000      30.963372051600       7.501062729600
       273    1       65.289000000000      18.847272051600       7.501062729600
       274    1       60.625500000000      26.924672051600       7.501062729600
       275    2       58.293750000000      17.501027948400       8.257753029200
       276    2       62.957250000000      25.578427948400       8.257753029200
       277    2       62.957250000000      17.501027948400       8.257753029200
       278    2       60.625500000000      21.539727948400       8.257753029200
       279    2       58.293750000000      25.578427948400       8.257753029200
       280    1       60.625500000000      18.847272051600       7.501062729600
       281    2       55.962000000000      29.617127948400       8.257753029200
       282    1       65.289000000000      26.924672051600       7.501062729600
       283    1       58.293750000000      22.885972051600       7.501062729600
       284    1       62.957250000000      30.963372051600       7.501062729600
       285    2       65.289000000000      21.539727948400       8.257753029200
       286    2       60.625500000000      29.617127948400       8.257753029200
       287    1       62.957250000000      22.885972051600       7.501062729600
       288    1       58.293750000000      30.963372051600       7.501062729600
       289    1       74.616000000000      18.847272051600       7.501062729600
       290    1       69.952500000000      26.924672051600       7.501062729600
       291    2       67.620750000000      17.501027948400       8.257753029200
       292    2       72.284250000000      25.578427948400       8.257753029200
       293    2       72.284250000000      17.501027948400       8.257753029200
       294    2       69.952500000000      21.539727948400       8.257753029200
       295    2       67.620750000000      25.578427948400       8.257753029200
       296    1       69.952500000000      18.847272051600       7.501062729600
       297    2       65.289000000000      29.617127948400       8.257753029200
       298    1       74.616000000000      26.924672051600       7.501062729600
       299    1       67.620750000000      22.885972051600       7.501062729600
       300    1       72.284250000000      30.963372051600       7.501062729600
       301    2       74.616000000000      21.539727948400       8.257753029200
       302    2       69.952500000000      29.617127948400       8.257753029200
       303    1       72.284250000000      22.885972051600       7.501062729600
       304    1       67.620750000000      30.963372051600       7.501062729600
       305    1       83.943000000000      18.847272051600       7.501062729600
       306    1       79.279500000000      26.924672051600       7.501062729600
       307    2       76.947750000000      17.501027948400       8.257753029200
       308    2       81.611250000000      25.578427948400       8.257753029200
       309    2       81.611250000000      17.501027948400       8.257753029200
       310    2       79.279500000000      21.539727948400       8.257753029200
       311    2       76.947750000000      25.578427948400       8.257753029200
       312    1       79.279500000000      18.847272051600       7.501062729600
       313    2       74.616000000000      29.617127948400       8.257753029200
       314    1       83.943000000000      26.924672051600       7.501062729600
       315    1       76.947750000000      22.885972051600       7.501062729600
       316    1       81.611250000000      30.963372051600       7.501062729600
       317    2       83.943000000000      21.539727948400       8.257753029200
       318    2       79.279500000000      29.617127948400       8.257753029200
       319    1       81.611250000000      22.885972051600       7.501062729600
       320    1       76.947750000000      30.963372051600       7.501062729600
       321    1       93.270000000000      18.847272051600       7.501062729600
       322    1       88.606500000000      26.924672051600       7.501062729600
       323    2       86.274750000000      17.501027948400       8.257753029200
       324    2       90.938250000000      25.578427948400       8.257753029200
       325    2       90.938250000000      17.501027948400       8.257753029200
       326    2       88.606500000000      21.539727948400       8.257753029200
       327    2       86.274750000000      25.578427948400       8.257753029200
       328    1       88.606500000000      18.847272051600       7.501062729600
       329    2       83.943000000000      29.617127948400       8.257753029200
       330    1       93.270000000000      26.924672051600       7.501062729600
       331    1       86.274750000000      22.885972051600       7.501062729600
       332    1       90.938250000000      30.963372051600       7.501062729600
       333    2       93.270000000000      21.539727948400       8.257753029200
       334    2       88.606500000000      29.617127948400       8.257753029200
       335    1       90.938250000000      22.885972051600       7.501062729600
       336    1       86.274750000000      30.963372051600       7.501062729600
       337    1      102.597000000000      18.847272051600       7.501062729600
       338    1       97.933500000000      26.924672051600       7.501062729600
       339    2       95.601750000000      17.501027948400       8.257753029200
       340    2      100.265250000000      25.578427948400       8.257753029200
       341    2      100.265250000000      17.501027948400       8.257753029200
       342    2       97.933500000000      21.539727948400       8.257753029200
       343    2       95.601750000000      25.578427948400       8.257753029200
       344    1       97.933500000000      18.847272051600       7.501062729600
       345    2       93.270000000000      29.617127948400       8.257753029200
       346    1      102.597000000000      26.924672051600       7.501062729600
       347    1       95.601750000000      22.885972051600       7.501062729600
       348    1      100.265250000000      30.963372051600       7.501062729600
       349    2      102.597000000000      21.539727948400       8.257753029200
       350    2       97.933500000000      29.617127948400       8.257753029200
       351    1      100.265250000000      22.885972051600       7.501062729600
       352    1       95.601750000000      30.963372051600       7.501062729600
       353    1        9.327000000000      35.002072051600       7.501062729600
       354    1        4.663500000000      43.079472051600       7.501062729600
       355    2        2.331750000000      33.655827948400       8.257753029200
       356    2        6.995250000000      41.733227948400       8.257753029200
       357    2        6.995250000000      33.655827948400       8.257753029200
       358    2        4.663500000000      37.694527948400       8.257753029200
       359    2        2.331750000000      41.733227948400       8.257753029200
       360    1        4.663500000000      35.002072051600       7.501062729600
       361    2        0.000000000000      45.771927948400       8.257753029200
       362    1        9.327000000000      43.079472051600       7.501062729600
       363    1        2.331750000000      39.040772051600       7.501062729600
       364    1        6.995250000000      47.118172051600       7.501062729600
       365    2        9.327000000000      37.694527948400       8.257753029200
       366    2        4.663500000000      45.771927948400       8.257753029200
       367    1        6.995250000000      39.040772051600       7.501062729600
       368    1        2.331750000000      47.118172051600       7.501062729600
       369    1       18.654000000000      35.002072051600       7.501062729600
       370    1       13.990500000000      43.079472051600       7.501062729600