 # S8 Si8
  
        2160  atoms
           2  atom types
 
      0.000000000000      99.310500000000  xlo xhi
      0.000000000000     103.206600000000  ylo yhi
      0.000000000000      16.359800000000  zlo zhi
 
Masses
 
            1   32.06000000             # S
            2   28.08500000             # Si
 
Atoms # atomic
 
         1    1        1.655175000000       4.778087155800       7.513745303800
         2    2        3.310350000000       3.822462844200       8.845727500200
         3    1        4.965525000000      10.511787155800       7.513745303800
         4    2        0.000000000000       9.556162844200       8.845727500200
         5    1        4.965525000000       4.778087155800       7.513745303800
         6    1        1.655175000000      10.511787155800       7.513745303800
         7    2        1.655175000000       0.955612844200       8.845727500200
         8    2        4.965525000000       6.689312844200       8.845727500200
         9    2        4.965525000000       0.955612844200       8.845727500200
        10    2        1.655175000000       6.689312844200       8.845727500200
        11    1        0.000000000000       1.911237155800       7.513745303800
        12    1        3.310350000000       7.644937155800       7.513745303800
        13    1        3.310350000000       1.911237155800       7.513745303800
        14    1        0.000000000000       7.644937155800       7.513745303800
        15    2        0.000000000000       3.822462844200       8.845727500200
        16    2        3.310350000000       9.556162844200       8.845727500200
        17    1        8.275875000000       4.778087155800       7.513745303800
        18    2        9.931050000000       3.822462844200       8.845727500200
        19    1       11.586225000000      10.511787155800       7.513745303800
        20    2        6.620700000000       9.556162844200       8.845727500200
        21    1       11.586225000000       4.778087155800       7.513745303800
        22    1        8.275875000000      10.511787155800       7.513745303800
        23    2        8.275875000000       0.955612844200       8.845727500200
        24    2       11.586225000000       6.689312844200       8.845727500200
        25    2       11.586225000000       0.955612844200       8.845727500200
        26    2        8.275875000000       6.689312844200       8.845727500200
        27    1        6.620700000000       1.911237155800       7.513745303800
        28    1        9.931050000000       7.644937155800       7.513745303800
        29    1        9.931050000000       1.911237155800       7.513745303800
        30    1        6.620700000000       7.644937155800       7.513745303800
        31    2        6.620700000000       3.822462844200       8.845727500200
        32    2        9.931050000000       9.556162844200       8.845727500200
        33    1       14.896575000000       4.778087155800       7.513745303800
        34    2       16.551750000000       3.822462844200       8.845727500200
        35    1       18.206925000000      10.511787155800       7.513745303800
        36    2       13.241400000000       9.556162844200       8.845727500200
        37    1       18.206925000000       4.778087155800       7.513745303800
        38    1       14.896575000000      10.511787155800       7.513745303800
        39    2       14.896575000000       0.955612844200       8.845727500200
        40    2       18.206925000000       6.689312844200       8.845727500200
        41    2       18.206925000000       0.955612844200       8.845727500200
        42    2       14.896575000000       6.689312844200       8.845727500200
        43    1       13.241400000000       1.911237155800       7.513745303800
        44    1       16.551750000000       7.644937155800       7.513745303800
        45    1       16.551750000000       1.911237155800       7.513745303800
        46    1       13.241400000000       7.644937155800       7.513745303800
        47    2       13.241400000000       3.822462844200       8.845727500200
        48    2       16.551750000000       9.556162844200       8.845727500200
        49    1       21.517275000000       4.778087155800       7.513745303800
        50    2       23.172450000000       3.822462844200       8.845727500200
        51    1       24.827625000000      10.511787155800       7.513745303800
        52    2       19.862100000000       9.556162844200       8.845727500200
        53    1       24.827625000000       4.778087155800       7.513745303800
        54    1       21.517275000000      10.511787155800       7.513745303800
        55    2       21.517275000000       0.955612844200       8.845727500200
        56    2       24.827625000000       6.689312844200       8.845727500200
        57    2       24.827625000000       0.955612844200       8.845727500200
        58    2       21.517275000000       6.689312844200       8.845727500200
        59    1       19.862100000000       1.911237155800       7.513745303800
        60    1       23.172450000000       7.644937155800       7.513745303800
        61    1       23.172450000000       1.911237155800       7.513745303800
        62    1       19.862100000000       7.644937155800       7.513745303800
        63    2       19.862100000000       3.822462844200       8.845727500200
        64    2       23.172450000000       9.556162844200       8.845727500200
        65    1       28.137975000000       4.778087155800       7.513745303800
        66    2       29.793150000000       3.822462844200       8.845727500200
        67    1       31.448325000000      10.511787155800       7.513745303800
        68    2       26.482800000000       9.556162844200       8.845727500200
        69    1       31.448325000000       4.778087155800       7.513745303800
        70    1       28.137975000000      10.511787155800       7.513745303800
        71    2       28.137975000000       0.955612844200       8.845727500200
        72    2       31.448325000000       6.689312844200       8.845727500200
        73    2       31.448325000000       0.955612844200       8.845727500200
        74    2       28.137975000000       6.689312844200       8.845727500200
        75    1       26.482800000000       1.911237155800       7.513745303800
        76    1       29.793150000000       7.644937155800       7.513745303800
        77    1       29.793150000000       1.911237155800       7.513745303800
        78    1       26.482800000000       7.644937155800       7.513745303800
        79    2       26.482800000000       3.822462844200       8.845727500200
        80    2       29.793150000000       9.556162844200       8.845727500200
        81    1       34.758675000000       4.778087155800       7.513745303800
        82    2       36.413850000000       3.822462844200       8.845727500200
        83    1       38.069025000000      10.511787155800       7.513745303800
        84    2       33.103500000000       9.556162844200       8.845727500200
        85    1       38.069025000000       4.778087155800       7.513745303800
        86    1       34.758675000000      10.511787155800       7.513745303800
        87    2       34.758675000000       0.955612844200       8.845727500200
        88    2       38.069025000000       6.689312844200       8.845727500200
        89    2       38.069025000000       0.955612844200       8.845727500200
        90    2       34.758675000000       6.689312844200       8.845727500200
        91    1       33.103500000000       1.911237155800       7.513745303800
        92    1       36.413850000000       7.644937155800       7.513745303800
        93    1       36.413850000000       1.911237155800       7.513745303800
        94    1       33.103500000000       7.644937155800       7.513745303800
        95    2       33.103500000000       3.822462844200       8.845727500200
        96    2       36.413850000000       9.556162844200       8.845727500200
        97    1       41.379375000000       4.778087155800       7.513745303800
        98    2       43.034550000000       3.822462844200       8.845727500200
        99    1       44.689725000000      10.511787155800       7.513745303800
       100    2       39.724200000000       9.556162844200       8.845727500200
       101    1       44.689725000000       4.778087155800       7.513745303800
       102    1       41.379375000000      10.511787155800       7.513745303800
       103    2       41.379375000000       0.955612844200       8.845727500200
       104    2       44.689725000000       6.689312844200       8.845727500200
       105    2       44.689725000000       0.955612844200       8.845727500200
       106    2       41.379375000000       6.689312844200       8.845727500200
       107    1       39.724200000000       1.911237155800       7.513745303800
       108    1       43.034550000000       7.644937155800       7.513745303800
       109    1       43.034550000000       1.911237155800       7.513745303800
       110    1       39.724200000000       7.644937155800       7.513745303800
       111    2       39.724200000000       3.822462844200       8.845727500200
       112    2       43.034550000000       9.556162844200       8.845727500200
       113    1       48.000075000000       4.778087155800       7.513745303800
       114    2       49.655250000000       3.822462844200       8.845727500200
       115    1       51.310425000000      10.511787155800       7.513745303800
       116    2       46.344900000000       9.556162844200       8.845727500200
       117    1       51.310425000000       4.778087155800       7.513745303800
       118    1       48.000075000000      10.511787155800       7.513745303800
       119    2       48.000075000000       0.955612844200       8.845727500200
       120    2       51.310425000000       6.689312844200       8.845727500200
       121    2       51.310425000000       0.955612844200       8.845727500200
       122    2       48.000075000000       6.689312844200       8.845727500200
       123    1       46.344900000000       1.911237155800       7.513745303800
       124    1       49.655250000000       7.644937155800       7.513745303800
       125    1       49.655250000000       1.911237155800       7.513745303800
       126    1       46.344900000000       7.644937155800       7.513745303800
       127    2       46.344900000000       3.822462844200       8.845727500200
       128    2       49.655250000000       9.556162844200       8.845727500200
       129    1       54.620775000000       4.778087155800       7.513745303800
       130    2       56.275950000000       3.822462844200       8.845727500200
       131    1       57.931125000000      10.511787155800       7.513745303800
       132    2       52.965600000000       9.556162844200       8.845727500200
       133    1       57.931125000000       4.778087155800       7.513745303800
       134    1       54.620775000000      10.511787155800       7.513745303800
       135    2       54.620775000000       0.955612844200       8.845727500200
       136    2       57.931125000000       6.689312844200       8.845727500200
       137    2       57.931125000000       0.955612844200       8.845727500200
       138    2       54.620775000000       6.689312844200       8.845727500200
       139    1       52.965600000000       1.911237155800       7.513745303800
       140    1       56.275950000000       7.644937155800       7.513745303800
       141    1       56.275950000000       1.911237155800       7.513745303800
       142    1       52.965600000000       7.644937155800       7.513745303800
       143    2       52.965600000000       3.822462844200       8.845727500200
       144    2       56.275950000000       9.556162844200       8.845727500200
       145    1       61.241475000000       4.778087155800       7.513745303800
       146    2       62.896650000000       3.822462844200       8.845727500200
       147    1       64.551825000000      10.511787155800       7.513745303800
       148    2       59.586300000000       9.556162844200       8.845727500200
       149    1       64.551825000000       4.778087155800       7.513745303800
       150    1       61.241475000000      10.511787155800       7.513745303800
       151    2       61.241475000000       0.955612844200       8.845727500200
       152    2       64.551825000000       6.689312844200       8.845727500200
       153    2       64.551825000000       0.955612844200       8.845727500200
       154    2       61.241475000000       6.689312844200       8.845727500200
       155    1       59.586300000000       1.911237155800       7.513745303800
       156    1       62.896650000000       7.644937155800       7.513745303800
       157    1       62.896650000000       1.911237155800       7.513745303800
       158    1       59.586300000000       7.644937155800       7.513745303800
       159    2       59.586300000000       3.822462844200       8.845727500200
       160    2       62.896650000000       9.556162844200       8.845727500200
       161    1       67.862175000000       4.778087155800       7.513745303800
       162    2       69.517350000000       3.822462844200       8.845727500200
       163    1       71.172525000000      10.511787155800       7.513745303800
       164    2       66.207000000000       9.556162844200       8.845727500200
       165    1       71.172525000000       4.778087155800       7.513745303800
       166    1       67.862175000000      10.511787155800       7.513745303800
       167    2       67.862175000000       0.955612844200       8.845727500200
       168    2       71.172525000000       6.689312844200       8.845727500200
       169    2       71.172525000000       0.955612844200       8.845727500200
       170    2       67.862175000000       6.689312844200       8.845727500200
       171    1       66.207000000000       1.911237155800       7.513745303800
       172    1       69.517350000000       7.644937155800       7.513745303800
       173    1       69.517350000000       1.911237155800       7.513745303800
       174    1       66.207000000000       7.644937155800       7.513745303800
       175    2       66.207000000000       3.822462844200       8.845727500200
       176    2       69.517350000000       9.556162844200       8.845727500200
       177    1       74.482875000000       4.778087155800       7.513745303800
       178    2       76.138050000000       3.822462844200       8.845727500200
       179    1       77.793225000000      10.511787155800       7.513745303800
       180    2       72.827700000000       9.556162844200       8.845727500200
       181    1       77.793225000000       4.778087155800       7.513745303800
       182    1       74.482875000000      10.511787155800       7.513745303800
       183    2       74.482875000000       0.955612844200       8.845727500200
       184    2       77.793225000000       6.689312844200       8.845727500200
       185    2       77.793225000000       0.955612844200       8.845727500200
       186    2       74.482875000000       6.689312844200       8.845727500200
       187    1       72.827700000000       1.911237155800       7.513745303800
       188    1       76.138050000000       7.644937155800       7.513745303800
       189    1       76.138050000000       1.911237155800       7.513745303800
       190    1       72.827700000000       7.644937155800       7.513745303800
       191    2       72.827700000000       3.822462844200       8.845727500200
       192    2       76.138050000000       9.556162844200       8.845727500200
       193    1       81.103575000000       4.778087155800       7.513745303800
       194    2       82.758750000000       3.822462844200       8.845727500200
       195    1       84.413925000000      10.511787155800       7.513745303800
       196    2       79.448400000000       9.556162844200       8.845727500200
       197    1       84.413925000000       4.778087155800       7.513745303800
       198    1       81.103575000000      10.511787155800       7.513745303800
       199    2       81.103575000000       0.955612844200       8.845727500200
       200    2       84.413925000000       6.689312844200       8.845727500200
       201    2       84.413925000000       0.955612844200       8.845727500200
       202    2       81.103575000000       6.689312844200       8.845727500200
       203    1       79.448400000000       1.911237155800       7.513745303800
       204    1       82.758750000000       7.644937155800       7.513745303800
       205    1       82.758750000000       1.911237155800       7.513745303800
       206    1       79.448400000000       7.644937155800       7.513745303800
       207    2       79.448400000000       3.822462844200       8.845727500200
       208    2       82.758750000000       9.556162844200       8.845727500200
       209    1       87.724275000000       4.778087155800       7.513745303800
       210    2       89.379450000000       3.822462844200       8.845727500200
       211    1       91.034625000000      10.511787155800       7.513745303800
       212    2       86.069100000000       9.556162844200       8.845727500200
       213    1       91.034625000000       4.778087155800       7.513745303800
       214    1       87.724275000000      10.511787155800       7.513745303800
       215    2       87.724275000000       0.955612844200       8.845727500200
       216    2       91.034625000000       6.689312844200       8.845727500200
       217    2       91.034625000000       0.955612844200       8.845727500200
       218    2       87.724275000000       6.689312844200       8.845727500200
       219    1       86.069100000000       1.911237155800       7.513745303800
       220    1       89.379450000000       7.644937155800       7.513745303800
       221    1       89.379450000000       1.911237155800       7.513745303800
       222    1       86.069100000000       7.644937155800       7.513745303800
       223    2       86.069100000000       3.822462844200       8.845727500200
       224    2       89.379450000000       9.556162844200       8.845727500200
       225    1       94.344975000000       4.778087155800       7.513745303800
       226    2       96.000150000000       3.822462844200       8.845727500200
       227    1       97.655325000000      10.511787155800       7.513745303800
       228    2       92.689800000000       9.556162844200       8.845727500200
       229    1       97.655325000000       4.778087155800       7.513745303800
       230    1       94.344975000000      10.511787155800       7.513745303800
       231    2       94.344975000000       0.955612844200       8.845727500200
       232    2       97.655325000000       6.689312844200       8.845727500200
       233    2       97.655325000000       0.955612844200       8.845727500200
       234    2       94.344975000000       6.689312844200       8.845727500200
       235    1       92.689800000000       1.911237155800       7.513745303800
       236    1       96.000150000000       7.644937155800       7.513745303800
       237    1       96.000150000000       1.911237155800       7.513745303800
       238    1       92.689800000000       7.644937155800       7.513745303800
       239    2       92.689800000000       3.822462844200       8.845727500200
       240    2       96.000150000000       9.556162844200       8.845727500200
       241    1        1.655175000000      16.245487155800       7.513745303800
       242    2        3.310350000000      15.289862844200       8.845727500200
       243    1        4.965525000000      21.979187155800       7.513745303800
       244    2        0.000000000000      21.023562844200       8.845727500200
       245    1        4.965525000000      16.245487155800       7.513745303800
       246    1        1.655175000000      21.979187155800       7.513745303800
       247    2        1.655175000000      12.423012844200       8.845727500200
       248    2        4.965525000000      18.156712844200       8.845727500200
       249    2        4.965525000000      12.423012844200       8.845727500200
       250    2        1.655175000000      18.156712844200       8.845727500200
       251    1        0.000000000000      13.378637155800       7.513745303800
       252    1        3.310350000000      19.112337155800       7.513745303800
       253    1        3.310350000000      13.378637155800       7.513745303800
       254    1        0.000000000000      19.112337155800       7.513745303800
       255    2        0.000000000000      15.289862844200       8.845727500200
       256    2        3.310350000000      21.023562844200       8.845727500200
       257    1        8.275875000000      16.245487155800       7.513745303800
       258    2        9.931050000000      15.289862844200       8.845727500200
       259    1       11.586225000000      21.979187155800       7.513745303800
       260    2        6.620700000000      21.023562844200       8.845727500200
       261    1       11.586225000000      16.245487155800       7.513745303800
       262    1        8.275875000000      21.979187155800       7.513745303800
       263    2        8.275875000000      12.423012844200       8.845727500200
       264    2       11.586225000000      18.156712844200       8.845727500200
       265    2       11.586225000000      12.423012844200       8.845727500200
       266    2        8.275875000000      18.156712844200       8.845727500200
       267    1        6.620700000000      13.378637155800       7.513745303800
       268    1        9.931050000000      19.112337155800       7.513745303800
       269    1        9.931050000000      13.378637155800       7.513745303800
       270    1        6.620700000000      19.112337155800       7.513745303800
       271    2        6.620700000000      15.289862844200       8.845727500200
       272    2        9.931050000000      21.023562844200       8.845727500200
       273    1       14.896575000000      16.245487155800       7.513745303800
       274    2       16.551750000000      15.289862844200       8.845727500200
       275    1       18.206925000000      21.979187155800       7.513745303800
       276    2       13.241400000000      21.023562844200       8.845727500200
       277    1       18.206925000000      16.245487155800       7.513745303800
       278    1       14.896575000000      21.979187155800       7.513745303800
       279    2       14.896575000000      12.423012844200       8.845727500200
       280    2       18.206925000000      18.156712844200       8.845727500200
       281    2       18.206925000000      12.423012844200       8.845727500200
       282    2       14.896575000000      18.156712844200       8.845727500200
       283    1       13.241400000000      13.378637155800       7.513745303800
       284    1       16.551750000000      19.112337155800       7.513745303800
       285    1       16.551750000000      13.378637155800       7.513745303800
       286    1       13.241400000000      19.112337155800       7.513745303800
       287    2       13.241400000000      15.289862844200       8.845727500200
       288    2       16.551750000000      21.023562844200       8.845727500200
       289    1       21.517275000000      16.245487155800       7.513745303800
       290    2       23.172450000000      15.289862844200       8.845727500200
       291    1       24.827625000000      21.979187155800       7.513745303800
       292    2       19.862100000000      21.023562844200       8.845727500200
       293    1       24.827625000000      16.245487155800       7.513745303800
       294    1       21.517275000000      21.979187155800       7.513745303800
       295    2       21.517275000000      12.423012844200       8.845727500200
       296    2       24.827625000000      18.156712844200       8.845727500200
       297    2       24.827625000000      12.423012844200       8.845727500200
       298    2       21.517275000000      18.156712844200       8.845727500200
       299    1       19.862100000000      13.378637155800       7.513745303800
       300    1       23.172450000000      19.112337155800       7.513745303800
       301    1       23.172450000000      13.378637155800       7.513745303800
       302    1       19.862100000000      19.112337155800       7.513745303800
       303    2       19.862100000000      15.289862844200       8.845727500200
       304    2       23.172450000000      21.023562844200       8.845727500200
       305    1       28.137975000000      16.245487155800       7.513745303800
       306    2       29.793150000000      15.289862844200       8.845727500200
       307    1       31.448325000000      21.979187155800       7.513745303800
       308    2       26.482800000000      21.023562844200       8.845727500200
       309    1       31.448325000000      16.245487155800       7.513745303800
       310    1       28.137975000000      21.979187155800       7.513745303800
       311    2       28.137975000000      12.423012844200       8.845727500200
       312    2       31.448325000000      18.156712844200       8.845727500200
       313    2       31.448325000000      12.423012844200       8.845727500200
       314    2       28.137975000000      18.156712844200       8.845727500200
       315    1       26.482800000000      13.378637155800       7.513745303800
       316    1       29.793150000000      19.112337155800       7.513745303800
       317    1       29.793150000000      13.378637155800       7.513745303800
       318    1       26.482800000000      19.112337155800       7.513745303800
       319    2       26.482800000000      15.289862844200       8.845727500200
       320    2       29.793150000000      21.023562844200       8.845727500200
       321    1       34.758675000000      16.245487155800       7.513745303800
       322    2       36.413850000000      15.289862844200       8.845727500200
       323    1       38.069025000000      21.979187155800       7.513745303800
       324    2       33.103500000000      21.023562844200       8.845727500200
       325    1       38.069025000000      16.245487155800       7.513745303800
       326    1       34.758675000000      21.979187155800       7.513745303800
       327    2       34.758675000000      12.423012844200       8.845727500200
       328    2       38.069025000000      18.156712844200       8.845727500200
       329    2       38.069025000000      12.423012844200       8.845727500200
       330    2       34.758675000000      18.156712844200       8.845727500200
       331    1       33.103500000000      13.378637155800       7.513745303800
       332    1       36.413850000000      19.112337155800       7.513745303800
       333    1       36.413850000000      13.378637155800       7.513745303800
       334    1       33.103500000000      19.112337155800       7.513745303800
       335    2       33.103500000000      15.289862844200       8.845727500200
       336    2       36.413850000000      21.023562844200       8.845727500200
       337    1       41.379375000000      16.245487155800       7.513745303800
       338    2       43.034550000000      15.289862844200       8.845727500200
       339    1       44.689725000000      21.979187155800       7.513745303800
       340    2       39.724200000000      21.023562844200       8.845727500200
       341    1       44.689725000000      16.245487155800       7.513745303800
       342    1       41.379375000000      21.979187155800       7.513745303800
       343    2       41.379375000000      12.423012844200       8.845727500200
       344    2       44.689725000000      18.156712844200       8.845727500200
       345    2       44.689725000000      12.423012844200       8.845727500200
       346    2       41.379375000000      18.156712844200       8.845727500200
       347    1       39.724200000000      13.378637155800       7.513745303800
       348    1       43.034550000000      19.112337155800       7.513745303800
       349    1       43.034550000000      13.378637155800       7.513745303800
       350    1       39.724200000000      19.112337155800       7.513745303800
       351    2       39.724200000000      15.289862844200       8.845727500200
       352    2       43.034550000000      21.023562844200       8.845727500200
       353    1       48.000075000000      16.245487155800       7.513745303800
       354    2       49.655250000000      15.289862844200       8.845727500200
       355    1       51.310425000000      21.979187155800       7.513745303800
       356    2       46.344900000000      21.023562844200       8.845727500200
       357    1       51.310425000000      16.245487155800       7.513745303800
       358    1       48.000075000000      21.979187155800       7.513745303800
       359    2       48.000075000000      12.423012844200       8.845727500200
       360    2       51.310425000000      18.156712844200       8.845727500200
       361    2       51.310425000000      12.423012844200       8.845727500200
       362    2       48.000075000000      18.156712844200       8.845727500200
       363    1       46.344900000000      13.378637155800       7.513745303800
       364    1       49.655250000000      19.112337155800       7.513745303800
       365    1       49.655250000000      13.378637155800       7.513745303800
       366    1       46.344900000000      19.112337155800       7.513745303800
       367    2       46.344900000000      15.289862844200       8.845727500200
       368    2       49.655250000000      21.023562844200       8.845727500200
       369    1       54.620775000000      16.245487155800       7.513745303800
       370    2       56.275950000000      15.289862844200       8.845727500200