 # Ge8 Si8
  
        1456  atoms
           2  atom types
 
      0.000000000000     101.140000000000  xlo xhi
      0.000000000000      94.327800000000  ylo yhi
      0.000000000000     106.000000000000  zlo zhi
 
Masses
 
            1   72.63000000             # Ge
            2   28.08500000             # Si
 
Atoms # atomic
 
         1    1        3.890000000000       4.491795508200      53.540388000000
         2    1        7.780000000000      11.229495508200      53.540388000000
         3    1        1.945000000000       1.122945508200      53.540388000000
         4    2        5.835000000000       5.614754491800      53.000000000000
         5    2        1.945000000000      12.352454491800      53.000000000000
         6    1        5.835000000000       7.860645508200      53.540388000000
         7    1        5.835000000000       1.122945508200      53.540388000000
         8    1        1.945000000000       7.860645508200      53.540388000000
         9    1        7.780000000000       4.491795508200      53.540388000000
        10    1        3.890000000000      11.229495508200      53.540388000000
        11    2        7.780000000000       2.245904491800      53.000000000000
        12    2        3.890000000000       8.983604491800      53.000000000000
        13    2        3.890000000000       2.245904491800      53.000000000000
        14    2        7.780000000000       8.983604491800      53.000000000000
        15    2        1.945000000000       5.614754491800      53.000000000000
        16    2        5.835000000000      12.352454491800      53.000000000000
        17    1       11.670000000000       4.491795508200      53.540388000000
        18    1       15.560000000000      11.229495508200      53.540388000000
        19    1        9.725000000000       1.122945508200      53.540388000000
        20    2       13.615000000000       5.614754491800      53.000000000000
        21    2        9.725000000000      12.352454491800      53.000000000000
        22    1       13.615000000000       7.860645508200      53.540388000000
        23    1       13.615000000000       1.122945508200      53.540388000000
        24    1        9.725000000000       7.860645508200      53.540388000000
        25    1       15.560000000000       4.491795508200      53.540388000000
        26    1       11.670000000000      11.229495508200      53.540388000000
        27    2       15.560000000000       2.245904491800      53.000000000000
        28    2       11.670000000000       8.983604491800      53.000000000000
        29    2       11.670000000000       2.245904491800      53.000000000000
        30    2       15.560000000000       8.983604491800      53.000000000000
        31    2        9.725000000000       5.614754491800      53.000000000000
        32    2       13.615000000000      12.352454491800      53.000000000000
        33    1       19.450000000000       4.491795508200      53.540388000000
        34    1       23.340000000000      11.229495508200      53.540388000000
        35    1       17.505000000000       1.122945508200      53.540388000000
        36    2       21.395000000000       5.614754491800      53.000000000000
        37    2       17.505000000000      12.352454491800      53.000000000000
        38    1       21.395000000000       7.860645508200      53.540388000000
        39    1       21.395000000000       1.122945508200      53.540388000000
        40    1       17.505000000000       7.860645508200      53.540388000000
        41    1       23.340000000000       4.491795508200      53.540388000000
        42    1       19.450000000000      11.229495508200      53.540388000000
        43    2       23.340000000000       2.245904491800      53.000000000000
        44    2       19.450000000000       8.983604491800      53.000000000000
        45    2       19.450000000000       2.245904491800      53.000000000000
        46    2       23.340000000000       8.983604491800      53.000000000000
        47    2       17.505000000000       5.614754491800      53.000000000000
        48    2       21.395000000000      12.352454491800      53.000000000000
        49    1       27.230000000000       4.491795508200      53.540388000000
        50    1       31.120000000000      11.229495508200      53.540388000000
        51    1       25.285000000000       1.122945508200      53.540388000000
        52    2       29.175000000000       5.614754491800      53.000000000000
        53    2       25.285000000000      12.352454491800      53.000000000000
        54    1       29.175000000000       7.860645508200      53.540388000000
        55    1       29.175000000000       1.122945508200      53.540388000000
        56    1       25.285000000000       7.860645508200      53.540388000000
        57    1       31.120000000000       4.491795508200      53.540388000000
        58    1       27.230000000000      11.229495508200      53.540388000000
        59    2       31.120000000000       2.245904491800      53.000000000000
        60    2       27.230000000000       8.983604491800      53.000000000000
        61    2       27.230000000000       2.245904491800      53.000000000000
        62    2       31.120000000000       8.983604491800      53.000000000000
        63    2       25.285000000000       5.614754491800      53.000000000000
        64    2       29.175000000000      12.352454491800      53.000000000000
        65    1       35.010000000000       4.491795508200      53.540388000000
        66    1       38.900000000000      11.229495508200      53.540388000000
        67    1       33.065000000000       1.122945508200      53.540388000000
        68    2       36.955000000000       5.614754491800      53.000000000000
        69    2       33.065000000000      12.352454491800      53.000000000000
        70    1       36.955000000000       7.860645508200      53.540388000000
        71    1       36.955000000000       1.122945508200      53.540388000000
        72    1       33.065000000000       7.860645508200      53.540388000000
        73    1       38.900000000000       4.491795508200      53.540388000000
        74    1       35.010000000000      11.229495508200      53.540388000000
        75    2       38.900000000000       2.245904491800      53.000000000000
        76    2       35.010000000000       8.983604491800      53.000000000000
        77    2       35.010000000000       2.245904491800      53.000000000000
        78    2       38.900000000000       8.983604491800      53.000000000000
        79    2       33.065000000000       5.614754491800      53.000000000000
        80    2       36.955000000000      12.352454491800      53.000000000000
        81    1       42.790000000000       4.491795508200      53.540388000000
        82    1       46.680000000000      11.229495508200      53.540388000000
        83    1       40.845000000000       1.122945508200      53.540388000000
        84    2       44.735000000000       5.614754491800      53.000000000000
        85    2       40.845000000000      12.352454491800      53.000000000000
        86    1       44.735000000000       7.860645508200      53.540388000000
        87    1       44.735000000000       1.122945508200      53.540388000000
        88    1       40.845000000000       7.860645508200      53.540388000000
        89    1       46.680000000000       4.491795508200      53.540388000000
        90    1       42.790000000000      11.229495508200      53.540388000000
        91    2       46.680000000000       2.245904491800      53.000000000000
        92    2       42.790000000000       8.983604491800      53.000000000000
        93    2       42.790000000000       2.245904491800      53.000000000000
        94    2       46.680000000000       8.983604491800      53.000000000000
        95    2       40.845000000000       5.614754491800      53.000000000000
        96    2       44.735000000000      12.352454491800      53.000000000000
        97    1       50.570000000000       4.491795508200      53.540388000000
        98    1       54.460000000000      11.229495508200      53.540388000000
        99    1       48.625000000000       1.122945508200      53.540388000000
       100    2       52.515000000000       5.614754491800      53.000000000000
       101    2       48.625000000000      12.352454491800      53.000000000000
       102    1       52.515000000000       7.860645508200      53.540388000000
       103    1       52.515000000000       1.122945508200      53.540388000000
       104    1       48.625000000000       7.860645508200      53.540388000000
       105    1       54.460000000000       4.491795508200      53.540388000000
       106    1       50.570000000000      11.229495508200      53.540388000000
       107    2       54.460000000000       2.245904491800      53.000000000000
       108    2       50.570000000000       8.983604491800      53.000000000000
       109    2       50.570000000000       2.245904491800      53.000000000000
       110    2       54.460000000000       8.983604491800      53.000000000000
       111    2       48.625000000000       5.614754491800      53.000000000000
       112    2       52.515000000000      12.352454491800      53.000000000000
       113    1       58.350000000000       4.491795508200      53.540388000000
       114    1       62.240000000000      11.229495508200      53.540388000000
       115    1       56.405000000000       1.122945508200      53.540388000000
       116    2       60.295000000000       5.614754491800      53.000000000000
       117    2       56.405000000000      12.352454491800      53.000000000000
       118    1       60.295000000000       7.860645508200      53.540388000000
       119    1       60.295000000000       1.122945508200      53.540388000000
       120    1       56.405000000000       7.860645508200      53.540388000000
       121    1       62.240000000000       4.491795508200      53.540388000000
       122    1       58.350000000000      11.229495508200      53.540388000000
       123    2       62.240000000000       2.245904491800      53.000000000000
       124    2       58.350000000000       8.983604491800      53.000000000000
       125    2       58.350000000000       2.245904491800      53.000000000000
       126    2       62.240000000000       8.983604491800      53.000000000000
       127    2       56.405000000000       5.614754491800      53.000000000000
       128    2       60.295000000000      12.352454491800      53.000000000000
       129    1       66.130000000000       4.491795508200      53.540388000000
       130    1       70.020000000000      11.229495508200      53.540388000000
       131    1       64.185000000000       1.122945508200      53.540388000000
       132    2       68.075000000000       5.614754491800      53.000000000000
       133    2       64.185000000000      12.352454491800      53.000000000000
       134    1       68.075000000000       7.860645508200      53.540388000000
       135    1       68.075000000000       1.122945508200      53.540388000000
       136    1       64.185000000000       7.860645508200      53.540388000000
       137    1       70.020000000000       4.491795508200      53.540388000000
       138    1       66.130000000000      11.229495508200      53.540388000000
       139    2       70.020000000000       2.245904491800      53.000000000000
       140    2       66.130000000000       8.983604491800      53.000000000000
       141    2       66.130000000000       2.245904491800      53.000000000000
       142    2       70.020000000000       8.983604491800      53.000000000000
       143    2       64.185000000000       5.614754491800      53.000000000000
       144    2       68.075000000000      12.352454491800      53.000000000000
       145    1       73.910000000000       4.491795508200      53.540388000000
       146    1       77.800000000000      11.229495508200      53.540388000000
       147    1       71.965000000000       1.122945508200      53.540388000000
       148    2       75.855000000000       5.614754491800      53.000000000000
       149    2       71.965000000000      12.352454491800      53.000000000000
       150    1       75.855000000000       7.860645508200      53.540388000000
       151    1       75.855000000000       1.122945508200      53.540388000000
       152    1       71.965000000000       7.860645508200      53.540388000000
       153    1       77.800000000000       4.491795508200      53.540388000000
       154    1       73.910000000000      11.229495508200      53.540388000000
       155    2       77.800000000000       2.245904491800      53.000000000000
       156    2       73.910000000000       8.983604491800      53.000000000000
       157    2       73.910000000000       2.245904491800      53.000000000000
       158    2       77.800000000000       8.983604491800      53.000000000000
       159    2       71.965000000000       5.614754491800      53.000000000000
       160    2       75.855000000000      12.352454491800      53.000000000000
       161    1       81.690000000000       4.491795508200      53.540388000000
       162    1       85.580000000000      11.229495508200      53.540388000000
       163    1       79.745000000000       1.122945508200      53.540388000000
       164    2       83.635000000000       5.614754491800      53.000000000000
       165    2       79.745000000000      12.352454491800      53.000000000000
       166    1       83.635000000000       7.860645508200      53.540388000000
       167    1       83.635000000000       1.122945508200      53.540388000000
       168    1       79.745000000000       7.860645508200      53.540388000000
       169    1       85.580000000000       4.491795508200      53.540388000000
       170    1       81.690000000000      11.229495508200      53.540388000000
       171    2       85.580000000000       2.245904491800      53.000000000000
       172    2       81.690000000000       8.983604491800      53.000000000000
       173    2       81.690000000000       2.245904491800      53.000000000000
       174    2       85.580000000000       8.983604491800      53.000000000000
       175    2       79.745000000000       5.614754491800      53.000000000000
       176    2       83.635000000000      12.352454491800      53.000000000000
       177    1       89.470000000000       4.491795508200      53.540388000000
       178    1       93.360000000000      11.229495508200      53.540388000000
       179    1       87.525000000000       1.122945508200      53.540388000000
       180    2       91.415000000000       5.614754491800      53.000000000000
       181    2       87.525000000000      12.352454491800      53.000000000000
       182    1       91.415000000000       7.860645508200      53.540388000000
       183    1       91.415000000000       1.122945508200      53.540388000000
       184    1       87.525000000000       7.860645508200      53.540388000000
       185    1       93.360000000000       4.491795508200      53.540388000000
       186    1       89.470000000000      11.229495508200      53.540388000000
       187    2       93.360000000000       2.245904491800      53.000000000000
       188    2       89.470000000000       8.983604491800      53.000000000000
       189    2       89.470000000000       2.245904491800      53.000000000000
       190    2       93.360000000000       8.983604491800      53.000000000000
       191    2       87.525000000000       5.614754491800      53.000000000000
       192    2       91.415000000000      12.352454491800      53.000000000000
       193    1       97.250000000000       4.491795508200      53.540388000000
       194    1      101.140000000000      11.229495508200      53.540388000000
       195    1       95.305000000000       1.122945508200      53.540388000000
       196    2       99.195000000000       5.614754491800      53.000000000000
       197    2       95.305000000000      12.352454491800      53.000000000000
       198    1       99.195000000000       7.860645508200      53.540388000000
       199    1       99.195000000000       1.122945508200      53.540388000000
       200    1       95.305000000000       7.860645508200      53.540388000000
       201    1      101.140000000000       4.491795508200      53.540388000000
       202    1       97.250000000000      11.229495508200      53.540388000000
       203    2      101.140000000000       2.245904491800      53.000000000000
       204    2       97.250000000000       8.983604491800      53.000000000000
       205    2       97.250000000000       2.245904491800      53.000000000000
       206    2      101.140000000000       8.983604491800      53.000000000000
       207    2       95.305000000000       5.614754491800      53.000000000000
       208    2       99.195000000000      12.352454491800      53.000000000000
       209    1        3.890000000000      17.967195508200      53.540388000000
       210    1        7.780000000000      24.704895508200      53.540388000000
       211    1        1.945000000000      14.598345508200      53.540388000000
       212    2        5.835000000000      19.090154491800      53.000000000000
       213    2        1.945000000000      25.827854491800      53.000000000000
       214    1        5.835000000000      21.336045508200      53.540388000000
       215    1        5.835000000000      14.598345508200      53.540388000000
       216    1        1.945000000000      21.336045508200      53.540388000000
       217    1        7.780000000000      17.967195508200      53.540388000000
       218    1        3.890000000000      24.704895508200      53.540388000000
       219    2        7.780000000000      15.721304491800      53.000000000000
       220    2        3.890000000000      22.459004491800      53.000000000000
       221    2        3.890000000000      15.721304491800      53.000000000000
       222    2        7.780000000000      22.459004491800      53.000000000000
       223    2        1.945000000000      19.090154491800      53.000000000000
       224    2        5.835000000000      25.827854491800      53.000000000000
       225    1       11.670000000000      17.967195508200      53.540388000000
       226    1       15.560000000000      24.704895508200      53.540388000000
       227    1        9.725000000000      14.598345508200      53.540388000000
       228    2       13.615000000000      19.090154491800      53.000000000000
       229    2        9.725000000000      25.827854491800      53.000000000000
       230    1       13.615000000000      21.336045508200      53.540388000000
       231    1       13.615000000000      14.598345508200      53.540388000000
       232    1        9.725000000000      21.336045508200      53.540388000000
       233    1       15.560000000000      17.967195508200      53.540388000000
       234    1       11.670000000000      24.704895508200      53.540388000000
       235    2       15.560000000000      15.721304491800      53.000000000000
       236    2       11.670000000000      22.459004491800      53.000000000000
       237    2       11.670000000000      15.721304491800      53.000000000000
       238    2       15.560000000000      22.459004491800      53.000000000000
       239    2        9.725000000000      19.090154491800      53.000000000000
       240    2       13.615000000000      25.827854491800      53.000000000000
       241    1       19.450000000000      17.967195508200      53.540388000000
       242    1       23.340000000000      24.704895508200      53.540388000000
       243    1       17.505000000000      14.598345508200      53.540388000000
       244    2       21.395000000000      19.090154491800      53.000000000000
       245    2       17.505000000000      25.827854491800      53.000000000000
       246    1       21.395000000000      21.336045508200      53.540388000000
       247    1       21.395000000000      14.598345508200      53.540388000000
       248    1       17.505000000000      21.336045508200      53.540388000000
       249    1       23.340000000000      17.967195508200      53.540388000000
       250    1       19.450000000000      24.704895508200      53.540388000000
       251    2       23.340000000000      15.721304491800      53.000000000000
       252    2       19.450000000000      22.459004491800      53.000000000000
       253    2       19.450000000000      15.721304491800      53.000000000000
       254    2       23.340000000000      22.459004491800      53.000000000000
       255    2       17.505000000000      19.090154491800      53.000000000000
       256    2       21.395000000000      25.827854491800      53.000000000000
       257    1       27.230000000000      17.967195508200      53.540388000000
       258    1       31.120000000000      24.704895508200      53.540388000000
       259    1       25.285000000000      14.598345508200      53.540388000000
       260    2       29.175000000000      19.090154491800      53.000000000000
       261    2       25.285000000000      25.827854491800      53.000000000000
       262    1       29.175000000000      21.336045508200      53.540388000000
       263    1       29.175000000000      14.598345508200      53.540388000000
       264    1       25.285000000000      21.336045508200      53.540388000000
       265    1       31.120000000000      17.967195508200      53.540388000000
       266    1       27.230000000000      24.704895508200      53.540388000000
       267    2       31.120000000000      15.721304491800      53.000000000000
       268    2       27.230000000000      22.459004491800      53.000000000000
       269    2       27.230000000000      15.721304491800      53.000000000000
       270    2       31.120000000000      22.459004491800      53.000000000000
       271    2       25.285000000000      19.090154491800      53.000000000000
       272    2       29.175000000000      25.827854491800      53.000000000000
       273    1       35.010000000000      17.967195508200      53.540388000000
       274    1       38.900000000000      24.704895508200      53.540388000000
       275    1       33.065000000000      14.598345508200      53.540388000000
       276    2       36.955000000000      19.090154491800      53.000000000000
       277    2       33.065000000000      25.827854491800      53.000000000000
       278    1       36.955000000000      21.336045508200      53.540388000000
       279    1       36.955000000000      14.598345508200      53.540388000000
       280    1       33.065000000000      21.336045508200      53.540388000000
       281    1       38.900000000000      17.967195508200      53.540388000000
       282    1       35.010000000000      24.704895508200      53.540388000000
       283    2       38.900000000000      15.721304491800      53.000000000000
       284    2       35.010000000000      22.459004491800      53.000000000000
       285    2       35.010000000000      15.721304491800      53.000000000000
       286    2       38.900000000000      22.459004491800      53.000000000000
       287    2       33.065000000000      19.090154491800      53.000000000000
       288    2       36.955000000000      25.827854491800      53.000000000000
       289    1       42.790000000000      17.967195508200      53.540388000000
       290    1       46.680000000000      24.704895508200      53.540388000000
       291    1       40.845000000000      14.598345508200      53.540388000000
       292    2       44.735000000000      19.090154491800      53.000000000000
       293    2       40.845000000000      25.827854491800      53.000000000000
       294    1       44.735000000000      21.336045508200      53.540388000000
       295    1       44.735000000000      14.598345508200      53.540388000000
       296    1       40.845000000000      21.336045508200      53.540388000000
       297    1       46.680000000000      17.967195508200      53.540388000000
       298    1       42.790000000000      24.704895508200      53.540388000000
       299    2       46.680000000000      15.721304491800      53.000000000000
       300    2       42.790000000000      22.459004491800      53.000000000000
       301    2       42.790000000000      15.721304491800      53.000000000000
       302    2       46.680000000000      22.459004491800      53.000000000000
       303    2       40.845000000000      19.090154491800      53.000000000000
       304    2       44.735000000000      25.827854491800      53.000000000000
       305    1       50.570000000000      17.967195508200      53.540388000000
       306    1       54.460000000000      24.704895508200      53.540388000000
       307    1       48.625000000000      14.598345508200      53.540388000000
       308    2       52.515000000000      19.090154491800      53.000000000000
       309    2       48.625000000000      25.827854491800      53.000000000000
       310    1       52.515000000000      21.336045508200      53.540388000000
       311    1       52.515000000000      14.598345508200      53.540388000000
       312    1       48.625000000000      21.336045508200      53.540388000000
       313    1       54.460000000000      17.967195508200      53.540388000000
       314    1       50.570000000000      24.704895508200      53.540388000000
       315    2       54.460000000000      15.721304491800      53.000000000000
       316    2       50.570000000000      22.459004491800      53.000000000000
       317    2       50.570000000000      15.721304491800      53.000000000000
       318    2       54.460000000000      22.459004491800      53.000000000000
       319    2       48.625000000000      19.090154491800      53.000000000000
       320    2       52.515000000000      25.827854491800      53.000000000000
       321    1       58.350000000000      17.967195508200      53.540388000000
       322    1       62.240000000000      24.704895508200      53.540388000000
       323    1       56.405000000000      14.598345508200      53.540388000000
       324    2       60.295000000000      19.090154491800      53.000000000000
       325    2       56.405000000000      25.827854491800      53.000000000000
       326    1       60.295000000000      21.336045508200      53.540388000000
       327    1       60.295000000000      14.598345508200      53.540388000000
       328    1       56.405000000000      21.336045508200      53.540388000000
       329    1       62.240000000000      17.967195508200      53.540388000000
       330    1       58.350000000000      24.704895508200      53.540388000000
       331    2       62.240000000000      15.721304491800      53.000000000000
       332    2       58.350000000000      22.459004491800      53.000000000000
       333    2       58.350000000000      15.721304491800      53.000000000000
       334    2       62.240000000000      22.459004491800      53.000000000000
       335    2       56.405000000000      19.090154491800      53.000000000000
       336    2       60.295000000000      25.827854491800      53.000000000000
       337    1       66.130000000000      17.967195508200      53.540388000000
       338    1       70.020000000000      24.704895508200      53.540388000000
       339    1       64.185000000000      14.598345508200      53.540388000000
       340    2       68.075000000000      19.090154491800      53.000000000000
       341    2       64.185000000000      25.827854491800      53.000000000000
       342    1       68.075000000000      21.336045508200      53.540388000000
       343    1       68.075000000000      14.598345508200      53.540388000000
       344    1       64.185000000000      21.336045508200      53.540388000000
       345    1       70.020000000000      17.967195508200      53.540388000000
       346    1       66.130000000000      24.704895508200      53.540388000000
       347    2       70.020000000000      15.721304491800      53.000000000000
       348    2       66.130000000000      22.459004491800      53.000000000000
       349    2       66.130000000000      15.721304491800      53.000000000000
       350    2       70.020000000000      22.459004491800      53.000000000000
       351    2       64.185000000000      19.090154491800      53.000000000000
       352    2       68.075000000000      25.827854491800      53.000000000000
       353    1       73.910000000000      17.967195508200      53.540388000000
       354    1       77.800000000000      24.704895508200      53.540388000000
       355    1       71.965000000000      14.598345508200      53.540388000000
       356    2       75.855000000000      19.090154491800      53.000000000000
       357    2       71.965000000000      25.827854491800      53.000000000000
       358    1       75.855000000000      21.336045508200      53.540388000000
       359    1       75.855000000000      14.598345508200      53.540388000000
       360    1       71.965000000000      21.336045508200      53.540388000000
       361    1       77.800000000000      17.967195508200      53.540388000000
       362    1       73.910000000000      24.704895508200      53.540388000000
       363    2       77.800000000000      15.721304491800      53.000000000000
       364    2       73.910000000000      22.459004491800      53.000000000000
       365    2       73.910000000000      15.721304491800      53.000000000000
       366    2       77.800000000000      22.459004491800      53.000000000000
       367    2       71.965000000000      19.090154491800      53.000000000000
       368    2       75.855000000000      25.827854491800      53.000000000000
       369    1       81.690000000000      17.967195508200      53.540388000000
       370    1       85.580000000000      24.704895508200      53.540388000000