 # Si8 O8
  
        3344  atoms
           2  atom types
 
      0.000000000000     102.577200000000  xlo xhi
      0.000000000000     102.861000000000  ylo yhi
      0.000000000000      16.359800000000  zlo zhi
 
Masses
 
            1   28.08500000             # Si
            2   15.99900000             # O
 
Atoms # atomic
 
         1    1        1.349700000000       0.779246883000       8.674653071600
         2    1        4.049100000000       5.454746883000       8.674653071600
         3    1        4.049100000000       0.779246883000       8.674653071600
         4    1        0.000000000000       3.116996883000       8.674653071600
         5    2        4.049100000000       3.896253117000       7.684852452000
         6    1        1.349700000000       5.454746883000       8.674653071600
         7    1        2.699400000000       7.792496883000       8.674653071600
         8    2        1.349700000000       3.896253117000       7.684852452000
         9    2        1.349700000000       8.571753117000       7.684852452000
        10    2        4.049100000000       8.571753117000       7.684852452000
        11    2        0.000000000000       1.558503117000       7.684852452000
        12    2        2.699400000000       6.234003117000       7.684852452000
        13    1        2.699400000000       3.116996883000       8.674653071600
        14    1        5.398800000000       7.792496883000       8.674653071600
        15    2        2.699400000000       1.558503117000       7.684852452000
        16    2        0.000000000000       6.234003117000       7.684852452000
        17    1        6.748500000000       0.779246883000       8.674653071600
        18    1        9.447900000000       5.454746883000       8.674653071600
        19    1        9.447900000000       0.779246883000       8.674653071600
        20    1        5.398800000000       3.116996883000       8.674653071600
        21    2        9.447900000000       3.896253117000       7.684852452000
        22    1        6.748500000000       5.454746883000       8.674653071600
        23    1        8.098200000000       7.792496883000       8.674653071600
        24    2        6.748500000000       3.896253117000       7.684852452000
        25    2        6.748500000000       8.571753117000       7.684852452000
        26    2        9.447900000000       8.571753117000       7.684852452000
        27    2        5.398800000000       1.558503117000       7.684852452000
        28    2        8.098200000000       6.234003117000       7.684852452000
        29    1        8.098200000000       3.116996883000       8.674653071600
        30    1       10.797600000000       7.792496883000       8.674653071600
        31    2        8.098200000000       1.558503117000       7.684852452000
        32    2        5.398800000000       6.234003117000       7.684852452000
        33    1       12.147300000000       0.779246883000       8.674653071600
        34    1       14.846700000000       5.454746883000       8.674653071600
        35    1       14.846700000000       0.779246883000       8.674653071600
        36    1       10.797600000000       3.116996883000       8.674653071600
        37    2       14.846700000000       3.896253117000       7.684852452000
        38    1       12.147300000000       5.454746883000       8.674653071600
        39    1       13.497000000000       7.792496883000       8.674653071600
        40    2       12.147300000000       3.896253117000       7.684852452000
        41    2       12.147300000000       8.571753117000       7.684852452000
        42    2       14.846700000000       8.571753117000       7.684852452000
        43    2       10.797600000000       1.558503117000       7.684852452000
        44    2       13.497000000000       6.234003117000       7.684852452000
        45    1       13.497000000000       3.116996883000       8.674653071600
        46    1       16.196400000000       7.792496883000       8.674653071600
        47    2       13.497000000000       1.558503117000       7.684852452000
        48    2       10.797600000000       6.234003117000       7.684852452000
        49    1       17.546100000000       0.779246883000       8.674653071600
        50    1       20.245500000000       5.454746883000       8.674653071600
        51    1       20.245500000000       0.779246883000       8.674653071600
        52    1       16.196400000000       3.116996883000       8.674653071600
        53    2       20.245500000000       3.896253117000       7.684852452000
        54    1       17.546100000000       5.454746883000       8.674653071600
        55    1       18.895800000000       7.792496883000       8.674653071600
        56    2       17.546100000000       3.896253117000       7.684852452000
        57    2       17.546100000000       8.571753117000       7.684852452000
        58    2       20.245500000000       8.571753117000       7.684852452000
        59    2       16.196400000000       1.558503117000       7.684852452000
        60    2       18.895800000000       6.234003117000       7.684852452000
        61    1       18.895800000000       3.116996883000       8.674653071600
        62    1       21.595200000000       7.792496883000       8.674653071600
        63    2       18.895800000000       1.558503117000       7.684852452000
        64    2       16.196400000000       6.234003117000       7.684852452000
        65    1       22.944900000000       0.779246883000       8.674653071600
        66    1       25.644300000000       5.454746883000       8.674653071600
        67    1       25.644300000000       0.779246883000       8.674653071600
        68    1       21.595200000000       3.116996883000       8.674653071600
        69    2       25.644300000000       3.896253117000       7.684852452000
        70    1       22.944900000000       5.454746883000       8.674653071600
        71    1       24.294600000000       7.792496883000       8.674653071600
        72    2       22.944900000000       3.896253117000       7.684852452000
        73    2       22.944900000000       8.571753117000       7.684852452000
        74    2       25.644300000000       8.571753117000       7.684852452000
        75    2       21.595200000000       1.558503117000       7.684852452000
        76    2       24.294600000000       6.234003117000       7.684852452000
        77    1       24.294600000000       3.116996883000       8.674653071600
        78    1       26.994000000000       7.792496883000       8.674653071600
        79    2       24.294600000000       1.558503117000       7.684852452000
        80    2       21.595200000000       6.234003117000       7.684852452000
        81    1       28.343700000000       0.779246883000       8.674653071600
        82    1       31.043100000000       5.454746883000       8.674653071600
        83    1       31.043100000000       0.779246883000       8.674653071600
        84    1       26.994000000000       3.116996883000       8.674653071600
        85    2       31.043100000000       3.896253117000       7.684852452000
        86    1       28.343700000000       5.454746883000       8.674653071600
        87    1       29.693400000000       7.792496883000       8.674653071600
        88    2       28.343700000000       3.896253117000       7.684852452000
        89    2       28.343700000000       8.571753117000       7.684852452000
        90    2       31.043100000000       8.571753117000       7.684852452000
        91    2       26.994000000000       1.558503117000       7.684852452000
        92    2       29.693400000000       6.234003117000       7.684852452000
        93    1       29.693400000000       3.116996883000       8.674653071600
        94    1       32.392800000000       7.792496883000       8.674653071600
        95    2       29.693400000000       1.558503117000       7.684852452000
        96    2       26.994000000000       6.234003117000       7.684852452000
        97    1       33.742500000000       0.779246883000       8.674653071600
        98    1       36.441900000000       5.454746883000       8.674653071600
        99    1       36.441900000000       0.779246883000       8.674653071600
       100    1       32.392800000000       3.116996883000       8.674653071600
       101    2       36.441900000000       3.896253117000       7.684852452000
       102    1       33.742500000000       5.454746883000       8.674653071600
       103    1       35.092200000000       7.792496883000       8.674653071600
       104    2       33.742500000000       3.896253117000       7.684852452000
       105    2       33.742500000000       8.571753117000       7.684852452000
       106    2       36.441900000000       8.571753117000       7.684852452000
       107    2       32.392800000000       1.558503117000       7.684852452000
       108    2       35.092200000000       6.234003117000       7.684852452000
       109    1       35.092200000000       3.116996883000       8.674653071600
       110    1       37.791600000000       7.792496883000       8.674653071600
       111    2       35.092200000000       1.558503117000       7.684852452000
       112    2       32.392800000000       6.234003117000       7.684852452000
       113    1       39.141300000000       0.779246883000       8.674653071600
       114    1       41.840700000000       5.454746883000       8.674653071600
       115    1       41.840700000000       0.779246883000       8.674653071600
       116    1       37.791600000000       3.116996883000       8.674653071600
       117    2       41.840700000000       3.896253117000       7.684852452000
       118    1       39.141300000000       5.454746883000       8.674653071600
       119    1       40.491000000000       7.792496883000       8.674653071600
       120    2       39.141300000000       3.896253117000       7.684852452000
       121    2       39.141300000000       8.571753117000       7.684852452000
       122    2       41.840700000000       8.571753117000       7.684852452000
       123    2       37.791600000000       1.558503117000       7.684852452000
       124    2       40.491000000000       6.234003117000       7.684852452000
       125    1       40.491000000000       3.116996883000       8.674653071600
       126    1       43.190400000000       7.792496883000       8.674653071600
       127    2       40.491000000000       1.558503117000       7.684852452000
       128    2       37.791600000000       6.234003117000       7.684852452000
       129    1       44.540100000000       0.779246883000       8.674653071600
       130    1       47.239500000000       5.454746883000       8.674653071600
       131    1       47.239500000000       0.779246883000       8.674653071600
       132    1       43.190400000000       3.116996883000       8.674653071600
       133    2       47.239500000000       3.896253117000       7.684852452000
       134    1       44.540100000000       5.454746883000       8.674653071600
       135    1       45.889800000000       7.792496883000       8.674653071600
       136    2       44.540100000000       3.896253117000       7.684852452000
       137    2       44.540100000000       8.571753117000       7.684852452000
       138    2       47.239500000000       8.571753117000       7.684852452000
       139    2       43.190400000000       1.558503117000       7.684852452000
       140    2       45.889800000000       6.234003117000       7.684852452000
       141    1       45.889800000000       3.116996883000       8.674653071600
       142    1       48.589200000000       7.792496883000       8.674653071600
       143    2       45.889800000000       1.558503117000       7.684852452000
       144    2       43.190400000000       6.234003117000       7.684852452000
       145    1       49.938900000000       0.779246883000       8.674653071600
       146    1       52.638300000000       5.454746883000       8.674653071600
       147    1       52.638300000000       0.779246883000       8.674653071600
       148    1       48.589200000000       3.116996883000       8.674653071600
       149    2       52.638300000000       3.896253117000       7.684852452000
       150    1       49.938900000000       5.454746883000       8.674653071600
       151    1       51.288600000000       7.792496883000       8.674653071600
       152    2       49.938900000000       3.896253117000       7.684852452000
       153    2       49.938900000000       8.571753117000       7.684852452000
       154    2       52.638300000000       8.571753117000       7.684852452000
       155    2       48.589200000000       1.558503117000       7.684852452000
       156    2       51.288600000000       6.234003117000       7.684852452000
       157    1       51.288600000000       3.116996883000       8.674653071600
       158    1       53.988000000000       7.792496883000       8.674653071600
       159    2       51.288600000000       1.558503117000       7.684852452000
       160    2       48.589200000000       6.234003117000       7.684852452000
       161    1       55.337700000000       0.779246883000       8.674653071600
       162    1       58.037100000000       5.454746883000       8.674653071600
       163    1       58.037100000000       0.779246883000       8.674653071600
       164    1       53.988000000000       3.116996883000       8.674653071600
       165    2       58.037100000000       3.896253117000       7.684852452000
       166    1       55.337700000000       5.454746883000       8.674653071600
       167    1       56.687400000000       7.792496883000       8.674653071600
       168    2       55.337700000000       3.896253117000       7.684852452000
       169    2       55.337700000000       8.571753117000       7.684852452000
       170    2       58.037100000000       8.571753117000       7.684852452000
       171    2       53.988000000000       1.558503117000       7.684852452000
       172    2       56.687400000000       6.234003117000       7.684852452000
       173    1       56.687400000000       3.116996883000       8.674653071600
       174    1       59.386800000000       7.792496883000       8.674653071600
       175    2       56.687400000000       1.558503117000       7.684852452000
       176    2       53.988000000000       6.234003117000       7.684852452000
       177    1       60.736500000000       0.779246883000       8.674653071600
       178    1       63.435900000000       5.454746883000       8.674653071600
       179    1       63.435900000000       0.779246883000       8.674653071600
       180    1       59.386800000000       3.116996883000       8.674653071600
       181    2       63.435900000000       3.896253117000       7.684852452000
       182    1       60.736500000000       5.454746883000       8.674653071600
       183    1       62.086200000000       7.792496883000       8.674653071600
       184    2       60.736500000000       3.896253117000       7.684852452000
       185    2       60.736500000000       8.571753117000       7.684852452000
       186    2       63.435900000000       8.571753117000       7.684852452000
       187    2       59.386800000000       1.558503117000       7.684852452000
       188    2       62.086200000000       6.234003117000       7.684852452000
       189    1       62.086200000000       3.116996883000       8.674653071600
       190    1       64.785600000000       7.792496883000       8.674653071600
       191    2       62.086200000000       1.558503117000       7.684852452000
       192    2       59.386800000000       6.234003117000       7.684852452000
       193    1       66.135300000000       0.779246883000       8.674653071600
       194    1       68.834700000000       5.454746883000       8.674653071600
       195    1       68.834700000000       0.779246883000       8.674653071600
       196    1       64.785600000000       3.116996883000       8.674653071600
       197    2       68.834700000000       3.896253117000       7.684852452000
       198    1       66.135300000000       5.454746883000       8.674653071600
       199    1       67.485000000000       7.792496883000       8.674653071600
       200    2       66.135300000000       3.896253117000       7.684852452000
       201    2       66.135300000000       8.571753117000       7.684852452000
       202    2       68.834700000000       8.571753117000       7.684852452000
       203    2       64.785600000000       1.558503117000       7.684852452000
       204    2       67.485000000000       6.234003117000       7.684852452000
       205    1       67.485000000000       3.116996883000       8.674653071600
       206    1       70.184400000000       7.792496883000       8.674653071600
       207    2       67.485000000000       1.558503117000       7.684852452000
       208    2       64.785600000000       6.234003117000       7.684852452000
       209    1       71.534100000000       0.779246883000       8.674653071600
       210    1       74.233500000000       5.454746883000       8.674653071600
       211    1       74.233500000000       0.779246883000       8.674653071600
       212    1       70.184400000000       3.116996883000       8.674653071600
       213    2       74.233500000000       3.896253117000       7.684852452000
       214    1       71.534100000000       5.454746883000       8.674653071600
       215    1       72.883800000000       7.792496883000       8.674653071600
       216    2       71.534100000000       3.896253117000       7.684852452000
       217    2       71.534100000000       8.571753117000       7.684852452000
       218    2       74.233500000000       8.571753117000       7.684852452000
       219    2       70.184400000000       1.558503117000       7.684852452000
       220    2       72.883800000000       6.234003117000       7.684852452000
       221    1       72.883800000000       3.116996883000       8.674653071600
       222    1       75.583200000000       7.792496883000       8.674653071600
       223    2       72.883800000000       1.558503117000       7.684852452000
       224    2       70.184400000000       6.234003117000       7.684852452000
       225    1       76.932900000000       0.779246883000       8.674653071600
       226    1       79.632300000000       5.454746883000       8.674653071600
       227    1       79.632300000000       0.779246883000       8.674653071600
       228    1       75.583200000000       3.116996883000       8.674653071600
       229    2       79.632300000000       3.896253117000       7.684852452000
       230    1       76.932900000000       5.454746883000       8.674653071600
       231    1       78.282600000000       7.792496883000       8.674653071600
       232    2       76.932900000000       3.896253117000       7.684852452000
       233    2       76.932900000000       8.571753117000       7.684852452000
       234    2       79.632300000000       8.571753117000       7.684852452000
       235    2       75.583200000000       1.558503117000       7.684852452000
       236    2       78.282600000000       6.234003117000       7.684852452000
       237    1       78.282600000000       3.116996883000       8.674653071600
       238    1       80.982000000000       7.792496883000       8.674653071600
       239    2       78.282600000000       1.558503117000       7.684852452000
       240    2       75.583200000000       6.234003117000       7.684852452000
       241    1       82.331700000000       0.779246883000       8.674653071600
       242    1       85.031100000000       5.454746883000       8.674653071600
       243    1       85.031100000000       0.779246883000       8.674653071600
       244    1       80.982000000000       3.116996883000       8.674653071600
       245    2       85.031100000000       3.896253117000       7.684852452000
       246    1       82.331700000000       5.454746883000       8.674653071600
       247    1       83.681400000000       7.792496883000       8.674653071600
       248    2       82.331700000000       3.896253117000       7.684852452000
       249    2       82.331700000000       8.571753117000       7.684852452000
       250    2       85.031100000000       8.571753117000       7.684852452000
       251    2       80.982000000000       1.558503117000       7.684852452000
       252    2       83.681400000000       6.234003117000       7.684852452000
       253    1       83.681400000000       3.116996883000       8.674653071600
       254    1       86.380800000000       7.792496883000       8.674653071600
       255    2       83.681400000000       1.558503117000       7.684852452000
       256    2       80.982000000000       6.234003117000       7.684852452000
       257    1       87.730500000000       0.779246883000       8.674653071600
       258    1       90.429900000000       5.454746883000       8.674653071600
       259    1       90.429900000000       0.779246883000       8.674653071600
       260    1       86.380800000000       3.116996883000       8.674653071600
       261    2       90.429900000000       3.896253117000       7.684852452000
       262    1       87.730500000000       5.454746883000       8.674653071600
       263    1       89.080200000000       7.792496883000       8.674653071600
       264    2       87.730500000000       3.896253117000       7.684852452000
       265    2       87.730500000000       8.571753117000       7.684852452000
       266    2       90.429900000000       8.571753117000       7.684852452000
       267    2       86.380800000000       1.558503117000       7.684852452000
       268    2       89.080200000000       6.234003117000       7.684852452000
       269    1       89.080200000000       3.116996883000       8.674653071600
       270    1       91.779600000000       7.792496883000       8.674653071600
       271    2       89.080200000000       1.558503117000       7.684852452000
       272    2       86.380800000000       6.234003117000       7.684852452000
       273    1       93.129300000000       0.779246883000       8.674653071600
       274    1       95.828700000000       5.454746883000       8.674653071600
       275    1       95.828700000000       0.779246883000       8.674653071600
       276    1       91.779600000000       3.116996883000       8.674653071600
       277    2       95.828700000000       3.896253117000       7.684852452000
       278    1       93.129300000000       5.454746883000       8.674653071600
       279    1       94.479000000000       7.792496883000       8.674653071600
       280    2       93.129300000000       3.896253117000       7.684852452000
       281    2       93.129300000000       8.571753117000       7.684852452000
       282    2       95.828700000000       8.571753117000       7.684852452000
       283    2       91.779600000000       1.558503117000       7.684852452000
       284    2       94.479000000000       6.234003117000       7.684852452000
       285    1       94.479000000000       3.116996883000       8.674653071600
       286    1       97.178400000000       7.792496883000       8.674653071600
       287    2       94.479000000000       1.558503117000       7.684852452000
       288    2       91.779600000000       6.234003117000       7.684852452000
       289    1       98.528100000000       0.779246883000       8.674653071600
       290    1      101.227500000000       5.454746883000       8.674653071600
       291    1      101.227500000000       0.779246883000       8.674653071600
       292    1       97.178400000000       3.116996883000       8.674653071600
       293    2      101.227500000000       3.896253117000       7.684852452000
       294    1       98.528100000000       5.454746883000       8.674653071600
       295    1       99.877800000000       7.792496883000       8.674653071600
       296    2       98.528100000000       3.896253117000       7.684852452000
       297    2       98.528100000000       8.571753117000       7.684852452000
       298    2      101.227500000000       8.571753117000       7.684852452000
       299    2       97.178400000000       1.558503117000       7.684852452000
       300    2       99.877800000000       6.234003117000       7.684852452000
       301    1       99.877800000000       3.116996883000       8.674653071600
       302    1      102.577200000000       7.792496883000       8.674653071600
       303    2       99.877800000000       1.558503117000       7.684852452000
       304    2       97.178400000000       6.234003117000       7.684852452000
       305    1        1.349700000000      10.130246883000       8.674653071600
       306    1        4.049100000000      14.805746883000       8.674653071600
       307    1        4.049100000000      10.130246883000       8.674653071600
       308    1        0.000000000000      12.467996883000       8.674653071600
       309    2        4.049100000000      13.247253117000       7.684852452000
       310    1        1.349700000000      14.805746883000       8.674653071600
       311    1        2.699400000000      17.143496883000       8.674653071600
       312    2        1.349700000000      13.247253117000       7.684852452000
       313    2        1.349700000000      17.922753117000       7.684852452000
       314    2        4.049100000000      17.922753117000       7.684852452000
       315    2        0.000000000000      10.909503117000       7.684852452000
       316    2        2.699400000000      15.585003117000       7.684852452000
       317    1        2.699400000000      12.467996883000       8.674653071600
       318    1        5.398800000000      17.143496883000       8.674653071600
       319    2        2.699400000000      10.909503117000       7.684852452000
       320    2        0.000000000000      15.585003117000       7.684852452000
       321    1        6.748500000000      10.130246883000       8.674653071600
       322    1        9.447900000000      14.805746883000       8.674653071600
       323    1        9.447900000000      10.130246883000       8.674653071600
       324    1        5.398800000000      12.467996883000       8.674653071600
       325    2        9.447900000000      13.247253117000       7.684852452000
       326    1        6.748500000000      14.805746883000       8.674653071600
       327    1        8.098200000000      17.143496883000       8.674653071600
       328    2        6.748500000000      13.247253117000       7.684852452000
       329    2        6.748500000000      17.922753117000       7.684852452000
       330    2        9.447900000000      17.922753117000       7.684852452000
       331    2        5.398800000000      10.909503117000       7.684852452000
       332    2        8.098200000000      15.585003117000       7.684852452000
       333    1        8.098200000000      12.467996883000       8.674653071600
       334    1       10.797600000000      17.143496883000       8.674653071600
       335    2        8.098200000000      10.909503117000       7.684852452000
       336    2        5.398800000000      15.585003117000       7.684852452000
       337    1       12.147300000000      10.130246883000       8.674653071600
       338    1       14.846700000000      14.805746883000       8.674653071600
       339    1       14.846700000000      10.130246883000       8.674653071600
       340    1       10.797600000000      12.467996883000       8.674653071600
       341    2       14.846700000000      13.247253117000       7.684852452000
       342    1       12.147300000000      14.805746883000       8.674653071600
       343    1       13.497000000000      17.143496883000       8.674653071600
       344    2       12.147300000000      13.247253117000       7.684852452000
       345    2       12.147300000000      17.922753117000       7.684852452000
       346    2       14.846700000000      17.922753117000       7.684852452000
       347    2       10.797600000000      10.909503117000       7.684852452000
       348    2       13.497000000000      15.585003117000       7.684852452000
       349    1       13.497000000000      12.467996883000       8.674653071600
       350    1       16.196400000000      17.143496883000       8.674653071600
       351    2       13.497000000000      10.909503117000       7.684852452000
       352    2       10.797600000000      15.585003117000       7.684852452000
       353    1       17.546100000000      10.130246883000       8.674653071600
       354    1       20.245500000000      14.805746883000       8.674653071600
       355    1       20.245500000000      10.130246883000       8.674653071600
       356    1       16.196400000000      12.467996883000       8.674653071600
       357    2       20.245500000000      13.247253117000       7.684852452000
       358    1       17.546100000000      14.805746883000       8.674653071600
       359    1       18.895800000000      17.143496883000       8.674653071600
       360    2       17.546100000000      13.247253117000       7.684852452000
       361    2       17.546100000000      17.922753117000       7.684852452000
       362    2       20.245500000000      17.922753117000       7.684852452000
       363    2       16.196400000000      10.909503117000       7.684852452000
       364    2       18.895800000000      15.585003117000       7.684852452000
       365    1       18.895800000000      12.467996883000       8.674653071600
       366    1       21.595200000000      17.143496883000       8.674653071600
       367    2       18.895800000000      10.909503117000       7.684852452000
       368    2       16.196400000000      15.585003117000       7.684852452000
       369    1       22.944900000000      10.130246883000       8.674653071600
       370    1       25.644300000000      14.805746883000       8.674653071600