 # Si8 Se8
  
        1792  atoms
           2  atom types
 
      0.000000000000      98.618800000000  xlo xhi
      0.000000000000      97.608000000000  ylo yhi
      0.000000000000      16.359800000000  zlo zhi
 
Masses
 
            1   28.08500000             # Si
            2   78.96000000             # Se
 
Atoms # atomic
 
         1    1        1.761050000000       1.016745933000       8.889588124000
         2    1        5.283150000000       7.117245933000       8.889588124000
         3    2        1.761050000000       5.083754067000       7.469868320200
         4    2        5.283150000000      11.184254067000       7.469868320200
         5    1        3.522100000000       4.066995933000       8.889588124000
         6    1        0.000000000000      10.167495933000       8.889588124000
         7    2        3.522100000000       2.033504067000       7.469868320200
         8    2        5.283150000000       5.083754067000       7.469868320200
         9    2        7.044200000000       8.134004067000       7.469868320200
        10    2        1.761050000000      11.184254067000       7.469868320200
        11    1        5.283150000000       1.016745933000       8.889588124000
        12    1        1.761050000000       7.117245933000       8.889588124000
        13    1        7.044200000000       4.066995933000       8.889588124000
        14    1        3.522100000000      10.167495933000       8.889588124000
        15    2        7.044200000000       2.033504067000       7.469868320200
        16    2        3.522100000000       8.134004067000       7.469868320200
        17    1        8.805250000000       1.016745933000       8.889588124000
        18    1       12.327350000000       7.117245933000       8.889588124000
        19    2        8.805250000000       5.083754067000       7.469868320200
        20    2       12.327350000000      11.184254067000       7.469868320200
        21    1       10.566300000000       4.066995933000       8.889588124000
        22    1        7.044200000000      10.167495933000       8.889588124000
        23    2       10.566300000000       2.033504067000       7.469868320200
        24    2       12.327350000000       5.083754067000       7.469868320200
        25    2       14.088400000000       8.134004067000       7.469868320200
        26    2        8.805250000000      11.184254067000       7.469868320200
        27    1       12.327350000000       1.016745933000       8.889588124000
        28    1        8.805250000000       7.117245933000       8.889588124000
        29    1       14.088400000000       4.066995933000       8.889588124000
        30    1       10.566300000000      10.167495933000       8.889588124000
        31    2       14.088400000000       2.033504067000       7.469868320200
        32    2       10.566300000000       8.134004067000       7.469868320200
        33    1       15.849450000000       1.016745933000       8.889588124000
        34    1       19.371550000000       7.117245933000       8.889588124000
        35    2       15.849450000000       5.083754067000       7.469868320200
        36    2       19.371550000000      11.184254067000       7.469868320200
        37    1       17.610500000000       4.066995933000       8.889588124000
        38    1       14.088400000000      10.167495933000       8.889588124000
        39    2       17.610500000000       2.033504067000       7.469868320200
        40    2       19.371550000000       5.083754067000       7.469868320200
        41    2       21.132600000000       8.134004067000       7.469868320200
        42    2       15.849450000000      11.184254067000       7.469868320200
        43    1       19.371550000000       1.016745933000       8.889588124000
        44    1       15.849450000000       7.117245933000       8.889588124000
        45    1       21.132600000000       4.066995933000       8.889588124000
        46    1       17.610500000000      10.167495933000       8.889588124000
        47    2       21.132600000000       2.033504067000       7.469868320200
        48    2       17.610500000000       8.134004067000       7.469868320200
        49    1       22.893650000000       1.016745933000       8.889588124000
        50    1       26.415750000000       7.117245933000       8.889588124000
        51    2       22.893650000000       5.083754067000       7.469868320200
        52    2       26.415750000000      11.184254067000       7.469868320200
        53    1       24.654700000000       4.066995933000       8.889588124000
        54    1       21.132600000000      10.167495933000       8.889588124000
        55    2       24.654700000000       2.033504067000       7.469868320200
        56    2       26.415750000000       5.083754067000       7.469868320200
        57    2       28.176800000000       8.134004067000       7.469868320200
        58    2       22.893650000000      11.184254067000       7.469868320200
        59    1       26.415750000000       1.016745933000       8.889588124000
        60    1       22.893650000000       7.117245933000       8.889588124000
        61    1       28.176800000000       4.066995933000       8.889588124000
        62    1       24.654700000000      10.167495933000       8.889588124000
        63    2       28.176800000000       2.033504067000       7.469868320200
        64    2       24.654700000000       8.134004067000       7.469868320200
        65    1       29.937850000000       1.016745933000       8.889588124000
        66    1       33.459950000000       7.117245933000       8.889588124000
        67    2       29.937850000000       5.083754067000       7.469868320200
        68    2       33.459950000000      11.184254067000       7.469868320200
        69    1       31.698900000000       4.066995933000       8.889588124000
        70    1       28.176800000000      10.167495933000       8.889588124000
        71    2       31.698900000000       2.033504067000       7.469868320200
        72    2       33.459950000000       5.083754067000       7.469868320200
        73    2       35.221000000000       8.134004067000       7.469868320200
        74    2       29.937850000000      11.184254067000       7.469868320200
        75    1       33.459950000000       1.016745933000       8.889588124000
        76    1       29.937850000000       7.117245933000       8.889588124000
        77    1       35.221000000000       4.066995933000       8.889588124000
        78    1       31.698900000000      10.167495933000       8.889588124000
        79    2       35.221000000000       2.033504067000       7.469868320200
        80    2       31.698900000000       8.134004067000       7.469868320200
        81    1       36.982050000000       1.016745933000       8.889588124000
        82    1       40.504150000000       7.117245933000       8.889588124000
        83    2       36.982050000000       5.083754067000       7.469868320200
        84    2       40.504150000000      11.184254067000       7.469868320200
        85    1       38.743100000000       4.066995933000       8.889588124000
        86    1       35.221000000000      10.167495933000       8.889588124000
        87    2       38.743100000000       2.033504067000       7.469868320200
        88    2       40.504150000000       5.083754067000       7.469868320200
        89    2       42.265200000000       8.134004067000       7.469868320200
        90    2       36.982050000000      11.184254067000       7.469868320200
        91    1       40.504150000000       1.016745933000       8.889588124000
        92    1       36.982050000000       7.117245933000       8.889588124000
        93    1       42.265200000000       4.066995933000       8.889588124000
        94    1       38.743100000000      10.167495933000       8.889588124000
        95    2       42.265200000000       2.033504067000       7.469868320200
        96    2       38.743100000000       8.134004067000       7.469868320200
        97    1       44.026250000000       1.016745933000       8.889588124000
        98    1       47.548350000000       7.117245933000       8.889588124000
        99    2       44.026250000000       5.083754067000       7.469868320200
       100    2       47.548350000000      11.184254067000       7.469868320200
       101    1       45.787300000000       4.066995933000       8.889588124000
       102    1       42.265200000000      10.167495933000       8.889588124000
       103    2       45.787300000000       2.033504067000       7.469868320200
       104    2       47.548350000000       5.083754067000       7.469868320200
       105    2       49.309400000000       8.134004067000       7.469868320200
       106    2       44.026250000000      11.184254067000       7.469868320200
       107    1       47.548350000000       1.016745933000       8.889588124000
       108    1       44.026250000000       7.117245933000       8.889588124000
       109    1       49.309400000000       4.066995933000       8.889588124000
       110    1       45.787300000000      10.167495933000       8.889588124000
       111    2       49.309400000000       2.033504067000       7.469868320200
       112    2       45.787300000000       8.134004067000       7.469868320200
       113    1       51.070450000000       1.016745933000       8.889588124000
       114    1       54.592550000000       7.117245933000       8.889588124000
       115    2       51.070450000000       5.083754067000       7.469868320200
       116    2       54.592550000000      11.184254067000       7.469868320200
       117    1       52.831500000000       4.066995933000       8.889588124000
       118    1       49.309400000000      10.167495933000       8.889588124000
       119    2       52.831500000000       2.033504067000       7.469868320200
       120    2       54.592550000000       5.083754067000       7.469868320200
       121    2       56.353600000000       8.134004067000       7.469868320200
       122    2       51.070450000000      11.184254067000       7.469868320200
       123    1       54.592550000000       1.016745933000       8.889588124000
       124    1       51.070450000000       7.117245933000       8.889588124000
       125    1       56.353600000000       4.066995933000       8.889588124000
       126    1       52.831500000000      10.167495933000       8.889588124000
       127    2       56.353600000000       2.033504067000       7.469868320200
       128    2       52.831500000000       8.134004067000       7.469868320200
       129    1       58.114650000000       1.016745933000       8.889588124000
       130    1       61.636750000000       7.117245933000       8.889588124000
       131    2       58.114650000000       5.083754067000       7.469868320200
       132    2       61.636750000000      11.184254067000       7.469868320200
       133    1       59.875700000000       4.066995933000       8.889588124000
       134    1       56.353600000000      10.167495933000       8.889588124000
       135    2       59.875700000000       2.033504067000       7.469868320200
       136    2       61.636750000000       5.083754067000       7.469868320200
       137    2       63.397800000000       8.134004067000       7.469868320200
       138    2       58.114650000000      11.184254067000       7.469868320200
       139    1       61.636750000000       1.016745933000       8.889588124000
       140    1       58.114650000000       7.117245933000       8.889588124000
       141    1       63.397800000000       4.066995933000       8.889588124000
       142    1       59.875700000000      10.167495933000       8.889588124000
       143    2       63.397800000000       2.033504067000       7.469868320200
       144    2       59.875700000000       8.134004067000       7.469868320200
       145    1       65.158850000000       1.016745933000       8.889588124000
       146    1       68.680950000000       7.117245933000       8.889588124000
       147    2       65.158850000000       5.083754067000       7.469868320200
       148    2       68.680950000000      11.184254067000       7.469868320200
       149    1       66.919900000000       4.066995933000       8.889588124000
       150    1       63.397800000000      10.167495933000       8.889588124000
       151    2       66.919900000000       2.033504067000       7.469868320200
       152    2       68.680950000000       5.083754067000       7.469868320200
       153    2       70.442000000000       8.134004067000       7.469868320200
       154    2       65.158850000000      11.184254067000       7.469868320200
       155    1       68.680950000000       1.016745933000       8.889588124000
       156    1       65.158850000000       7.117245933000       8.889588124000
       157    1       70.442000000000       4.066995933000       8.889588124000
       158    1       66.919900000000      10.167495933000       8.889588124000
       159    2       70.442000000000       2.033504067000       7.469868320200
       160    2       66.919900000000       8.134004067000       7.469868320200
       161    1       72.203050000000       1.016745933000       8.889588124000
       162    1       75.725150000000       7.117245933000       8.889588124000
       163    2       72.203050000000       5.083754067000       7.469868320200
       164    2       75.725150000000      11.184254067000       7.469868320200
       165    1       73.964100000000       4.066995933000       8.889588124000
       166    1       70.442000000000      10.167495933000       8.889588124000
       167    2       73.964100000000       2.033504067000       7.469868320200
       168    2       75.725150000000       5.083754067000       7.469868320200
       169    2       77.486200000000       8.134004067000       7.469868320200
       170    2       72.203050000000      11.184254067000       7.469868320200
       171    1       75.725150000000       1.016745933000       8.889588124000
       172    1       72.203050000000       7.117245933000       8.889588124000
       173    1       77.486200000000       4.066995933000       8.889588124000
       174    1       73.964100000000      10.167495933000       8.889588124000
       175    2       77.486200000000       2.033504067000       7.469868320200
       176    2       73.964100000000       8.134004067000       7.469868320200
       177    1       79.247250000000       1.016745933000       8.889588124000
       178    1       82.769350000000       7.117245933000       8.889588124000
       179    2       79.247250000000       5.083754067000       7.469868320200
       180    2       82.769350000000      11.184254067000       7.469868320200
       181    1       81.008300000000       4.066995933000       8.889588124000
       182    1       77.486200000000      10.167495933000       8.889588124000
       183    2       81.008300000000       2.033504067000       7.469868320200
       184    2       82.769350000000       5.083754067000       7.469868320200
       185    2       84.530400000000       8.134004067000       7.469868320200
       186    2       79.247250000000      11.184254067000       7.469868320200
       187    1       82.769350000000       1.016745933000       8.889588124000
       188    1       79.247250000000       7.117245933000       8.889588124000
       189    1       84.530400000000       4.066995933000       8.889588124000
       190    1       81.008300000000      10.167495933000       8.889588124000
       191    2       84.530400000000       2.033504067000       7.469868320200
       192    2       81.008300000000       8.134004067000       7.469868320200
       193    1       86.291450000000       1.016745933000       8.889588124000
       194    1       89.813550000000       7.117245933000       8.889588124000
       195    2       86.291450000000       5.083754067000       7.469868320200
       196    2       89.813550000000      11.184254067000       7.469868320200
       197    1       88.052500000000       4.066995933000       8.889588124000
       198    1       84.530400000000      10.167495933000       8.889588124000
       199    2       88.052500000000       2.033504067000       7.469868320200
       200    2       89.813550000000       5.083754067000       7.469868320200
       201    2       91.574600000000       8.134004067000       7.469868320200
       202    2       86.291450000000      11.184254067000       7.469868320200
       203    1       89.813550000000       1.016745933000       8.889588124000
       204    1       86.291450000000       7.117245933000       8.889588124000
       205    1       91.574600000000       4.066995933000       8.889588124000
       206    1       88.052500000000      10.167495933000       8.889588124000
       207    2       91.574600000000       2.033504067000       7.469868320200
       208    2       88.052500000000       8.134004067000       7.469868320200
       209    1       93.335650000000       1.016745933000       8.889588124000
       210    1       96.857750000000       7.117245933000       8.889588124000
       211    2       93.335650000000       5.083754067000       7.469868320200
       212    2       96.857750000000      11.184254067000       7.469868320200
       213    1       95.096700000000       4.066995933000       8.889588124000
       214    1       91.574600000000      10.167495933000       8.889588124000
       215    2       95.096700000000       2.033504067000       7.469868320200
       216    2       96.857750000000       5.083754067000       7.469868320200
       217    2       98.618800000000       8.134004067000       7.469868320200
       218    2       93.335650000000      11.184254067000       7.469868320200
       219    1       96.857750000000       1.016745933000       8.889588124000
       220    1       93.335650000000       7.117245933000       8.889588124000
       221    1       98.618800000000       4.066995933000       8.889588124000
       222    1       95.096700000000      10.167495933000       8.889588124000
       223    2       98.618800000000       2.033504067000       7.469868320200
       224    2       95.096700000000       8.134004067000       7.469868320200
       225    1        1.761050000000      13.217745933000       8.889588124000
       226    1        5.283150000000      19.318245933000       8.889588124000
       227    2        1.761050000000      17.284754067000       7.469868320200
       228    2        5.283150000000      23.385254067000       7.469868320200
       229    1        3.522100000000      16.267995933000       8.889588124000
       230    1        0.000000000000      22.368495933000       8.889588124000
       231    2        3.522100000000      14.234504067000       7.469868320200
       232    2        5.283150000000      17.284754067000       7.469868320200
       233    2        7.044200000000      20.335004067000       7.469868320200
       234    2        1.761050000000      23.385254067000       7.469868320200
       235    1        5.283150000000      13.217745933000       8.889588124000
       236    1        1.761050000000      19.318245933000       8.889588124000
       237    1        7.044200000000      16.267995933000       8.889588124000
       238    1        3.522100000000      22.368495933000       8.889588124000
       239    2        7.044200000000      14.234504067000       7.469868320200
       240    2        3.522100000000      20.335004067000       7.469868320200
       241    1        8.805250000000      13.217745933000       8.889588124000
       242    1       12.327350000000      19.318245933000       8.889588124000
       243    2        8.805250000000      17.284754067000       7.469868320200
       244    2       12.327350000000      23.385254067000       7.469868320200
       245    1       10.566300000000      16.267995933000       8.889588124000
       246    1        7.044200000000      22.368495933000       8.889588124000
       247    2       10.566300000000      14.234504067000       7.469868320200
       248    2       12.327350000000      17.284754067000       7.469868320200
       249    2       14.088400000000      20.335004067000       7.469868320200
       250    2        8.805250000000      23.385254067000       7.469868320200
       251    1       12.327350000000      13.217745933000       8.889588124000
       252    1        8.805250000000      19.318245933000       8.889588124000
       253    1       14.088400000000      16.267995933000       8.889588124000
       254    1       10.566300000000      22.368495933000       8.889588124000
       255    2       14.088400000000      14.234504067000       7.469868320200
       256    2       10.566300000000      20.335004067000       7.469868320200
       257    1       15.849450000000      13.217745933000       8.889588124000
       258    1       19.371550000000      19.318245933000       8.889588124000
       259    2       15.849450000000      17.284754067000       7.469868320200
       260    2       19.371550000000      23.385254067000       7.469868320200
       261    1       17.610500000000      16.267995933000       8.889588124000
       262    1       14.088400000000      22.368495933000       8.889588124000
       263    2       17.610500000000      14.234504067000       7.469868320200
       264    2       19.371550000000      17.284754067000       7.469868320200
       265    2       21.132600000000      20.335004067000       7.469868320200
       266    2       15.849450000000      23.385254067000       7.469868320200
       267    1       19.371550000000      13.217745933000       8.889588124000
       268    1       15.849450000000      19.318245933000       8.889588124000
       269    1       21.132600000000      16.267995933000       8.889588124000
       270    1       17.610500000000      22.368495933000       8.889588124000
       271    2       21.132600000000      14.234504067000       7.469868320200
       272    2       17.610500000000      20.335004067000       7.469868320200
       273    1       22.893650000000      13.217745933000       8.889588124000
       274    1       26.415750000000      19.318245933000       8.889588124000
       275    2       22.893650000000      17.284754067000       7.469868320200
       276    2       26.415750000000      23.385254067000       7.469868320200
       277    1       24.654700000000      16.267995933000       8.889588124000
       278    1       21.132600000000      22.368495933000       8.889588124000
       279    2       24.654700000000      14.234504067000       7.469868320200
       280    2       26.415750000000      17.284754067000       7.469868320200
       281    2       28.176800000000      20.335004067000       7.469868320200
       282    2       22.893650000000      23.385254067000       7.469868320200
       283    1       26.415750000000      13.217745933000       8.889588124000
       284    1       22.893650000000      19.318245933000       8.889588124000
       285    1       28.176800000000      16.267995933000       8.889588124000
       286    1       24.654700000000      22.368495933000       8.889588124000
       287    2       28.176800000000      14.234504067000       7.469868320200
       288    2       24.654700000000      20.335004067000       7.469868320200
       289    1       29.937850000000      13.217745933000       8.889588124000
       290    1       33.459950000000      19.318245933000       8.889588124000
       291    2       29.937850000000      17.284754067000       7.469868320200
       292    2       33.459950000000      23.385254067000       7.469868320200
       293    1       31.698900000000      16.267995933000       8.889588124000
       294    1       28.176800000000      22.368495933000       8.889588124000
       295    2       31.698900000000      14.234504067000       7.469868320200
       296    2       33.459950000000      17.284754067000       7.469868320200
       297    2       35.221000000000      20.335004067000       7.469868320200
       298    2       29.937850000000      23.385254067000       7.469868320200
       299    1       33.459950000000      13.217745933000       8.889588124000
       300    1       29.937850000000      19.318245933000       8.889588124000
       301    1       35.221000000000      16.267995933000       8.889588124000
       302    1       31.698900000000      22.368495933000       8.889588124000
       303    2       35.221000000000      14.234504067000       7.469868320200
       304    2       31.698900000000      20.335004067000       7.469868320200
       305    1       36.982050000000      13.217745933000       8.889588124000
       306    1       40.504150000000      19.318245933000       8.889588124000
       307    2       36.982050000000      17.284754067000       7.469868320200
       308    2       40.504150000000      23.385254067000       7.469868320200
       309    1       38.743100000000      16.267995933000       8.889588124000
       310    1       35.221000000000      22.368495933000       8.889588124000
       311    2       38.743100000000      14.234504067000       7.469868320200
       312    2       40.504150000000      17.284754067000       7.469868320200
       313    2       42.265200000000      20.335004067000       7.469868320200
       314    2       36.982050000000      23.385254067000       7.469868320200
       315    1       40.504150000000      13.217745933000       8.889588124000
       316    1       36.982050000000      19.318245933000       8.889588124000
       317    1       42.265200000000      16.267995933000       8.889588124000
       318    1       38.743100000000      22.368495933000       8.889588124000
       319    2       42.265200000000      14.234504067000       7.469868320200
       320    2       38.743100000000      20.335004067000       7.469868320200
       321    1       44.026250000000      13.217745933000       8.889588124000
       322    1       47.548350000000      19.318245933000       8.889588124000
       323    2       44.026250000000      17.284754067000       7.469868320200
       324    2       47.548350000000      23.385254067000       7.469868320200
       325    1       45.787300000000      16.267995933000       8.889588124000
       326    1       42.265200000000      22.368495933000       8.889588124000
       327    2       45.787300000000      14.234504067000       7.469868320200
       328    2       47.548350000000      17.284754067000       7.469868320200
       329    2       49.309400000000      20.335004067000       7.469868320200
       330    2       44.026250000000      23.385254067000       7.469868320200
       331    1       47.548350000000      13.217745933000       8.889588124000
       332    1       44.026250000000      19.318245933000       8.889588124000
       333    1       49.309400000000      16.267995933000       8.889588124000
       334    1       45.787300000000      22.368495933000       8.889588124000
       335    2       49.309400000000      14.234504067000       7.469868320200
       336    2       45.787300000000      20.335004067000       7.469868320200
       337    1       51.070450000000      13.217745933000       8.889588124000
       338    1       54.592550000000      19.318245933000       8.889588124000
       339    2       51.070450000000      17.284754067000       7.469868320200
       340    2       54.592550000000      23.385254067000       7.469868320200
       341    1       52.831500000000      16.267995933000       8.889588124000
       342    1       49.309400000000      22.368495933000       8.889588124000
       343    2       52.831500000000      14.234504067000       7.469868320200
       344    2       54.592550000000      17.284754067000       7.469868320200
       345    2       56.353600000000      20.335004067000       7.469868320200
       346    2       51.070450000000      23.385254067000       7.469868320200
       347    1       54.592550000000      13.217745933000       8.889588124000
       348    1       51.070450000000      19.318245933000       8.889588124000
       349    1       56.353600000000      16.267995933000       8.889588124000
       350    1       52.831500000000      22.368495933000       8.889588124000
       351    2       56.353600000000      14.234504067000       7.469868320200
       352    2       52.831500000000      20.335004067000       7.469868320200
       353    1       58.114650000000      13.217745933000       8.889588124000
       354    1       61.636750000000      19.318245933000       8.889588124000
       355    2       58.114650000000      17.284754067000       7.469868320200
       356    2       61.636750000000      23.385254067000       7.469868320200
       357    1       59.875700000000      16.267995933000       8.889588124000
       358    1       56.353600000000      22.368495933000       8.889588124000
       359    2       59.875700000000      14.234504067000       7.469868320200
       360    2       61.636750000000      17.284754067000       7.469868320200
       361    2       63.397800000000      20.335004067000       7.469868320200
       362    2       58.114650000000      23.385254067000       7.469868320200
       363    1       61.636750000000      13.217745933000       8.889588124000
       364    1       58.114650000000      19.318245933000       8.889588124000
       365    1       63.397800000000      16.267995933000       8.889588124000
       366    1       59.875700000000      22.368495933000       8.889588124000
       367    2       63.397800000000      14.234504067000       7.469868320200
       368    2       59.875700000000      20.335004067000       7.469868320200
       369    1       65.158850000000      13.217745933000       8.889588124000
       370    1       68.680950000000      19.318245933000       8.889588124000