 # Sn8 S8
  
        1664  atoms
           2  atom types
 
      0.000000000000      97.553300000000  xlo xhi
      0.000000000000     103.980000000000  ylo yhi
      0.000000000000      16.455700000000  zlo zhi
 
Masses
 
            1   118.71000000            # Sn
            2   32.06000000             # S
 
Atoms # atomic
 
         1    1        3.752050000000       4.332495667500       8.957907130500
         2    1        0.000000000000      10.831245667500       8.957907130500
         3    1        0.000000000000       4.332495667500       8.957907130500
         4    1        3.752050000000      10.831245667500       8.957907130500
         5    2        1.876025000000       5.415629332500       7.498056160700
         6    2        5.628075000000      11.914379332500       7.498056160700
         7    1        1.876025000000       1.083120667500       8.957907130500
         8    1        5.628075000000       7.581870667500       8.957907130500
         9    2        7.504100000000       2.166254332500       7.498056160700
        10    2        3.752050000000       2.166254332500       7.498056160700
        11    2        0.000000000000       8.665004332500       7.498056160700
        12    2        3.752050000000       8.665004332500       7.498056160700
        13    1        5.628075000000       1.083120667500       8.957907130500
        14    1        1.876025000000       7.581870667500       8.957907130500
        15    2        5.628075000000       5.415629332500       7.498056160700
        16    2        1.876025000000      11.914379332500       7.498056160700
        17    1       11.256150000000       4.332495667500       8.957907130500
        18    1        7.504100000000      10.831245667500       8.957907130500
        19    1        7.504100000000       4.332495667500       8.957907130500
        20    1       11.256150000000      10.831245667500       8.957907130500
        21    2        9.380125000000       5.415629332500       7.498056160700
        22    2       13.132175000000      11.914379332500       7.498056160700
        23    1        9.380125000000       1.083120667500       8.957907130500
        24    1       13.132175000000       7.581870667500       8.957907130500
        25    2       15.008200000000       2.166254332500       7.498056160700
        26    2       11.256150000000       2.166254332500       7.498056160700
        27    2        7.504100000000       8.665004332500       7.498056160700
        28    2       11.256150000000       8.665004332500       7.498056160700
        29    1       13.132175000000       1.083120667500       8.957907130500
        30    1        9.380125000000       7.581870667500       8.957907130500
        31    2       13.132175000000       5.415629332500       7.498056160700
        32    2        9.380125000000      11.914379332500       7.498056160700
        33    1       18.760250000000       4.332495667500       8.957907130500
        34    1       15.008200000000      10.831245667500       8.957907130500
        35    1       15.008200000000       4.332495667500       8.957907130500
        36    1       18.760250000000      10.831245667500       8.957907130500
        37    2       16.884225000000       5.415629332500       7.498056160700
        38    2       20.636275000000      11.914379332500       7.498056160700
        39    1       16.884225000000       1.083120667500       8.957907130500
        40    1       20.636275000000       7.581870667500       8.957907130500
        41    2       22.512300000000       2.166254332500       7.498056160700
        42    2       18.760250000000       2.166254332500       7.498056160700
        43    2       15.008200000000       8.665004332500       7.498056160700
        44    2       18.760250000000       8.665004332500       7.498056160700
        45    1       20.636275000000       1.083120667500       8.957907130500
        46    1       16.884225000000       7.581870667500       8.957907130500
        47    2       20.636275000000       5.415629332500       7.498056160700
        48    2       16.884225000000      11.914379332500       7.498056160700
        49    1       26.264350000000       4.332495667500       8.957907130500
        50    1       22.512300000000      10.831245667500       8.957907130500
        51    1       22.512300000000       4.332495667500       8.957907130500
        52    1       26.264350000000      10.831245667500       8.957907130500
        53    2       24.388325000000       5.415629332500       7.498056160700
        54    2       28.140375000000      11.914379332500       7.498056160700
        55    1       24.388325000000       1.083120667500       8.957907130500
        56    1       28.140375000000       7.581870667500       8.957907130500
        57    2       30.016400000000       2.166254332500       7.498056160700
        58    2       26.264350000000       2.166254332500       7.498056160700
        59    2       22.512300000000       8.665004332500       7.498056160700
        60    2       26.264350000000       8.665004332500       7.498056160700
        61    1       28.140375000000       1.083120667500       8.957907130500
        62    1       24.388325000000       7.581870667500       8.957907130500
        63    2       28.140375000000       5.415629332500       7.498056160700
        64    2       24.388325000000      11.914379332500       7.498056160700
        65    1       33.768450000000       4.332495667500       8.957907130500
        66    1       30.016400000000      10.831245667500       8.957907130500
        67    1       30.016400000000       4.332495667500       8.957907130500
        68    1       33.768450000000      10.831245667500       8.957907130500
        69    2       31.892425000000       5.415629332500       7.498056160700
        70    2       35.644475000000      11.914379332500       7.498056160700
        71    1       31.892425000000       1.083120667500       8.957907130500
        72    1       35.644475000000       7.581870667500       8.957907130500
        73    2       37.520500000000       2.166254332500       7.498056160700
        74    2       33.768450000000       2.166254332500       7.498056160700
        75    2       30.016400000000       8.665004332500       7.498056160700
        76    2       33.768450000000       8.665004332500       7.498056160700
        77    1       35.644475000000       1.083120667500       8.957907130500
        78    1       31.892425000000       7.581870667500       8.957907130500
        79    2       35.644475000000       5.415629332500       7.498056160700
        80    2       31.892425000000      11.914379332500       7.498056160700
        81    1       41.272550000000       4.332495667500       8.957907130500
        82    1       37.520500000000      10.831245667500       8.957907130500
        83    1       37.520500000000       4.332495667500       8.957907130500
        84    1       41.272550000000      10.831245667500       8.957907130500
        85    2       39.396525000000       5.415629332500       7.498056160700
        86    2       43.148575000000      11.914379332500       7.498056160700
        87    1       39.396525000000       1.083120667500       8.957907130500
        88    1       43.148575000000       7.581870667500       8.957907130500
        89    2       45.024600000000       2.166254332500       7.498056160700
        90    2       41.272550000000       2.166254332500       7.498056160700
        91    2       37.520500000000       8.665004332500       7.498056160700
        92    2       41.272550000000       8.665004332500       7.498056160700
        93    1       43.148575000000       1.083120667500       8.957907130500
        94    1       39.396525000000       7.581870667500       8.957907130500
        95    2       43.148575000000       5.415629332500       7.498056160700
        96    2       39.396525000000      11.914379332500       7.498056160700
        97    1       48.776650000000       4.332495667500       8.957907130500
        98    1       45.024600000000      10.831245667500       8.957907130500
        99    1       45.024600000000       4.332495667500       8.957907130500
       100    1       48.776650000000      10.831245667500       8.957907130500
       101    2       46.900625000000       5.415629332500       7.498056160700
       102    2       50.652675000000      11.914379332500       7.498056160700
       103    1       46.900625000000       1.083120667500       8.957907130500
       104    1       50.652675000000       7.581870667500       8.957907130500
       105    2       52.528700000000       2.166254332500       7.498056160700
       106    2       48.776650000000       2.166254332500       7.498056160700
       107    2       45.024600000000       8.665004332500       7.498056160700
       108    2       48.776650000000       8.665004332500       7.498056160700
       109    1       50.652675000000       1.083120667500       8.957907130500
       110    1       46.900625000000       7.581870667500       8.957907130500
       111    2       50.652675000000       5.415629332500       7.498056160700
       112    2       46.900625000000      11.914379332500       7.498056160700
       113    1       56.280750000000       4.332495667500       8.957907130500
       114    1       52.528700000000      10.831245667500       8.957907130500
       115    1       52.528700000000       4.332495667500       8.957907130500
       116    1       56.280750000000      10.831245667500       8.957907130500
       117    2       54.404725000000       5.415629332500       7.498056160700
       118    2       58.156775000000      11.914379332500       7.498056160700
       119    1       54.404725000000       1.083120667500       8.957907130500
       120    1       58.156775000000       7.581870667500       8.957907130500
       121    2       60.032800000000       2.166254332500       7.498056160700
       122    2       56.280750000000       2.166254332500       7.498056160700
       123    2       52.528700000000       8.665004332500       7.498056160700
       124    2       56.280750000000       8.665004332500       7.498056160700
       125    1       58.156775000000       1.083120667500       8.957907130500
       126    1       54.404725000000       7.581870667500       8.957907130500
       127    2       58.156775000000       5.415629332500       7.498056160700
       128    2       54.404725000000      11.914379332500       7.498056160700
       129    1       63.784850000000       4.332495667500       8.957907130500
       130    1       60.032800000000      10.831245667500       8.957907130500
       131    1       60.032800000000       4.332495667500       8.957907130500
       132    1       63.784850000000      10.831245667500       8.957907130500
       133    2       61.908825000000       5.415629332500       7.498056160700
       134    2       65.660875000000      11.914379332500       7.498056160700
       135    1       61.908825000000       1.083120667500       8.957907130500
       136    1       65.660875000000       7.581870667500       8.957907130500
       137    2       67.536900000000       2.166254332500       7.498056160700
       138    2       63.784850000000       2.166254332500       7.498056160700
       139    2       60.032800000000       8.665004332500       7.498056160700
       140    2       63.784850000000       8.665004332500       7.498056160700
       141    1       65.660875000000       1.083120667500       8.957907130500
       142    1       61.908825000000       7.581870667500       8.957907130500
       143    2       65.660875000000       5.415629332500       7.498056160700
       144    2       61.908825000000      11.914379332500       7.498056160700
       145    1       71.288950000000       4.332495667500       8.957907130500
       146    1       67.536900000000      10.831245667500       8.957907130500
       147    1       67.536900000000       4.332495667500       8.957907130500
       148    1       71.288950000000      10.831245667500       8.957907130500
       149    2       69.412925000000       5.415629332500       7.498056160700
       150    2       73.164975000000      11.914379332500       7.498056160700
       151    1       69.412925000000       1.083120667500       8.957907130500
       152    1       73.164975000000       7.581870667500       8.957907130500
       153    2       75.041000000000       2.166254332500       7.498056160700
       154    2       71.288950000000       2.166254332500       7.498056160700
       155    2       67.536900000000       8.665004332500       7.498056160700
       156    2       71.288950000000       8.665004332500       7.498056160700
       157    1       73.164975000000       1.083120667500       8.957907130500
       158    1       69.412925000000       7.581870667500       8.957907130500
       159    2       73.164975000000       5.415629332500       7.498056160700
       160    2       69.412925000000      11.914379332500       7.498056160700
       161    1       78.793050000000       4.332495667500       8.957907130500
       162    1       75.041000000000      10.831245667500       8.957907130500
       163    1       75.041000000000       4.332495667500       8.957907130500
       164    1       78.793050000000      10.831245667500       8.957907130500
       165    2       76.917025000000       5.415629332500       7.498056160700
       166    2       80.669075000000      11.914379332500       7.498056160700
       167    1       76.917025000000       1.083120667500       8.957907130500
       168    1       80.669075000000       7.581870667500       8.957907130500
       169    2       82.545100000000       2.166254332500       7.498056160700
       170    2       78.793050000000       2.166254332500       7.498056160700
       171    2       75.041000000000       8.665004332500       7.498056160700
       172    2       78.793050000000       8.665004332500       7.498056160700
       173    1       80.669075000000       1.083120667500       8.957907130500
       174    1       76.917025000000       7.581870667500       8.957907130500
       175    2       80.669075000000       5.415629332500       7.498056160700
       176    2       76.917025000000      11.914379332500       7.498056160700
       177    1       86.297150000000       4.332495667500       8.957907130500
       178    1       82.545100000000      10.831245667500       8.957907130500
       179    1       82.545100000000       4.332495667500       8.957907130500
       180    1       86.297150000000      10.831245667500       8.957907130500
       181    2       84.421125000000       5.415629332500       7.498056160700
       182    2       88.173175000000      11.914379332500       7.498056160700
       183    1       84.421125000000       1.083120667500       8.957907130500
       184    1       88.173175000000       7.581870667500       8.957907130500
       185    2       90.049200000000       2.166254332500       7.498056160700
       186    2       86.297150000000       2.166254332500       7.498056160700
       187    2       82.545100000000       8.665004332500       7.498056160700
       188    2       86.297150000000       8.665004332500       7.498056160700
       189    1       88.173175000000       1.083120667500       8.957907130500
       190    1       84.421125000000       7.581870667500       8.957907130500
       191    2       88.173175000000       5.415629332500       7.498056160700
       192    2       84.421125000000      11.914379332500       7.498056160700
       193    1       93.801250000000       4.332495667500       8.957907130500
       194    1       90.049200000000      10.831245667500       8.957907130500
       195    1       90.049200000000       4.332495667500       8.957907130500
       196    1       93.801250000000      10.831245667500       8.957907130500
       197    2       91.925225000000       5.415629332500       7.498056160700
       198    2       95.677275000000      11.914379332500       7.498056160700
       199    1       91.925225000000       1.083120667500       8.957907130500
       200    1       95.677275000000       7.581870667500       8.957907130500
       201    2       97.553300000000       2.166254332500       7.498056160700
       202    2       93.801250000000       2.166254332500       7.498056160700
       203    2       90.049200000000       8.665004332500       7.498056160700
       204    2       93.801250000000       8.665004332500       7.498056160700
       205    1       95.677275000000       1.083120667500       8.957907130500
       206    1       91.925225000000       7.581870667500       8.957907130500
       207    2       95.677275000000       5.415629332500       7.498056160700
       208    2       91.925225000000      11.914379332500       7.498056160700
       209    1        3.752050000000      17.329995667500       8.957907130500
       210    1        0.000000000000      23.828745667500       8.957907130500
       211    1        0.000000000000      17.329995667500       8.957907130500
       212    1        3.752050000000      23.828745667500       8.957907130500
       213    2        1.876025000000      18.413129332500       7.498056160700
       214    2        5.628075000000      24.911879332500       7.498056160700
       215    1        1.876025000000      14.080620667500       8.957907130500
       216    1        5.628075000000      20.579370667500       8.957907130500
       217    2        7.504100000000      15.163754332500       7.498056160700
       218    2        3.752050000000      15.163754332500       7.498056160700
       219    2        0.000000000000      21.662504332500       7.498056160700
       220    2        3.752050000000      21.662504332500       7.498056160700
       221    1        5.628075000000      14.080620667500       8.957907130500
       222    1        1.876025000000      20.579370667500       8.957907130500
       223    2        5.628075000000      18.413129332500       7.498056160700
       224    2        1.876025000000      24.911879332500       7.498056160700
       225    1       11.256150000000      17.329995667500       8.957907130500
       226    1        7.504100000000      23.828745667500       8.957907130500
       227    1        7.504100000000      17.329995667500       8.957907130500
       228    1       11.256150000000      23.828745667500       8.957907130500
       229    2        9.380125000000      18.413129332500       7.498056160700
       230    2       13.132175000000      24.911879332500       7.498056160700
       231    1        9.380125000000      14.080620667500       8.957907130500
       232    1       13.132175000000      20.579370667500       8.957907130500
       233    2       15.008200000000      15.163754332500       7.498056160700
       234    2       11.256150000000      15.163754332500       7.498056160700
       235    2        7.504100000000      21.662504332500       7.498056160700
       236    2       11.256150000000      21.662504332500       7.498056160700
       237    1       13.132175000000      14.080620667500       8.957907130500
       238    1        9.380125000000      20.579370667500       8.957907130500
       239    2       13.132175000000      18.413129332500       7.498056160700
       240    2        9.380125000000      24.911879332500       7.498056160700
       241    1       18.760250000000      17.329995667500       8.957907130500
       242    1       15.008200000000      23.828745667500       8.957907130500
       243    1       15.008200000000      17.329995667500       8.957907130500
       244    1       18.760250000000      23.828745667500       8.957907130500
       245    2       16.884225000000      18.413129332500       7.498056160700
       246    2       20.636275000000      24.911879332500       7.498056160700
       247    1       16.884225000000      14.080620667500       8.957907130500
       248    1       20.636275000000      20.579370667500       8.957907130500
       249    2       22.512300000000      15.163754332500       7.498056160700
       250    2       18.760250000000      15.163754332500       7.498056160700
       251    2       15.008200000000      21.662504332500       7.498056160700
       252    2       18.760250000000      21.662504332500       7.498056160700
       253    1       20.636275000000      14.080620667500       8.957907130500
       254    1       16.884225000000      20.579370667500       8.957907130500
       255    2       20.636275000000      18.413129332500       7.498056160700
       256    2       16.884225000000      24.911879332500       7.498056160700
       257    1       26.264350000000      17.329995667500       8.957907130500
       258    1       22.512300000000      23.828745667500       8.957907130500
       259    1       22.512300000000      17.329995667500       8.957907130500
       260    1       26.264350000000      23.828745667500       8.957907130500
       261    2       24.388325000000      18.413129332500       7.498056160700
       262    2       28.140375000000      24.911879332500       7.498056160700
       263    1       24.388325000000      14.080620667500       8.957907130500
       264    1       28.140375000000      20.579370667500       8.957907130500
       265    2       30.016400000000      15.163754332500       7.498056160700
       266    2       26.264350000000      15.163754332500       7.498056160700
       267    2       22.512300000000      21.662504332500       7.498056160700
       268    2       26.264350000000      21.662504332500       7.498056160700
       269    1       28.140375000000      14.080620667500       8.957907130500
       270    1       24.388325000000      20.579370667500       8.957907130500
       271    2       28.140375000000      18.413129332500       7.498056160700
       272    2       24.388325000000      24.911879332500       7.498056160700
       273    1       33.768450000000      17.329995667500       8.957907130500
       274    1       30.016400000000      23.828745667500       8.957907130500
       275    1       30.016400000000      17.329995667500       8.957907130500
       276    1       33.768450000000      23.828745667500       8.957907130500
       277    2       31.892425000000      18.413129332500       7.498056160700
       278    2       35.644475000000      24.911879332500       7.498056160700
       279    1       31.892425000000      14.080620667500       8.957907130500
       280    1       35.644475000000      20.579370667500       8.957907130500
       281    2       37.520500000000      15.163754332500       7.498056160700
       282    2       33.768450000000      15.163754332500       7.498056160700
       283    2       30.016400000000      21.662504332500       7.498056160700
       284    2       33.768450000000      21.662504332500       7.498056160700
       285    1       35.644475000000      14.080620667500       8.957907130500
       286    1       31.892425000000      20.579370667500       8.957907130500
       287    2       35.644475000000      18.413129332500       7.498056160700
       288    2       31.892425000000      24.911879332500       7.498056160700
       289    1       41.272550000000      17.329995667500       8.957907130500
       290    1       37.520500000000      23.828745667500       8.957907130500
       291    1       37.520500000000      17.329995667500       8.957907130500
       292    1       41.272550000000      23.828745667500       8.957907130500
       293    2       39.396525000000      18.413129332500       7.498056160700
       294    2       43.148575000000      24.911879332500       7.498056160700
       295    1       39.396525000000      14.080620667500       8.957907130500
       296    1       43.148575000000      20.579370667500       8.957907130500
       297    2       45.024600000000      15.163754332500       7.498056160700
       298    2       41.272550000000      15.163754332500       7.498056160700
       299    2       37.520500000000      21.662504332500       7.498056160700
       300    2       41.272550000000      21.662504332500       7.498056160700
       301    1       43.148575000000      14.080620667500       8.957907130500
       302    1       39.396525000000      20.579370667500       8.957907130500
       303    2       43.148575000000      18.413129332500       7.498056160700
       304    2       39.396525000000      24.911879332500       7.498056160700
       305    1       48.776650000000      17.329995667500       8.957907130500
       306    1       45.024600000000      23.828745667500       8.957907130500
       307    1       45.024600000000      17.329995667500       8.957907130500
       308    1       48.776650000000      23.828745667500       8.957907130500
       309    2       46.900625000000      18.413129332500       7.498056160700
       310    2       50.652675000000      24.911879332500       7.498056160700
       311    1       46.900625000000      14.080620667500       8.957907130500
       312    1       50.652675000000      20.579370667500       8.957907130500
       313    2       52.528700000000      15.163754332500       7.498056160700
       314    2       48.776650000000      15.163754332500       7.498056160700
       315    2       45.024600000000      21.662504332500       7.498056160700
       316    2       48.776650000000      21.662504332500       7.498056160700
       317    1       50.652675000000      14.080620667500       8.957907130500
       318    1       46.900625000000      20.579370667500       8.957907130500
       319    2       50.652675000000      18.413129332500       7.498056160700
       320    2       46.900625000000      24.911879332500       7.498056160700
       321    1       56.280750000000      17.329995667500       8.957907130500
       322    1       52.528700000000      23.828745667500       8.957907130500
       323    1       52.528700000000      17.329995667500       8.957907130500
       324    1       56.280750000000      23.828745667500       8.957907130500
       325    2       54.404725000000      18.413129332500       7.498056160700
       326    2       58.156775000000      24.911879332500       7.498056160700
       327    1       54.404725000000      14.080620667500       8.957907130500
       328    1       58.156775000000      20.579370667500       8.957907130500
       329    2       60.032800000000      15.163754332500       7.498056160700
       330    2       56.280750000000      15.163754332500       7.498056160700
       331    2       52.528700000000      21.662504332500       7.498056160700
       332    2       56.280750000000      21.662504332500       7.498056160700
       333    1       58.156775000000      14.080620667500       8.957907130500
       334    1       54.404725000000      20.579370667500       8.957907130500
       335    2       58.156775000000      18.413129332500       7.498056160700
       336    2       54.404725000000      24.911879332500       7.498056160700
       337    1       63.784850000000      17.329995667500       8.957907130500
       338    1       60.032800000000      23.828745667500       8.957907130500
       339    1       60.032800000000      17.329995667500       8.957907130500
       340    1       63.784850000000      23.828745667500       8.957907130500
       341    2       61.908825000000      18.413129332500       7.498056160700
       342    2       65.660875000000      24.911879332500       7.498056160700
       343    1       61.908825000000      14.080620667500       8.957907130500
       344    1       65.660875000000      20.579370667500       8.957907130500
       345    2       67.536900000000      15.163754332500       7.498056160700
       346    2       63.784850000000      15.163754332500       7.498056160700
       347    2       60.032800000000      21.662504332500       7.498056160700
       348    2       63.784850000000      21.662504332500       7.498056160700
       349    1       65.660875000000      14.080620667500       8.957907130500
       350    1       61.908825000000      20.579370667500       8.957907130500
       351    2       65.660875000000      18.413129332500       7.498056160700
       352    2       61.908825000000      24.911879332500       7.498056160700
       353    1       71.288950000000      17.329995667500       8.957907130500
       354    1       67.536900000000      23.828745667500       8.957907130500
       355    1       67.536900000000      17.329995667500       8.957907130500
       356    1       71.288950000000      23.828745667500       8.957907130500
       357    2       69.412925000000      18.413129332500       7.498056160700
       358    2       73.164975000000      24.911879332500       7.498056160700
       359    1       69.412925000000      14.080620667500       8.957907130500
       360    1       73.164975000000      20.579370667500       8.957907130500
       361    2       75.041000000000      15.163754332500       7.498056160700
       362    2       71.288950000000      15.163754332500       7.498056160700
       363    2       67.536900000000      21.662504332500       7.498056160700
       364    2       71.288950000000      21.662504332500       7.498056160700
       365    1       73.164975000000      14.080620667500       8.957907130500
       366    1       69.412925000000      20.579370667500       8.957907130500
       367    2       73.164975000000      18.413129332500       7.498056160700
       368    2       69.412925000000      24.911879332500       7.498056160700
       369    1       78.793050000000      17.329995667500       8.957907130500
       370    1       75.041000000000      23.828745667500       8.957907130500