 # Te8 Sn8
  
        1344  atoms
           2  atom types
 
      0.000000000000     100.147200000000  xlo xhi
      0.000000000000     101.184300000000  ylo yhi
      0.000000000000      16.679500000000  zlo zhi
 
Masses
 
            1   127.60000000            # Te
            2   118.71000000            # Sn
 
Atoms # charge
 
         1    1   0.000000        0.000000000000       2.409154818300       7.496901506000
         2    1   0.000000        4.172800000000       2.409154818300       7.496901506000
         3    1   0.000000        0.000000000000       9.636604818300       7.496901506000
         4    1   0.000000        4.172800000000       9.636604818300       7.496901506000
         5    2   0.000000        2.086400000000       1.204570181700       9.183065520000
         6    2   0.000000        6.259200000000       8.432020181700       9.183065520000
         7    2   0.000000        0.000000000000       4.818295181700       9.183065520000
         8    2   0.000000        4.172800000000      12.045745181700       9.183065520000
         9    2   0.000000        4.172800000000       4.818295181700       9.183065520000
        10    2   0.000000        0.000000000000      12.045745181700       9.183065520000
        11    2   0.000000        6.259200000000       1.204570181700       9.183065520000
        12    2   0.000000        2.086400000000       8.432020181700       9.183065520000
        13    1   0.000000        6.259200000000       6.022879818300       7.496901506000
        14    1   0.000000        2.086400000000      13.250329818300       7.496901506000
        15    1   0.000000        2.086400000000       6.022879818300       7.496901506000
        16    1   0.000000        6.259200000000      13.250329818300       7.496901506000
        17    1   0.000000        8.345600000000       2.409154818300       7.496901506000
        18    1   0.000000       12.518400000000       2.409154818300       7.496901506000
        19    1   0.000000        8.345600000000       9.636604818300       7.496901506000
        20    1   0.000000       12.518400000000       9.636604818300       7.496901506000
        21    2   0.000000       10.432000000000       1.204570181700       9.183065520000
        22    2   0.000000       14.604800000000       8.432020181700       9.183065520000
        23    2   0.000000        8.345600000000       4.818295181700       9.183065520000
        24    2   0.000000       12.518400000000      12.045745181700       9.183065520000
        25    2   0.000000       12.518400000000       4.818295181700       9.183065520000
        26    2   0.000000        8.345600000000      12.045745181700       9.183065520000
        27    2   0.000000       14.604800000000       1.204570181700       9.183065520000
        28    2   0.000000       10.432000000000       8.432020181700       9.183065520000
        29    1   0.000000       14.604800000000       6.022879818300       7.496901506000
        30    1   0.000000       10.432000000000      13.250329818300       7.496901506000
        31    1   0.000000       10.432000000000       6.022879818300       7.496901506000
        32    1   0.000000       14.604800000000      13.250329818300       7.496901506000
        33    1   0.000000       16.691200000000       2.409154818300       7.496901506000
        34    1   0.000000       20.864000000000       2.409154818300       7.496901506000
        35    1   0.000000       16.691200000000       9.636604818300       7.496901506000
        36    1   0.000000       20.864000000000       9.636604818300       7.496901506000
        37    2   0.000000       18.777600000000       1.204570181700       9.183065520000
        38    2   0.000000       22.950400000000       8.432020181700       9.183065520000
        39    2   0.000000       16.691200000000       4.818295181700       9.183065520000
        40    2   0.000000       20.864000000000      12.045745181700       9.183065520000
        41    2   0.000000       20.864000000000       4.818295181700       9.183065520000
        42    2   0.000000       16.691200000000      12.045745181700       9.183065520000
        43    2   0.000000       22.950400000000       1.204570181700       9.183065520000
        44    2   0.000000       18.777600000000       8.432020181700       9.183065520000
        45    1   0.000000       22.950400000000       6.022879818300       7.496901506000
        46    1   0.000000       18.777600000000      13.250329818300       7.496901506000
        47    1   0.000000       18.777600000000       6.022879818300       7.496901506000
        48    1   0.000000       22.950400000000      13.250329818300       7.496901506000
        49    1   0.000000       25.036800000000       2.409154818300       7.496901506000
        50    1   0.000000       29.209600000000       2.409154818300       7.496901506000
        51    1   0.000000       25.036800000000       9.636604818300       7.496901506000
        52    1   0.000000       29.209600000000       9.636604818300       7.496901506000
        53    2   0.000000       27.123200000000       1.204570181700       9.183065520000
        54    2   0.000000       31.296000000000       8.432020181700       9.183065520000
        55    2   0.000000       25.036800000000       4.818295181700       9.183065520000
        56    2   0.000000       29.209600000000      12.045745181700       9.183065520000
        57    2   0.000000       29.209600000000       4.818295181700       9.183065520000
        58    2   0.000000       25.036800000000      12.045745181700       9.183065520000
        59    2   0.000000       31.296000000000       1.204570181700       9.183065520000
        60    2   0.000000       27.123200000000       8.432020181700       9.183065520000
        61    1   0.000000       31.296000000000       6.022879818300       7.496901506000
        62    1   0.000000       27.123200000000      13.250329818300       7.496901506000
        63    1   0.000000       27.123200000000       6.022879818300       7.496901506000
        64    1   0.000000       31.296000000000      13.250329818300       7.496901506000
        65    1   0.000000       33.382400000000       2.409154818300       7.496901506000
        66    1   0.000000       37.555200000000       2.409154818300       7.496901506000
        67    1   0.000000       33.382400000000       9.636604818300       7.496901506000
        68    1   0.000000       37.555200000000       9.636604818300       7.496901506000
        69    2   0.000000       35.468800000000       1.204570181700       9.183065520000
        70    2   0.000000       39.641600000000       8.432020181700       9.183065520000
        71    2   0.000000       33.382400000000       4.818295181700       9.183065520000
        72    2   0.000000       37.555200000000      12.045745181700       9.183065520000
        73    2   0.000000       37.555200000000       4.818295181700       9.183065520000
        74    2   0.000000       33.382400000000      12.045745181700       9.183065520000
        75    2   0.000000       39.641600000000       1.204570181700       9.183065520000
        76    2   0.000000       35.468800000000       8.432020181700       9.183065520000
        77    1   0.000000       39.641600000000       6.022879818300       7.496901506000
        78    1   0.000000       35.468800000000      13.250329818300       7.496901506000
        79    1   0.000000       35.468800000000       6.022879818300       7.496901506000
        80    1   0.000000       39.641600000000      13.250329818300       7.496901506000
        81    1   0.000000       41.728000000000       2.409154818300       7.496901506000
        82    1   0.000000       45.900800000000       2.409154818300       7.496901506000
        83    1   0.000000       41.728000000000       9.636604818300       7.496901506000
        84    1   0.000000       45.900800000000       9.636604818300       7.496901506000
        85    2   0.000000       43.814400000000       1.204570181700       9.183065520000
        86    2   0.000000       47.987200000000       8.432020181700       9.183065520000
        87    2   0.000000       41.728000000000       4.818295181700       9.183065520000
        88    2   0.000000       45.900800000000      12.045745181700       9.183065520000
        89    2   0.000000       45.900800000000       4.818295181700       9.183065520000
        90    2   0.000000       41.728000000000      12.045745181700       9.183065520000
        91    2   0.000000       47.987200000000       1.204570181700       9.183065520000
        92    2   0.000000       43.814400000000       8.432020181700       9.183065520000
        93    1   0.000000       47.987200000000       6.022879818300       7.496901506000
        94    1   0.000000       43.814400000000      13.250329818300       7.496901506000
        95    1   0.000000       43.814400000000       6.022879818300       7.496901506000
        96    1   0.000000       47.987200000000      13.250329818300       7.496901506000
        97    1   0.000000       50.073600000000       2.409154818300       7.496901506000
        98    1   0.000000       54.246400000000       2.409154818300       7.496901506000
        99    1   0.000000       50.073600000000       9.636604818300       7.496901506000
       100    1   0.000000       54.246400000000       9.636604818300       7.496901506000
       101    2   0.000000       52.160000000000       1.204570181700       9.183065520000
       102    2   0.000000       56.332800000000       8.432020181700       9.183065520000
       103    2   0.000000       50.073600000000       4.818295181700       9.183065520000
       104    2   0.000000       54.246400000000      12.045745181700       9.183065520000
       105    2   0.000000       54.246400000000       4.818295181700       9.183065520000
       106    2   0.000000       50.073600000000      12.045745181700       9.183065520000
       107    2   0.000000       56.332800000000       1.204570181700       9.183065520000
       108    2   0.000000       52.160000000000       8.432020181700       9.183065520000
       109    1   0.000000       56.332800000000       6.022879818300       7.496901506000
       110    1   0.000000       52.160000000000      13.250329818300       7.496901506000
       111    1   0.000000       52.160000000000       6.022879818300       7.496901506000
       112    1   0.000000       56.332800000000      13.250329818300       7.496901506000
       113    1   0.000000       58.419200000000       2.409154818300       7.496901506000
       114    1   0.000000       62.592000000000       2.409154818300       7.496901506000
       115    1   0.000000       58.419200000000       9.636604818300       7.496901506000
       116    1   0.000000       62.592000000000       9.636604818300       7.496901506000
       117    2   0.000000       60.505600000000       1.204570181700       9.183065520000
       118    2   0.000000       64.678400000000       8.432020181700       9.183065520000
       119    2   0.000000       58.419200000000       4.818295181700       9.183065520000
       120    2   0.000000       62.592000000000      12.045745181700       9.183065520000
       121    2   0.000000       62.592000000000       4.818295181700       9.183065520000
       122    2   0.000000       58.419200000000      12.045745181700       9.183065520000
       123    2   0.000000       64.678400000000       1.204570181700       9.183065520000
       124    2   0.000000       60.505600000000       8.432020181700       9.183065520000
       125    1   0.000000       64.678400000000       6.022879818300       7.496901506000
       126    1   0.000000       60.505600000000      13.250329818300       7.496901506000
       127    1   0.000000       60.505600000000       6.022879818300       7.496901506000
       128    1   0.000000       64.678400000000      13.250329818300       7.496901506000
       129    1   0.000000       66.764800000000       2.409154818300       7.496901506000
       130    1   0.000000       70.937600000000       2.409154818300       7.496901506000
       131    1   0.000000       66.764800000000       9.636604818300       7.496901506000
       132    1   0.000000       70.937600000000       9.636604818300       7.496901506000
       133    2   0.000000       68.851200000000       1.204570181700       9.183065520000
       134    2   0.000000       73.024000000000       8.432020181700       9.183065520000
       135    2   0.000000       66.764800000000       4.818295181700       9.183065520000
       136    2   0.000000       70.937600000000      12.045745181700       9.183065520000
       137    2   0.000000       70.937600000000       4.818295181700       9.183065520000
       138    2   0.000000       66.764800000000      12.045745181700       9.183065520000
       139    2   0.000000       73.024000000000       1.204570181700       9.183065520000
       140    2   0.000000       68.851200000000       8.432020181700       9.183065520000
       141    1   0.000000       73.024000000000       6.022879818300       7.496901506000
       142    1   0.000000       68.851200000000      13.250329818300       7.496901506000
       143    1   0.000000       68.851200000000       6.022879818300       7.496901506000
       144    1   0.000000       73.024000000000      13.250329818300       7.496901506000
       145    1   0.000000       75.110400000000       2.409154818300       7.496901506000
       146    1   0.000000       79.283200000000       2.409154818300       7.496901506000
       147    1   0.000000       75.110400000000       9.636604818300       7.496901506000
       148    1   0.000000       79.283200000000       9.636604818300       7.496901506000
       149    2   0.000000       77.196800000000       1.204570181700       9.183065520000
       150    2   0.000000       81.369600000000       8.432020181700       9.183065520000
       151    2   0.000000       75.110400000000       4.818295181700       9.183065520000
       152    2   0.000000       79.283200000000      12.045745181700       9.183065520000
       153    2   0.000000       79.283200000000       4.818295181700       9.183065520000
       154    2   0.000000       75.110400000000      12.045745181700       9.183065520000
       155    2   0.000000       81.369600000000       1.204570181700       9.183065520000
       156    2   0.000000       77.196800000000       8.432020181700       9.183065520000
       157    1   0.000000       81.369600000000       6.022879818300       7.496901506000
       158    1   0.000000       77.196800000000      13.250329818300       7.496901506000
       159    1   0.000000       77.196800000000       6.022879818300       7.496901506000
       160    1   0.000000       81.369600000000      13.250329818300       7.496901506000
       161    1   0.000000       83.456000000000       2.409154818300       7.496901506000
       162    1   0.000000       87.628800000000       2.409154818300       7.496901506000
       163    1   0.000000       83.456000000000       9.636604818300       7.496901506000
       164    1   0.000000       87.628800000000       9.636604818300       7.496901506000
       165    2   0.000000       85.542400000000       1.204570181700       9.183065520000
       166    2   0.000000       89.715200000000       8.432020181700       9.183065520000
       167    2   0.000000       83.456000000000       4.818295181700       9.183065520000
       168    2   0.000000       87.628800000000      12.045745181700       9.183065520000
       169    2   0.000000       87.628800000000       4.818295181700       9.183065520000
       170    2   0.000000       83.456000000000      12.045745181700       9.183065520000
       171    2   0.000000       89.715200000000       1.204570181700       9.183065520000
       172    2   0.000000       85.542400000000       8.432020181700       9.183065520000
       173    1   0.000000       89.715200000000       6.022879818300       7.496901506000
       174    1   0.000000       85.542400000000      13.250329818300       7.496901506000
       175    1   0.000000       85.542400000000       6.022879818300       7.496901506000
       176    1   0.000000       89.715200000000      13.250329818300       7.496901506000
       177    1   0.000000       91.801600000000       2.409154818300       7.496901506000
       178    1   0.000000       95.974400000000       2.409154818300       7.496901506000
       179    1   0.000000       91.801600000000       9.636604818300       7.496901506000
       180    1   0.000000       95.974400000000       9.636604818300       7.496901506000
       181    2   0.000000       93.888000000000       1.204570181700       9.183065520000
       182    2   0.000000       98.060800000000       8.432020181700       9.183065520000
       183    2   0.000000       91.801600000000       4.818295181700       9.183065520000
       184    2   0.000000       95.974400000000      12.045745181700       9.183065520000
       185    2   0.000000       95.974400000000       4.818295181700       9.183065520000
       186    2   0.000000       91.801600000000      12.045745181700       9.183065520000
       187    2   0.000000       98.060800000000       1.204570181700       9.183065520000
       188    2   0.000000       93.888000000000       8.432020181700       9.183065520000
       189    1   0.000000       98.060800000000       6.022879818300       7.496901506000
       190    1   0.000000       93.888000000000      13.250329818300       7.496901506000
       191    1   0.000000       93.888000000000       6.022879818300       7.496901506000
       192    1   0.000000       98.060800000000      13.250329818300       7.496901506000
       193    1   0.000000        0.000000000000      16.864054818300       7.496901506000
       194    1   0.000000        4.172800000000      16.864054818300       7.496901506000
       195    1   0.000000        0.000000000000      24.091504818300       7.496901506000
       196    1   0.000000        4.172800000000      24.091504818300       7.496901506000
       197    2   0.000000        2.086400000000      15.659470181700       9.183065520000
       198    2   0.000000        6.259200000000      22.886920181700       9.183065520000
       199    2   0.000000        0.000000000000      19.273195181700       9.183065520000
       200    2   0.000000        4.172800000000      26.500645181700       9.183065520000
       201    2   0.000000        4.172800000000      19.273195181700       9.183065520000
       202    2   0.000000        0.000000000000      26.500645181700       9.183065520000
       203    2   0.000000        6.259200000000      15.659470181700       9.183065520000
       204    2   0.000000        2.086400000000      22.886920181700       9.183065520000
       205    1   0.000000        6.259200000000      20.477779818300       7.496901506000
       206    1   0.000000        2.086400000000      27.705229818300       7.496901506000
       207    1   0.000000        2.086400000000      20.477779818300       7.496901506000
       208    1   0.000000        6.259200000000      27.705229818300       7.496901506000
       209    1   0.000000        8.345600000000      16.864054818300       7.496901506000
       210    1   0.000000       12.518400000000      16.864054818300       7.496901506000
       211    1   0.000000        8.345600000000      24.091504818300       7.496901506000
       212    1   0.000000       12.518400000000      24.091504818300       7.496901506000
       213    2   0.000000       10.432000000000      15.659470181700       9.183065520000
       214    2   0.000000       14.604800000000      22.886920181700       9.183065520000
       215    2   0.000000        8.345600000000      19.273195181700       9.183065520000
       216    2   0.000000       12.518400000000      26.500645181700       9.183065520000
       217    2   0.000000       12.518400000000      19.273195181700       9.183065520000
       218    2   0.000000        8.345600000000      26.500645181700       9.183065520000
       219    2   0.000000       14.604800000000      15.659470181700       9.183065520000
       220    2   0.000000       10.432000000000      22.886920181700       9.183065520000
       221    1   0.000000       14.604800000000      20.477779818300       7.496901506000
       222    1   0.000000       10.432000000000      27.705229818300       7.496901506000
       223    1   0.000000       10.432000000000      20.477779818300       7.496901506000
       224    1   0.000000       14.604800000000      27.705229818300       7.496901506000
       225    1   0.000000       16.691200000000      16.864054818300       7.496901506000
       226    1   0.000000       20.864000000000      16.864054818300       7.496901506000
       227    1   0.000000       16.691200000000      24.091504818300       7.496901506000
       228    1   0.000000       20.864000000000      24.091504818300       7.496901506000
       229    2   0.000000       18.777600000000      15.659470181700       9.183065520000
       230    2   0.000000       22.950400000000      22.886920181700       9.183065520000
       231    2   0.000000       16.691200000000      19.273195181700       9.183065520000
       232    2   0.000000       20.864000000000      26.500645181700       9.183065520000
       233    2   0.000000       20.864000000000      19.273195181700       9.183065520000
       234    2   0.000000       16.691200000000      26.500645181700       9.183065520000
       235    2   0.000000       22.950400000000      15.659470181700       9.183065520000
       236    2   0.000000       18.777600000000      22.886920181700       9.183065520000
       237    1   0.000000       22.950400000000      20.477779818300       7.496901506000
       238    1   0.000000       18.777600000000      27.705229818300       7.496901506000
       239    1   0.000000       18.777600000000      20.477779818300       7.496901506000
       240    1   0.000000       22.950400000000      27.705229818300       7.496901506000
       241    1   0.000000       25.036800000000      16.864054818300       7.496901506000
       242    1   0.000000       29.209600000000      16.864054818300       7.496901506000
       243    1   0.000000       25.036800000000      24.091504818300       7.496901506000
       244    1   0.000000       29.209600000000      24.091504818300       7.496901506000
       245    2   0.000000       27.123200000000      15.659470181700       9.183065520000
       246    2   0.000000       31.296000000000      22.886920181700       9.183065520000
       247    2   0.000000       25.036800000000      19.273195181700       9.183065520000
       248    2   0.000000       29.209600000000      26.500645181700       9.183065520000
       249    2   0.000000       29.209600000000      19.273195181700       9.183065520000
       250    2   0.000000       25.036800000000      26.500645181700       9.183065520000
       251    2   0.000000       31.296000000000      15.659470181700       9.183065520000
       252    2   0.000000       27.123200000000      22.886920181700       9.183065520000
       253    1   0.000000       31.296000000000      20.477779818300       7.496901506000
       254    1   0.000000       27.123200000000      27.705229818300       7.496901506000
       255    1   0.000000       27.123200000000      20.477779818300       7.496901506000
       256    1   0.000000       31.296000000000      27.705229818300       7.496901506000
       257    1   0.000000       33.382400000000      16.864054818300       7.496901506000
       258    1   0.000000       37.555200000000      16.864054818300       7.496901506000
       259    1   0.000000       33.382400000000      24.091504818300       7.496901506000
       260    1   0.000000       37.555200000000      24.091504818300       7.496901506000
       261    2   0.000000       35.468800000000      15.659470181700       9.183065520000
       262    2   0.000000       39.641600000000      22.886920181700       9.183065520000
       263    2   0.000000       33.382400000000      19.273195181700       9.183065520000
       264    2   0.000000       37.555200000000      26.500645181700       9.183065520000
       265    2   0.000000       37.555200000000      19.273195181700       9.183065520000
       266    2   0.000000       33.382400000000      26.500645181700       9.183065520000
       267    2   0.000000       39.641600000000      15.659470181700       9.183065520000
       268    2   0.000000       35.468800000000      22.886920181700       9.183065520000
       269    1   0.000000       39.641600000000      20.477779818300       7.496901506000
       270    1   0.000000       35.468800000000      27.705229818300       7.496901506000
       271    1   0.000000       35.468800000000      20.477779818300       7.496901506000
       272    1   0.000000       39.641600000000      27.705229818300       7.496901506000
       273    1   0.000000       41.728000000000      16.864054818300       7.496901506000
       274    1   0.000000       45.900800000000      16.864054818300       7.496901506000
       275    1   0.000000       41.728000000000      24.091504818300       7.496901506000
       276    1   0.000000       45.900800000000      24.091504818300       7.496901506000
       277    2   0.000000       43.814400000000      15.659470181700       9.183065520000
       278    2   0.000000       47.987200000000      22.886920181700       9.183065520000
       279    2   0.000000       41.728000000000      19.273195181700       9.183065520000
       280    2   0.000000       45.900800000000      26.500645181700       9.183065520000
       281    2   0.000000       45.900800000000      19.273195181700       9.183065520000
       282    2   0.000000       41.728000000000      26.500645181700       9.183065520000
       283    2   0.000000       47.987200000000      15.659470181700       9.183065520000
       284    2   0.000000       43.814400000000      22.886920181700       9.183065520000
       285    1   0.000000       47.987200000000      20.477779818300       7.496901506000
       286    1   0.000000       43.814400000000      27.705229818300       7.496901506000
       287    1   0.000000       43.814400000000      20.477779818300       7.496901506000
       288    1   0.000000       47.987200000000      27.705229818300       7.496901506000
       289    1   0.000000       50.073600000000      16.864054818300       7.496901506000
       290    1   0.000000       54.246400000000      16.864054818300       7.496901506000
       291    1   0.000000       50.073600000000      24.091504818300       7.496901506000
       292    1   0.000000       54.246400000000      24.091504818300       7.496901506000
       293    2   0.000000       52.160000000000      15.659470181700       9.183065520000
       294    2   0.000000       56.332800000000      22.886920181700       9.183065520000
       295    2   0.000000       50.073600000000      19.273195181700       9.183065520000
       296    2   0.000000       54.246400000000      26.500645181700       9.183065520000
       297    2   0.000000       54.246400000000      19.273195181700       9.183065520000
       298    2   0.000000       50.073600000000      26.500645181700       9.183065520000
       299    2   0.000000       56.332800000000      15.659470181700       9.183065520000
       300    2   0.000000       52.160000000000      22.886920181700       9.183065520000
       301    1   0.000000       56.332800000000      20.477779818300       7.496901506000
       302    1   0.000000       52.160000000000      27.705229818300       7.496901506000
       303    1   0.000000       52.160000000000      20.477779818300       7.496901506000
       304    1   0.000000       56.332800000000      27.705229818300       7.496901506000
       305    1   0.000000       58.419200000000      16.864054818300       7.496901506000
       306    1   0.000000       62.592000000000      16.864054818300       7.496901506000
       307    1   0.000000       58.419200000000      24.091504818300       7.496901506000
       308    1   0.000000       62.592000000000      24.091504818300       7.496901506000
       309    2   0.000000       60.505600000000      15.659470181700       9.183065520000
       310    2   0.000000       64.678400000000      22.886920181700       9.183065520000
       311    2   0.000000       58.419200000000      19.273195181700       9.183065520000
       312    2   0.000000       62.592000000000      26.500645181700       9.183065520000
       313    2   0.000000       62.592000000000      19.273195181700       9.183065520000
       314    2   0.000000       58.419200000000      26.500645181700       9.183065520000
       315    2   0.000000       64.678400000000      15.659470181700       9.183065520000
       316    2   0.000000       60.505600000000      22.886920181700       9.183065520000
       317    1   0.000000       64.678400000000      20.477779818300       7.496901506000
       318    1   0.000000       60.505600000000      27.705229818300       7.496901506000
       319    1   0.000000       60.505600000000      20.477779818300       7.496901506000
       320    1   0.000000       64.678400000000      27.705229818300       7.496901506000
       321    1   0.000000       66.764800000000      16.864054818300       7.496901506000
       322    1   0.000000       70.937600000000      16.864054818300       7.496901506000
       323    1   0.000000       66.764800000000      24.091504818300       7.496901506000
       324    1   0.000000       70.937600000000      24.091504818300       7.496901506000
       325    2   0.000000       68.851200000000      15.659470181700       9.183065520000
       326    2   0.000000       73.024000000000      22.886920181700       9.183065520000