 # Sn8 Ge8
  
        1344  atoms
           2  atom types
 
      0.000000000000     102.480000000000  xlo xhi
      0.000000000000     103.541900000000  ylo yhi
      0.000000000000     106.000000000000  zlo zhi
 
Masses
 
            1   118.71000000            # Sn
            2   72.63000000             # Ge
 
Atoms # atomic
 
         1    1        8.540000000000       2.465288263900      53.000000000000
         2    1        4.270000000000       9.861138263900      53.000000000000
         3    1        6.405000000000       6.163213263900      53.000000000000
         4    1        2.135000000000      13.559063263900      53.000000000000
         5    2        8.540000000000       4.930561736100      53.726100000000
         6    2        4.270000000000      12.326411736100      53.726100000000
         7    2        2.135000000000       1.232636736100      53.726100000000
         8    2        6.405000000000       8.628486736100      53.726100000000
         9    2        4.270000000000       4.930561736100      53.726100000000
        10    2        8.540000000000      12.326411736100      53.726100000000
        11    2        6.405000000000       1.232636736100      53.726100000000
        12    2        2.135000000000       8.628486736100      53.726100000000
        13    1        2.135000000000       6.163213263900      53.000000000000
        14    1        6.405000000000      13.559063263900      53.000000000000
        15    1        4.270000000000       2.465288263900      53.000000000000
        16    1        8.540000000000       9.861138263900      53.000000000000
        17    1       17.080000000000       2.465288263900      53.000000000000
        18    1       12.810000000000       9.861138263900      53.000000000000
        19    1       14.945000000000       6.163213263900      53.000000000000
        20    1       10.675000000000      13.559063263900      53.000000000000
        21    2       17.080000000000       4.930561736100      53.726100000000
        22    2       12.810000000000      12.326411736100      53.726100000000
        23    2       10.675000000000       1.232636736100      53.726100000000
        24    2       14.945000000000       8.628486736100      53.726100000000
        25    2       12.810000000000       4.930561736100      53.726100000000
        26    2       17.080000000000      12.326411736100      53.726100000000
        27    2       14.945000000000       1.232636736100      53.726100000000
        28    2       10.675000000000       8.628486736100      53.726100000000
        29    1       10.675000000000       6.163213263900      53.000000000000
        30    1       14.945000000000      13.559063263900      53.000000000000
        31    1       12.810000000000       2.465288263900      53.000000000000
        32    1       17.080000000000       9.861138263900      53.000000000000
        33    1       25.620000000000       2.465288263900      53.000000000000
        34    1       21.350000000000       9.861138263900      53.000000000000
        35    1       23.485000000000       6.163213263900      53.000000000000
        36    1       19.215000000000      13.559063263900      53.000000000000
        37    2       25.620000000000       4.930561736100      53.726100000000
        38    2       21.350000000000      12.326411736100      53.726100000000
        39    2       19.215000000000       1.232636736100      53.726100000000
        40    2       23.485000000000       8.628486736100      53.726100000000
        41    2       21.350000000000       4.930561736100      53.726100000000
        42    2       25.620000000000      12.326411736100      53.726100000000
        43    2       23.485000000000       1.232636736100      53.726100000000
        44    2       19.215000000000       8.628486736100      53.726100000000
        45    1       19.215000000000       6.163213263900      53.000000000000
        46    1       23.485000000000      13.559063263900      53.000000000000
        47    1       21.350000000000       2.465288263900      53.000000000000
        48    1       25.620000000000       9.861138263900      53.000000000000
        49    1       34.160000000000       2.465288263900      53.000000000000
        50    1       29.890000000000       9.861138263900      53.000000000000
        51    1       32.025000000000       6.163213263900      53.000000000000
        52    1       27.755000000000      13.559063263900      53.000000000000
        53    2       34.160000000000       4.930561736100      53.726100000000
        54    2       29.890000000000      12.326411736100      53.726100000000
        55    2       27.755000000000       1.232636736100      53.726100000000
        56    2       32.025000000000       8.628486736100      53.726100000000
        57    2       29.890000000000       4.930561736100      53.726100000000
        58    2       34.160000000000      12.326411736100      53.726100000000
        59    2       32.025000000000       1.232636736100      53.726100000000
        60    2       27.755000000000       8.628486736100      53.726100000000
        61    1       27.755000000000       6.163213263900      53.000000000000
        62    1       32.025000000000      13.559063263900      53.000000000000
        63    1       29.890000000000       2.465288263900      53.000000000000
        64    1       34.160000000000       9.861138263900      53.000000000000
        65    1       42.700000000000       2.465288263900      53.000000000000
        66    1       38.430000000000       9.861138263900      53.000000000000
        67    1       40.565000000000       6.163213263900      53.000000000000
        68    1       36.295000000000      13.559063263900      53.000000000000
        69    2       42.700000000000       4.930561736100      53.726100000000
        70    2       38.430000000000      12.326411736100      53.726100000000
        71    2       36.295000000000       1.232636736100      53.726100000000
        72    2       40.565000000000       8.628486736100      53.726100000000
        73    2       38.430000000000       4.930561736100      53.726100000000
        74    2       42.700000000000      12.326411736100      53.726100000000
        75    2       40.565000000000       1.232636736100      53.726100000000
        76    2       36.295000000000       8.628486736100      53.726100000000
        77    1       36.295000000000       6.163213263900      53.000000000000
        78    1       40.565000000000      13.559063263900      53.000000000000
        79    1       38.430000000000       2.465288263900      53.000000000000
        80    1       42.700000000000       9.861138263900      53.000000000000
        81    1       51.240000000000       2.465288263900      53.000000000000
        82    1       46.970000000000       9.861138263900      53.000000000000
        83    1       49.105000000000       6.163213263900      53.000000000000
        84    1       44.835000000000      13.559063263900      53.000000000000
        85    2       51.240000000000       4.930561736100      53.726100000000
        86    2       46.970000000000      12.326411736100      53.726100000000
        87    2       44.835000000000       1.232636736100      53.726100000000
        88    2       49.105000000000       8.628486736100      53.726100000000
        89    2       46.970000000000       4.930561736100      53.726100000000
        90    2       51.240000000000      12.326411736100      53.726100000000
        91    2       49.105000000000       1.232636736100      53.726100000000
        92    2       44.835000000000       8.628486736100      53.726100000000
        93    1       44.835000000000       6.163213263900      53.000000000000
        94    1       49.105000000000      13.559063263900      53.000000000000
        95    1       46.970000000000       2.465288263900      53.000000000000
        96    1       51.240000000000       9.861138263900      53.000000000000
        97    1       59.780000000000       2.465288263900      53.000000000000
        98    1       55.510000000000       9.861138263900      53.000000000000
        99    1       57.645000000000       6.163213263900      53.000000000000
       100    1       53.375000000000      13.559063263900      53.000000000000
       101    2       59.780000000000       4.930561736100      53.726100000000
       102    2       55.510000000000      12.326411736100      53.726100000000
       103    2       53.375000000000       1.232636736100      53.726100000000
       104    2       57.645000000000       8.628486736100      53.726100000000
       105    2       55.510000000000       4.930561736100      53.726100000000
       106    2       59.780000000000      12.326411736100      53.726100000000
       107    2       57.645000000000       1.232636736100      53.726100000000
       108    2       53.375000000000       8.628486736100      53.726100000000
       109    1       53.375000000000       6.163213263900      53.000000000000
       110    1       57.645000000000      13.559063263900      53.000000000000
       111    1       55.510000000000       2.465288263900      53.000000000000
       112    1       59.780000000000       9.861138263900      53.000000000000
       113    1       68.320000000000       2.465288263900      53.000000000000
       114    1       64.050000000000       9.861138263900      53.000000000000
       115    1       66.185000000000       6.163213263900      53.000000000000
       116    1       61.915000000000      13.559063263900      53.000000000000
       117    2       68.320000000000       4.930561736100      53.726100000000
       118    2       64.050000000000      12.326411736100      53.726100000000
       119    2       61.915000000000       1.232636736100      53.726100000000
       120    2       66.185000000000       8.628486736100      53.726100000000
       121    2       64.050000000000       4.930561736100      53.726100000000
       122    2       68.320000000000      12.326411736100      53.726100000000
       123    2       66.185000000000       1.232636736100      53.726100000000
       124    2       61.915000000000       8.628486736100      53.726100000000
       125    1       61.915000000000       6.163213263900      53.000000000000
       126    1       66.185000000000      13.559063263900      53.000000000000
       127    1       64.050000000000       2.465288263900      53.000000000000
       128    1       68.320000000000       9.861138263900      53.000000000000
       129    1       76.860000000000       2.465288263900      53.000000000000
       130    1       72.590000000000       9.861138263900      53.000000000000
       131    1       74.725000000000       6.163213263900      53.000000000000
       132    1       70.455000000000      13.559063263900      53.000000000000
       133    2       76.860000000000       4.930561736100      53.726100000000
       134    2       72.590000000000      12.326411736100      53.726100000000
       135    2       70.455000000000       1.232636736100      53.726100000000
       136    2       74.725000000000       8.628486736100      53.726100000000
       137    2       72.590000000000       4.930561736100      53.726100000000
       138    2       76.860000000000      12.326411736100      53.726100000000
       139    2       74.725000000000       1.232636736100      53.726100000000
       140    2       70.455000000000       8.628486736100      53.726100000000
       141    1       70.455000000000       6.163213263900      53.000000000000
       142    1       74.725000000000      13.559063263900      53.000000000000
       143    1       72.590000000000       2.465288263900      53.000000000000
       144    1       76.860000000000       9.861138263900      53.000000000000
       145    1       85.400000000000       2.465288263900      53.000000000000
       146    1       81.130000000000       9.861138263900      53.000000000000
       147    1       83.265000000000       6.163213263900      53.000000000000
       148    1       78.995000000000      13.559063263900      53.000000000000
       149    2       85.400000000000       4.930561736100      53.726100000000
       150    2       81.130000000000      12.326411736100      53.726100000000
       151    2       78.995000000000       1.232636736100      53.726100000000
       152    2       83.265000000000       8.628486736100      53.726100000000
       153    2       81.130000000000       4.930561736100      53.726100000000
       154    2       85.400000000000      12.326411736100      53.726100000000
       155    2       83.265000000000       1.232636736100      53.726100000000
       156    2       78.995000000000       8.628486736100      53.726100000000
       157    1       78.995000000000       6.163213263900      53.000000000000
       158    1       83.265000000000      13.559063263900      53.000000000000
       159    1       81.130000000000       2.465288263900      53.000000000000
       160    1       85.400000000000       9.861138263900      53.000000000000
       161    1       93.940000000000       2.465288263900      53.000000000000
       162    1       89.670000000000       9.861138263900      53.000000000000
       163    1       91.805000000000       6.163213263900      53.000000000000
       164    1       87.535000000000      13.559063263900      53.000000000000
       165    2       93.940000000000       4.930561736100      53.726100000000
       166    2       89.670000000000      12.326411736100      53.726100000000
       167    2       87.535000000000       1.232636736100      53.726100000000
       168    2       91.805000000000       8.628486736100      53.726100000000
       169    2       89.670000000000       4.930561736100      53.726100000000
       170    2       93.940000000000      12.326411736100      53.726100000000
       171    2       91.805000000000       1.232636736100      53.726100000000
       172    2       87.535000000000       8.628486736100      53.726100000000
       173    1       87.535000000000       6.163213263900      53.000000000000
       174    1       91.805000000000      13.559063263900      53.000000000000
       175    1       89.670000000000       2.465288263900      53.000000000000
       176    1       93.940000000000       9.861138263900      53.000000000000
       177    1      102.480000000000       2.465288263900      53.000000000000
       178    1       98.210000000000       9.861138263900      53.000000000000
       179    1      100.345000000000       6.163213263900      53.000000000000
       180    1       96.075000000000      13.559063263900      53.000000000000
       181    2      102.480000000000       4.930561736100      53.726100000000
       182    2       98.210000000000      12.326411736100      53.726100000000
       183    2       96.075000000000       1.232636736100      53.726100000000
       184    2      100.345000000000       8.628486736100      53.726100000000
       185    2       98.210000000000       4.930561736100      53.726100000000
       186    2      102.480000000000      12.326411736100      53.726100000000
       187    2      100.345000000000       1.232636736100      53.726100000000
       188    2       96.075000000000       8.628486736100      53.726100000000
       189    1       96.075000000000       6.163213263900      53.000000000000
       190    1      100.345000000000      13.559063263900      53.000000000000
       191    1       98.210000000000       2.465288263900      53.000000000000
       192    1      102.480000000000       9.861138263900      53.000000000000
       193    1        8.540000000000      17.256988263900      53.000000000000
       194    1        4.270000000000      24.652838263900      53.000000000000
       195    1        6.405000000000      20.954913263900      53.000000000000
       196    1        2.135000000000      28.350763263900      53.000000000000
       197    2        8.540000000000      19.722261736100      53.726100000000
       198    2        4.270000000000      27.118111736100      53.726100000000
       199    2        2.135000000000      16.024336736100      53.726100000000
       200    2        6.405000000000      23.420186736100      53.726100000000
       201    2        4.270000000000      19.722261736100      53.726100000000
       202    2        8.540000000000      27.118111736100      53.726100000000
       203    2        6.405000000000      16.024336736100      53.726100000000
       204    2        2.135000000000      23.420186736100      53.726100000000
       205    1        2.135000000000      20.954913263900      53.000000000000
       206    1        6.405000000000      28.350763263900      53.000000000000
       207    1        4.270000000000      17.256988263900      53.000000000000
       208    1        8.540000000000      24.652838263900      53.000000000000
       209    1       17.080000000000      17.256988263900      53.000000000000
       210    1       12.810000000000      24.652838263900      53.000000000000
       211    1       14.945000000000      20.954913263900      53.000000000000
       212    1       10.675000000000      28.350763263900      53.000000000000
       213    2       17.080000000000      19.722261736100      53.726100000000
       214    2       12.810000000000      27.118111736100      53.726100000000
       215    2       10.675000000000      16.024336736100      53.726100000000
       216    2       14.945000000000      23.420186736100      53.726100000000
       217    2       12.810000000000      19.722261736100      53.726100000000
       218    2       17.080000000000      27.118111736100      53.726100000000
       219    2       14.945000000000      16.024336736100      53.726100000000
       220    2       10.675000000000      23.420186736100      53.726100000000
       221    1       10.675000000000      20.954913263900      53.000000000000
       222    1       14.945000000000      28.350763263900      53.000000000000
       223    1       12.810000000000      17.256988263900      53.000000000000
       224    1       17.080000000000      24.652838263900      53.000000000000
       225    1       25.620000000000      17.256988263900      53.000000000000
       226    1       21.350000000000      24.652838263900      53.000000000000
       227    1       23.485000000000      20.954913263900      53.000000000000
       228    1       19.215000000000      28.350763263900      53.000000000000
       229    2       25.620000000000      19.722261736100      53.726100000000
       230    2       21.350000000000      27.118111736100      53.726100000000
       231    2       19.215000000000      16.024336736100      53.726100000000
       232    2       23.485000000000      23.420186736100      53.726100000000
       233    2       21.350000000000      19.722261736100      53.726100000000
       234    2       25.620000000000      27.118111736100      53.726100000000
       235    2       23.485000000000      16.024336736100      53.726100000000
       236    2       19.215000000000      23.420186736100      53.726100000000
       237    1       19.215000000000      20.954913263900      53.000000000000
       238    1       23.485000000000      28.350763263900      53.000000000000
       239    1       21.350000000000      17.256988263900      53.000000000000
       240    1       25.620000000000      24.652838263900      53.000000000000
       241    1       34.160000000000      17.256988263900      53.000000000000
       242    1       29.890000000000      24.652838263900      53.000000000000
       243    1       32.025000000000      20.954913263900      53.000000000000
       244    1       27.755000000000      28.350763263900      53.000000000000
       245    2       34.160000000000      19.722261736100      53.726100000000
       246    2       29.890000000000      27.118111736100      53.726100000000
       247    2       27.755000000000      16.024336736100      53.726100000000
       248    2       32.025000000000      23.420186736100      53.726100000000
       249    2       29.890000000000      19.722261736100      53.726100000000
       250    2       34.160000000000      27.118111736100      53.726100000000
       251    2       32.025000000000      16.024336736100      53.726100000000
       252    2       27.755000000000      23.420186736100      53.726100000000
       253    1       27.755000000000      20.954913263900      53.000000000000
       254    1       32.025000000000      28.350763263900      53.000000000000
       255    1       29.890000000000      17.256988263900      53.000000000000
       256    1       34.160000000000      24.652838263900      53.000000000000
       257    1       42.700000000000      17.256988263900      53.000000000000
       258    1       38.430000000000      24.652838263900      53.000000000000
       259    1       40.565000000000      20.954913263900      53.000000000000
       260    1       36.295000000000      28.350763263900      53.000000000000
       261    2       42.700000000000      19.722261736100      53.726100000000
       262    2       38.430000000000      27.118111736100      53.726100000000
       263    2       36.295000000000      16.024336736100      53.726100000000
       264    2       40.565000000000      23.420186736100      53.726100000000
       265    2       38.430000000000      19.722261736100      53.726100000000
       266    2       42.700000000000      27.118111736100      53.726100000000
       267    2       40.565000000000      16.024336736100      53.726100000000
       268    2       36.295000000000      23.420186736100      53.726100000000
       269    1       36.295000000000      20.954913263900      53.000000000000
       270    1       40.565000000000      28.350763263900      53.000000000000
       271    1       38.430000000000      17.256988263900      53.000000000000
       272    1       42.700000000000      24.652838263900      53.000000000000
       273    1       51.240000000000      17.256988263900      53.000000000000
       274    1       46.970000000000      24.652838263900      53.000000000000
       275    1       49.105000000000      20.954913263900      53.000000000000
       276    1       44.835000000000      28.350763263900      53.000000000000
       277    2       51.240000000000      19.722261736100      53.726100000000
       278    2       46.970000000000      27.118111736100      53.726100000000
       279    2       44.835000000000      16.024336736100      53.726100000000
       280    2       49.105000000000      23.420186736100      53.726100000000
       281    2       46.970000000000      19.722261736100      53.726100000000
       282    2       51.240000000000      27.118111736100      53.726100000000
       283    2       49.105000000000      16.024336736100      53.726100000000
       284    2       44.835000000000      23.420186736100      53.726100000000
       285    1       44.835000000000      20.954913263900      53.000000000000
       286    1       49.105000000000      28.350763263900      53.000000000000
       287    1       46.970000000000      17.256988263900      53.000000000000
       288    1       51.240000000000      24.652838263900      53.000000000000
       289    1       59.780000000000      17.256988263900      53.000000000000
       290    1       55.510000000000      24.652838263900      53.000000000000
       291    1       57.645000000000      20.954913263900      53.000000000000
       292    1       53.375000000000      28.350763263900      53.000000000000
       293    2       59.780000000000      19.722261736100      53.726100000000
       294    2       55.510000000000      27.118111736100      53.726100000000
       295    2       53.375000000000      16.024336736100      53.726100000000
       296    2       57.645000000000      23.420186736100      53.726100000000
       297    2       55.510000000000      19.722261736100      53.726100000000
       298    2       59.780000000000      27.118111736100      53.726100000000
       299    2       57.645000000000      16.024336736100      53.726100000000
       300    2       53.375000000000      23.420186736100      53.726100000000
       301    1       53.375000000000      20.954913263900      53.000000000000
       302    1       57.645000000000      28.350763263900      53.000000000000
       303    1       55.510000000000      17.256988263900      53.000000000000
       304    1       59.780000000000      24.652838263900      53.000000000000
       305    1       68.320000000000      17.256988263900      53.000000000000
       306    1       64.050000000000      24.652838263900      53.000000000000
       307    1       66.185000000000      20.954913263900      53.000000000000
       308    1       61.915000000000      28.350763263900      53.000000000000
       309    2       68.320000000000      19.722261736100      53.726100000000
       310    2       64.050000000000      27.118111736100      53.726100000000
       311    2       61.915000000000      16.024336736100      53.726100000000
       312    2       66.185000000000      23.420186736100      53.726100000000
       313    2       64.050000000000      19.722261736100      53.726100000000
       314    2       68.320000000000      27.118111736100      53.726100000000
       315    2       66.185000000000      16.024336736100      53.726100000000
       316    2       61.915000000000      23.420186736100      53.726100000000
       317    1       61.915000000000      20.954913263900      53.000000000000
       318    1       66.185000000000      28.350763263900      53.000000000000
       319    1       64.050000000000      17.256988263900      53.000000000000
       320    1       68.320000000000      24.652838263900      53.000000000000
       321    1       76.860000000000      17.256988263900      53.000000000000
       322    1       72.590000000000      24.652838263900      53.000000000000
       323    1       74.725000000000      20.954913263900      53.000000000000
       324    1       70.455000000000      28.350763263900      53.000000000000
       325    2       76.860000000000      19.722261736100      53.726100000000
       326    2       72.590000000000      27.118111736100      53.726100000000
       327    2       70.455000000000      16.024336736100      53.726100000000
       328    2       74.725000000000      23.420186736100      53.726100000000
       329    2       72.590000000000      19.722261736100      53.726100000000
       330    2       76.860000000000      27.118111736100      53.726100000000
       331    2       74.725000000000      16.024336736100      53.726100000000
       332    2       70.455000000000      23.420186736100      53.726100000000
       333    1       70.455000000000      20.954913263900      53.000000000000
       334    1       74.725000000000      28.350763263900      53.000000000000
       335    1       72.590000000000      17.256988263900      53.000000000000
       336    1       76.860000000000      24.652838263900      53.000000000000
       337    1       85.400000000000      17.256988263900      53.000000000000
       338    1       81.130000000000      24.652838263900      53.000000000000
       339    1       83.265000000000      20.954913263900      53.000000000000
       340    1       78.995000000000      28.350763263900      53.000000000000
       341    2       85.400000000000      19.722261736100      53.726100000000
       342    2       81.130000000000      27.118111736100      53.726100000000
       343    2       78.995000000000      16.024336736100      53.726100000000
       344    2       83.265000000000      23.420186736100      53.726100000000
       345    2       81.130000000000      19.722261736100      53.726100000000
       346    2       85.400000000000      27.118111736100      53.726100000000
       347    2       83.265000000000      16.024336736100      53.726100000000
       348    2       78.995000000000      23.420186736100      53.726100000000
       349    1       78.995000000000      20.954913263900      53.000000000000
       350    1       83.265000000000      28.350763263900      53.000000000000
       351    1       81.130000000000      17.256988263900      53.000000000000
       352    1       85.400000000000      24.652838263900      53.000000000000
       353    1       93.940000000000      17.256988263900      53.000000000000
       354    1       89.670000000000      24.652838263900      53.000000000000
       355    1       91.805000000000      20.954913263900      53.000000000000
       356    1       87.535000000000      28.350763263900      53.000000000000
       357    2       93.940000000000      19.722261736100      53.726100000000
       358    2       89.670000000000      27.118111736100      53.726100000000
       359    2       87.535000000000      16.024336736100      53.726100000000
       360    2       91.805000000000      23.420186736100      53.726100000000
       361    2       89.670000000000      19.722261736100      53.726100000000
       362    2       93.940000000000      27.118111736100      53.726100000000
       363    2       91.805000000000      16.024336736100      53.726100000000
       364    2       87.535000000000      23.420186736100      53.726100000000
       365    1       87.535000000000      20.954913263900      53.000000000000
       366    1       91.805000000000      28.350763263900      53.000000000000
       367    1       89.670000000000      17.256988263900      53.000000000000
       368    1       93.940000000000      24.652838263900      53.000000000000
       369    1      102.480000000000      17.256988263900      53.000000000000
       370    1       98.210000000000      24.652838263900      53.000000000000