 # P16
  
        2640  atoms
           1  atom types
 
      0.000000000000     101.890800000000  xlo xhi
      0.000000000000      99.186000000000  ylo yhi
      0.000000000000      17.109800000000  zlo zhi
 
Masses
 
            1   30.97376200             # P
 
Atoms # atomic
 
         1    1        0.039487316400       3.305928891600       7.499909732000
         2    1        0.862181424000       3.305935504000       9.609890268000
         3    1        2.355483726000       1.652782604800       9.609890268000
         4    1        3.178177833600       1.652789217200       7.499909732000
         5    1        4.670887316400       3.305928891600       7.499909732000
         6    1        5.493581424000       3.305935504000       9.609890268000
         7    1        6.986883726000       1.652782604800       9.609890268000
         8    1        7.809577833600       1.652789217200       7.499909732000
         9    1        0.039487316400       6.612128891600       7.499909732000
        10    1        0.862181424000       6.612135504000       9.609890268000
        11    1        2.355483726000       4.958982604800       9.609890268000
        12    1        3.178177833600       4.958989217200       7.499909732000
        13    1        4.670887316400       6.612128891600       7.499909732000
        14    1        5.493581424000       6.612135504000       9.609890268000
        15    1        6.986883726000       4.958982604800       9.609890268000
        16    1        7.809577833600       4.958989217200       7.499909732000
        17    1        9.302287316400       3.305928891600       7.499909732000
        18    1       10.124981424000       3.305935504000       9.609890268000
        19    1       11.618283726000       1.652782604800       9.609890268000
        20    1       12.440977833600       1.652789217200       7.499909732000
        21    1       13.933687316400       3.305928891600       7.499909732000
        22    1       14.756381424000       3.305935504000       9.609890268000
        23    1       16.249683726000       1.652782604800       9.609890268000
        24    1       17.072377833600       1.652789217200       7.499909732000
        25    1        9.302287316400       6.612128891600       7.499909732000
        26    1       10.124981424000       6.612135504000       9.609890268000
        27    1       11.618283726000       4.958982604800       9.609890268000
        28    1       12.440977833600       4.958989217200       7.499909732000
        29    1       13.933687316400       6.612128891600       7.499909732000
        30    1       14.756381424000       6.612135504000       9.609890268000
        31    1       16.249683726000       4.958982604800       9.609890268000
        32    1       17.072377833600       4.958989217200       7.499909732000
        33    1       18.565087316400       3.305928891600       7.499909732000
        34    1       19.387781424000       3.305935504000       9.609890268000
        35    1       20.881083726000       1.652782604800       9.609890268000
        36    1       21.703777833600       1.652789217200       7.499909732000
        37    1       23.196487316400       3.305928891600       7.499909732000
        38    1       24.019181424000       3.305935504000       9.609890268000
        39    1       25.512483726000       1.652782604800       9.609890268000
        40    1       26.335177833600       1.652789217200       7.499909732000
        41    1       18.565087316400       6.612128891600       7.499909732000
        42    1       19.387781424000       6.612135504000       9.609890268000
        43    1       20.881083726000       4.958982604800       9.609890268000
        44    1       21.703777833600       4.958989217200       7.499909732000
        45    1       23.196487316400       6.612128891600       7.499909732000
        46    1       24.019181424000       6.612135504000       9.609890268000
        47    1       25.512483726000       4.958982604800       9.609890268000
        48    1       26.335177833600       4.958989217200       7.499909732000
        49    1       27.827887316400       3.305928891600       7.499909732000
        50    1       28.650581424000       3.305935504000       9.609890268000
        51    1       30.143883726000       1.652782604800       9.609890268000
        52    1       30.966577833600       1.652789217200       7.499909732000
        53    1       32.459287316400       3.305928891600       7.499909732000
        54    1       33.281981424000       3.305935504000       9.609890268000
        55    1       34.775283726000       1.652782604800       9.609890268000
        56    1       35.597977833600       1.652789217200       7.499909732000
        57    1       27.827887316400       6.612128891600       7.499909732000
        58    1       28.650581424000       6.612135504000       9.609890268000
        59    1       30.143883726000       4.958982604800       9.609890268000
        60    1       30.966577833600       4.958989217200       7.499909732000
        61    1       32.459287316400       6.612128891600       7.499909732000
        62    1       33.281981424000       6.612135504000       9.609890268000
        63    1       34.775283726000       4.958982604800       9.609890268000
        64    1       35.597977833600       4.958989217200       7.499909732000
        65    1       37.090687316400       3.305928891600       7.499909732000
        66    1       37.913381424000       3.305935504000       9.609890268000
        67    1       39.406683726000       1.652782604800       9.609890268000
        68    1       40.229377833600       1.652789217200       7.499909732000
        69    1       41.722087316400       3.305928891600       7.499909732000
        70    1       42.544781424000       3.305935504000       9.609890268000
        71    1       44.038083726000       1.652782604800       9.609890268000
        72    1       44.860777833600       1.652789217200       7.499909732000
        73    1       37.090687316400       6.612128891600       7.499909732000
        74    1       37.913381424000       6.612135504000       9.609890268000
        75    1       39.406683726000       4.958982604800       9.609890268000
        76    1       40.229377833600       4.958989217200       7.499909732000
        77    1       41.722087316400       6.612128891600       7.499909732000
        78    1       42.544781424000       6.612135504000       9.609890268000
        79    1       44.038083726000       4.958982604800       9.609890268000
        80    1       44.860777833600       4.958989217200       7.499909732000
        81    1       46.353487316400       3.305928891600       7.499909732000
        82    1       47.176181424000       3.305935504000       9.609890268000
        83    1       48.669483726000       1.652782604800       9.609890268000
        84    1       49.492177833600       1.652789217200       7.499909732000
        85    1       50.984887316400       3.305928891600       7.499909732000
        86    1       51.807581424000       3.305935504000       9.609890268000
        87    1       53.300883726000       1.652782604800       9.609890268000
        88    1       54.123577833600       1.652789217200       7.499909732000
        89    1       46.353487316400       6.612128891600       7.499909732000
        90    1       47.176181424000       6.612135504000       9.609890268000
        91    1       48.669483726000       4.958982604800       9.609890268000
        92    1       49.492177833600       4.958989217200       7.499909732000
        93    1       50.984887316400       6.612128891600       7.499909732000
        94    1       51.807581424000       6.612135504000       9.609890268000
        95    1       53.300883726000       4.958982604800       9.609890268000
        96    1       54.123577833600       4.958989217200       7.499909732000
        97    1       55.616287316400       3.305928891600       7.499909732000
        98    1       56.438981424000       3.305935504000       9.609890268000
        99    1       57.932283726000       1.652782604800       9.609890268000
       100    1       58.754977833600       1.652789217200       7.499909732000
       101    1       60.247687316400       3.305928891600       7.499909732000
       102    1       61.070381424000       3.305935504000       9.609890268000
       103    1       62.563683726000       1.652782604800       9.609890268000
       104    1       63.386377833600       1.652789217200       7.499909732000
       105    1       55.616287316400       6.612128891600       7.499909732000
       106    1       56.438981424000       6.612135504000       9.609890268000
       107    1       57.932283726000       4.958982604800       9.609890268000
       108    1       58.754977833600       4.958989217200       7.499909732000
       109    1       60.247687316400       6.612128891600       7.499909732000
       110    1       61.070381424000       6.612135504000       9.609890268000
       111    1       62.563683726000       4.958982604800       9.609890268000
       112    1       63.386377833600       4.958989217200       7.499909732000
       113    1       64.879087316400       3.305928891600       7.499909732000
       114    1       65.701781424000       3.305935504000       9.609890268000
       115    1       67.195083726000       1.652782604800       9.609890268000
       116    1       68.017777833600       1.652789217200       7.499909732000
       117    1       69.510487316400       3.305928891600       7.499909732000
       118    1       70.333181424000       3.305935504000       9.609890268000
       119    1       71.826483726000       1.652782604800       9.609890268000
       120    1       72.649177833600       1.652789217200       7.499909732000
       121    1       64.879087316400       6.612128891600       7.499909732000
       122    1       65.701781424000       6.612135504000       9.609890268000
       123    1       67.195083726000       4.958982604800       9.609890268000
       124    1       68.017777833600       4.958989217200       7.499909732000
       125    1       69.510487316400       6.612128891600       7.499909732000
       126    1       70.333181424000       6.612135504000       9.609890268000
       127    1       71.826483726000       4.958982604800       9.609890268000
       128    1       72.649177833600       4.958989217200       7.499909732000
       129    1       74.141887316400       3.305928891600       7.499909732000
       130    1       74.964581424000       3.305935504000       9.609890268000
       131    1       76.457883726000       1.652782604800       9.609890268000
       132    1       77.280577833600       1.652789217200       7.499909732000
       133    1       78.773287316400       3.305928891600       7.499909732000
       134    1       79.595981424000       3.305935504000       9.609890268000
       135    1       81.089283726000       1.652782604800       9.609890268000
       136    1       81.911977833600       1.652789217200       7.499909732000
       137    1       74.141887316400       6.612128891600       7.499909732000
       138    1       74.964581424000       6.612135504000       9.609890268000
       139    1       76.457883726000       4.958982604800       9.609890268000
       140    1       77.280577833600       4.958989217200       7.499909732000
       141    1       78.773287316400       6.612128891600       7.499909732000
       142    1       79.595981424000       6.612135504000       9.609890268000
       143    1       81.089283726000       4.958982604800       9.609890268000
       144    1       81.911977833600       4.958989217200       7.499909732000
       145    1       83.404687316400       3.305928891600       7.499909732000
       146    1       84.227381424000       3.305935504000       9.609890268000
       147    1       85.720683726000       1.652782604800       9.609890268000
       148    1       86.543377833600       1.652789217200       7.499909732000
       149    1       88.036087316400       3.305928891600       7.499909732000
       150    1       88.858781424000       3.305935504000       9.609890268000
       151    1       90.352083726000       1.652782604800       9.609890268000
       152    1       91.174777833600       1.652789217200       7.499909732000
       153    1       83.404687316400       6.612128891600       7.499909732000
       154    1       84.227381424000       6.612135504000       9.609890268000
       155    1       85.720683726000       4.958982604800       9.609890268000
       156    1       86.543377833600       4.958989217200       7.499909732000
       157    1       88.036087316400       6.612128891600       7.499909732000
       158    1       88.858781424000       6.612135504000       9.609890268000
       159    1       90.352083726000       4.958982604800       9.609890268000
       160    1       91.174777833600       4.958989217200       7.499909732000
       161    1       92.667487316400       3.305928891600       7.499909732000
       162    1       93.490181424000       3.305935504000       9.609890268000
       163    1       94.983483726000       1.652782604800       9.609890268000
       164    1       95.806177833600       1.652789217200       7.499909732000
       165    1       97.298887316400       3.305928891600       7.499909732000
       166    1       98.121581424000       3.305935504000       9.609890268000
       167    1       99.614883726000       1.652782604800       9.609890268000
       168    1      100.437577833600       1.652789217200       7.499909732000
       169    1       92.667487316400       6.612128891600       7.499909732000
       170    1       93.490181424000       6.612135504000       9.609890268000
       171    1       94.983483726000       4.958982604800       9.609890268000
       172    1       95.806177833600       4.958989217200       7.499909732000
       173    1       97.298887316400       6.612128891600       7.499909732000
       174    1       98.121581424000       6.612135504000       9.609890268000
       175    1       99.614883726000       4.958982604800       9.609890268000
       176    1      100.437577833600       4.958989217200       7.499909732000
       177    1        0.039487316400       9.918328891600       7.499909732000
       178    1        0.862181424000       9.918335504000       9.609890268000
       179    1        2.355483726000       8.265182604800       9.609890268000
       180    1        3.178177833600       8.265189217200       7.499909732000
       181    1        4.670887316400       9.918328891600       7.499909732000
       182    1        5.493581424000       9.918335504000       9.609890268000
       183    1        6.986883726000       8.265182604800       9.609890268000
       184    1        7.809577833600       8.265189217200       7.499909732000
       185    1        0.039487316400      13.224528891600       7.499909732000
       186    1        0.862181424000      13.224535504000       9.609890268000
       187    1        2.355483726000      11.571382604800       9.609890268000
       188    1        3.178177833600      11.571389217200       7.499909732000
       189    1        4.670887316400      13.224528891600       7.499909732000
       190    1        5.493581424000      13.224535504000       9.609890268000
       191    1        6.986883726000      11.571382604800       9.609890268000
       192    1        7.809577833600      11.571389217200       7.499909732000
       193    1        9.302287316400       9.918328891600       7.499909732000
       194    1       10.124981424000       9.918335504000       9.609890268000
       195    1       11.618283726000       8.265182604800       9.609890268000
       196    1       12.440977833600       8.265189217200       7.499909732000
       197    1       13.933687316400       9.918328891600       7.499909732000
       198    1       14.756381424000       9.918335504000       9.609890268000
       199    1       16.249683726000       8.265182604800       9.609890268000
       200    1       17.072377833600       8.265189217200       7.499909732000
       201    1        9.302287316400      13.224528891600       7.499909732000
       202    1       10.124981424000      13.224535504000       9.609890268000
       203    1       11.618283726000      11.571382604800       9.609890268000
       204    1       12.440977833600      11.571389217200       7.499909732000
       205    1       13.933687316400      13.224528891600       7.499909732000
       206    1       14.756381424000      13.224535504000       9.609890268000
       207    1       16.249683726000      11.571382604800       9.609890268000
       208    1       17.072377833600      11.571389217200       7.499909732000
       209    1       18.565087316400       9.918328891600       7.499909732000
       210    1       19.387781424000       9.918335504000       9.609890268000
       211    1       20.881083726000       8.265182604800       9.609890268000
       212    1       21.703777833600       8.265189217200       7.499909732000
       213    1       23.196487316400       9.918328891600       7.499909732000
       214    1       24.019181424000       9.918335504000       9.609890268000
       215    1       25.512483726000       8.265182604800       9.609890268000
       216    1       26.335177833600       8.265189217200       7.499909732000
       217    1       18.565087316400      13.224528891600       7.499909732000
       218    1       19.387781424000      13.224535504000       9.609890268000
       219    1       20.881083726000      11.571382604800       9.609890268000
       220    1       21.703777833600      11.571389217200       7.499909732000
       221    1       23.196487316400      13.224528891600       7.499909732000
       222    1       24.019181424000      13.224535504000       9.609890268000
       223    1       25.512483726000      11.571382604800       9.609890268000
       224    1       26.335177833600      11.571389217200       7.499909732000
       225    1       27.827887316400       9.918328891600       7.499909732000
       226    1       28.650581424000       9.918335504000       9.609890268000
       227    1       30.143883726000       8.265182604800       9.609890268000
       228    1       30.966577833600       8.265189217200       7.499909732000
       229    1       32.459287316400       9.918328891600       7.499909732000
       230    1       33.281981424000       9.918335504000       9.609890268000
       231    1       34.775283726000       8.265182604800       9.609890268000
       232    1       35.597977833600       8.265189217200       7.499909732000
       233    1       27.827887316400      13.224528891600       7.499909732000
       234    1       28.650581424000      13.224535504000       9.609890268000
       235    1       30.143883726000      11.571382604800       9.609890268000
       236    1       30.966577833600      11.571389217200       7.499909732000
       237    1       32.459287316400      13.224528891600       7.499909732000
       238    1       33.281981424000      13.224535504000       9.609890268000
       239    1       34.775283726000      11.571382604800       9.609890268000
       240    1       35.597977833600      11.571389217200       7.499909732000
       241    1       37.090687316400       9.918328891600       7.499909732000
       242    1       37.913381424000       9.918335504000       9.609890268000
       243    1       39.406683726000       8.265182604800       9.609890268000
       244    1       40.229377833600       8.265189217200       7.499909732000
       245    1       41.722087316400       9.918328891600       7.499909732000
       246    1       42.544781424000       9.918335504000       9.609890268000
       247    1       44.038083726000       8.265182604800       9.609890268000
       248    1       44.860777833600       8.265189217200       7.499909732000
       249    1       37.090687316400      13.224528891600       7.499909732000
       250    1       37.913381424000      13.224535504000       9.609890268000
       251    1       39.406683726000      11.571382604800       9.609890268000
       252    1       40.229377833600      11.571389217200       7.499909732000
       253    1       41.722087316400      13.224528891600       7.499909732000
       254    1       42.544781424000      13.224535504000       9.609890268000
       255    1       44.038083726000      11.571382604800       9.609890268000
       256    1       44.860777833600      11.571389217200       7.499909732000
       257    1       46.353487316400       9.918328891600       7.499909732000
       258    1       47.176181424000       9.918335504000       9.609890268000
       259    1       48.669483726000       8.265182604800       9.609890268000
       260    1       49.492177833600       8.265189217200       7.499909732000
       261    1       50.984887316400       9.918328891600       7.499909732000
       262    1       51.807581424000       9.918335504000       9.609890268000
       263    1       53.300883726000       8.265182604800       9.609890268000
       264    1       54.123577833600       8.265189217200       7.499909732000
       265    1       46.353487316400      13.224528891600       7.499909732000
       266    1       47.176181424000      13.224535504000       9.609890268000
       267    1       48.669483726000      11.571382604800       9.609890268000
       268    1       49.492177833600      11.571389217200       7.499909732000
       269    1       50.984887316400      13.224528891600       7.499909732000
       270    1       51.807581424000      13.224535504000       9.609890268000
       271    1       53.300883726000      11.571382604800       9.609890268000
       272    1       54.123577833600      11.571389217200       7.499909732000
       273    1       55.616287316400       9.918328891600       7.499909732000
       274    1       56.438981424000       9.918335504000       9.609890268000
       275    1       57.932283726000       8.265182604800       9.609890268000
       276    1       58.754977833600       8.265189217200       7.499909732000
       277    1       60.247687316400       9.918328891600       7.499909732000
       278    1       61.070381424000       9.918335504000       9.609890268000
       279    1       62.563683726000       8.265182604800       9.609890268000
       280    1       63.386377833600       8.265189217200       7.499909732000
       281    1       55.616287316400      13.224528891600       7.499909732000
       282    1       56.438981424000      13.224535504000       9.609890268000
       283    1       57.932283726000      11.571382604800       9.609890268000
       284    1       58.754977833600      11.571389217200       7.499909732000
       285    1       60.247687316400      13.224528891600       7.499909732000
       286    1       61.070381424000      13.224535504000       9.609890268000
       287    1       62.563683726000      11.571382604800       9.609890268000
       288    1       63.386377833600      11.571389217200       7.499909732000
       289    1       64.879087316400       9.918328891600       7.499909732000
       290    1       65.701781424000       9.918335504000       9.609890268000
       291    1       67.195083726000       8.265182604800       9.609890268000
       292    1       68.017777833600       8.265189217200       7.499909732000
       293    1       69.510487316400       9.918328891600       7.499909732000
       294    1       70.333181424000       9.918335504000       9.609890268000
       295    1       71.826483726000       8.265182604800       9.609890268000
       296    1       72.649177833600       8.265189217200       7.499909732000
       297    1       64.879087316400      13.224528891600       7.499909732000
       298    1       65.701781424000      13.224535504000       9.609890268000
       299    1       67.195083726000      11.571382604800       9.609890268000
       300    1       68.017777833600      11.571389217200       7.499909732000
       301    1       69.510487316400      13.224528891600       7.499909732000
       302    1       70.333181424000      13.224535504000       9.609890268000
       303    1       71.826483726000      11.571382604800       9.609890268000
       304    1       72.649177833600      11.571389217200       7.499909732000
       305    1       74.141887316400       9.918328891600       7.499909732000
       306    1       74.964581424000       9.918335504000       9.609890268000
       307    1       76.457883726000       8.265182604800       9.609890268000
       308    1       77.280577833600       8.265189217200       7.499909732000
       309    1       78.773287316400       9.918328891600       7.499909732000
       310    1       79.595981424000       9.918335504000       9.609890268000
       311    1       81.089283726000       8.265182604800       9.609890268000
       312    1       81.911977833600       8.265189217200       7.499909732000
       313    1       74.141887316400      13.224528891600       7.499909732000
       314    1       74.964581424000      13.224535504000       9.609890268000
       315    1       76.457883726000      11.571382604800       9.609890268000
       316    1       77.280577833600      11.571389217200       7.499909732000
       317    1       78.773287316400      13.224528891600       7.499909732000
       318    1       79.595981424000      13.224535504000       9.609890268000
       319    1       81.089283726000      11.571382604800       9.609890268000
       320    1       81.911977833600      11.571389217200       7.499909732000
       321    1       83.404687316400       9.918328891600       7.499909732000
       322    1       84.227381424000       9.918335504000       9.609890268000
       323    1       85.720683726000       8.265182604800       9.609890268000
       324    1       86.543377833600       8.265189217200       7.499909732000
       325    1       88.036087316400       9.918328891600       7.499909732000
       326    1       88.858781424000       9.918335504000       9.609890268000
       327    1       90.352083726000       8.265182604800       9.609890268000
       328    1       91.174777833600       8.265189217200       7.499909732000
       329    1       83.404687316400      13.224528891600       7.499909732000
       330    1       84.227381424000      13.224535504000       9.609890268000
       331    1       85.720683726000      11.571382604800       9.609890268000
       332    1       86.543377833600      11.571389217200       7.499909732000
       333    1       88.036087316400      13.224528891600       7.499909732000
       334    1       88.858781424000      13.224535504000       9.609890268000
       335    1       90.352083726000      11.571382604800       9.609890268000
       336    1       91.174777833600      11.571389217200       7.499909732000
       337    1       92.667487316400       9.918328891600       7.499909732000
       338    1       93.490181424000       9.918335504000       9.609890268000
       339    1       94.983483726000       8.265182604800       9.609890268000
       340    1       95.806177833600       8.265189217200       7.499909732000
       341    1       97.298887316400       9.918328891600       7.499909732000
       342    1       98.121581424000       9.918335504000       9.609890268000
       343    1       99.614883726000       8.265182604800       9.609890268000
       344    1      100.437577833600       8.265189217200       7.499909732000
       345    1       92.667487316400      13.224528891600       7.499909732000
       346    1       93.490181424000      13.224535504000       9.609890268000
       347    1       94.983483726000      11.571382604800       9.609890268000
       348    1       95.806177833600      11.571389217200       7.499909732000
       349    1       97.298887316400      13.224528891600       7.499909732000
       350    1       98.121581424000      13.224535504000       9.609890268000
       351    1       99.614883726000      11.571382604800       9.609890268000
       352    1      100.437577833600      11.571389217200       7.499909732000
       353    1        0.039487316400      16.530728891600       7.499909732000
       354    1        0.862181424000      16.530735504000       9.609890268000
       355    1        2.355483726000      14.877582604800       9.609890268000
       356    1        3.178177833600      14.877589217200       7.499909732000
       357    1        4.670887316400      16.530728891600       7.499909732000
       358    1        5.493581424000      16.530735504000       9.609890268000
       359    1        6.986883726000      14.877582604800       9.609890268000
       360    1        7.809577833600      14.877589217200       7.499909732000
       361    1        0.039487316400      19.836928891600       7.499909732000
       362    1        0.862181424000      19.836935504000       9.609890268000
       363    1        2.355483726000      18.183782604800       9.609890268000
       364    1        3.178177833600      18.183789217200       7.499909732000
       365    1        4.670887316400      19.836928891600       7.499909732000
       366    1        5.493581424000      19.836935504000       9.609890268000
       367    1        6.986883726000      18.183782604800       9.609890268000
       368    1        7.809577833600      18.183789217200       7.499909732000
       369    1        9.302287316400      16.530728891600       7.499909732000
       370    1       10.124981424000      16.530735504000       9.609890268000
       371    1       11.618283726000      14.877582604800       9.609890268000