 # B8 S8
  
        4624  atoms
           2  atom types
 
      0.000000000000     103.020000000000  xlo xhi
      0.000000000000     103.020000000000  ylo yhi
      0.000000000000     106.000000000000  zlo zhi
 
Masses
 
            1   10.81000000             # B
            2   32.06000000             # S
 
Atoms # atomic
 
         1    1        2.019997980000       1.010002020000      50.441372000000
         2    1        2.019997980000       1.010002020000      52.161434000000
         3    2        1.010002020000       2.019997980000      49.602700000000
         4    2        1.010002020000       2.019997980000      53.000000000000
         5    1        5.049997980000       1.010002020000      50.441372000000
         6    1        5.049997980000       1.010002020000      52.161434000000
         7    2        4.040002020000       2.019997980000      49.602700000000
         8    2        4.040002020000       2.019997980000      53.000000000000
         9    1        2.019997980000       4.040002020000      50.441372000000
        10    1        2.019997980000       4.040002020000      52.161434000000
        11    2        1.010002020000       5.049997980000      49.602700000000
        12    2        1.010002020000       5.049997980000      53.000000000000
        13    1        5.049997980000       4.040002020000      50.441372000000
        14    1        5.049997980000       4.040002020000      52.161434000000
        15    2        4.040002020000       5.049997980000      49.602700000000
        16    2        4.040002020000       5.049997980000      53.000000000000
        17    1        8.079997980000       1.010002020000      50.441372000000
        18    1        8.079997980000       1.010002020000      52.161434000000
        19    2        7.070002020000       2.019997980000      49.602700000000
        20    2        7.070002020000       2.019997980000      53.000000000000
        21    1       11.109997980000       1.010002020000      50.441372000000
        22    1       11.109997980000       1.010002020000      52.161434000000
        23    2       10.100002020000       2.019997980000      49.602700000000
        24    2       10.100002020000       2.019997980000      53.000000000000
        25    1        8.079997980000       4.040002020000      50.441372000000
        26    1        8.079997980000       4.040002020000      52.161434000000
        27    2        7.070002020000       5.049997980000      49.602700000000
        28    2        7.070002020000       5.049997980000      53.000000000000
        29    1       11.109997980000       4.040002020000      50.441372000000
        30    1       11.109997980000       4.040002020000      52.161434000000
        31    2       10.100002020000       5.049997980000      49.602700000000
        32    2       10.100002020000       5.049997980000      53.000000000000
        33    1       14.139997980000       1.010002020000      50.441372000000
        34    1       14.139997980000       1.010002020000      52.161434000000
        35    2       13.130002020000       2.019997980000      49.602700000000
        36    2       13.130002020000       2.019997980000      53.000000000000
        37    1       17.169997980000       1.010002020000      50.441372000000
        38    1       17.169997980000       1.010002020000      52.161434000000
        39    2       16.160002020000       2.019997980000      49.602700000000
        40    2       16.160002020000       2.019997980000      53.000000000000
        41    1       14.139997980000       4.040002020000      50.441372000000
        42    1       14.139997980000       4.040002020000      52.161434000000
        43    2       13.130002020000       5.049997980000      49.602700000000
        44    2       13.130002020000       5.049997980000      53.000000000000
        45    1       17.169997980000       4.040002020000      50.441372000000
        46    1       17.169997980000       4.040002020000      52.161434000000
        47    2       16.160002020000       5.049997980000      49.602700000000
        48    2       16.160002020000       5.049997980000      53.000000000000
        49    1       20.199997980000       1.010002020000      50.441372000000
        50    1       20.199997980000       1.010002020000      52.161434000000
        51    2       19.190002020000       2.019997980000      49.602700000000
        52    2       19.190002020000       2.019997980000      53.000000000000
        53    1       23.229997980000       1.010002020000      50.441372000000
        54    1       23.229997980000       1.010002020000      52.161434000000
        55    2       22.220002020000       2.019997980000      49.602700000000
        56    2       22.220002020000       2.019997980000      53.000000000000
        57    1       20.199997980000       4.040002020000      50.441372000000
        58    1       20.199997980000       4.040002020000      52.161434000000
        59    2       19.190002020000       5.049997980000      49.602700000000
        60    2       19.190002020000       5.049997980000      53.000000000000
        61    1       23.229997980000       4.040002020000      50.441372000000
        62    1       23.229997980000       4.040002020000      52.161434000000
        63    2       22.220002020000       5.049997980000      49.602700000000
        64    2       22.220002020000       5.049997980000      53.000000000000
        65    1       26.259997980000       1.010002020000      50.441372000000
        66    1       26.259997980000       1.010002020000      52.161434000000
        67    2       25.250002020000       2.019997980000      49.602700000000
        68    2       25.250002020000       2.019997980000      53.000000000000
        69    1       29.289997980000       1.010002020000      50.441372000000
        70    1       29.289997980000       1.010002020000      52.161434000000
        71    2       28.280002020000       2.019997980000      49.602700000000
        72    2       28.280002020000       2.019997980000      53.000000000000
        73    1       26.259997980000       4.040002020000      50.441372000000
        74    1       26.259997980000       4.040002020000      52.161434000000
        75    2       25.250002020000       5.049997980000      49.602700000000
        76    2       25.250002020000       5.049997980000      53.000000000000
        77    1       29.289997980000       4.040002020000      50.441372000000
        78    1       29.289997980000       4.040002020000      52.161434000000
        79    2       28.280002020000       5.049997980000      49.602700000000
        80    2       28.280002020000       5.049997980000      53.000000000000
        81    1       32.319997980000       1.010002020000      50.441372000000
        82    1       32.319997980000       1.010002020000      52.161434000000
        83    2       31.310002020000       2.019997980000      49.602700000000
        84    2       31.310002020000       2.019997980000      53.000000000000
        85    1       35.349997980000       1.010002020000      50.441372000000
        86    1       35.349997980000       1.010002020000      52.161434000000
        87    2       34.340002020000       2.019997980000      49.602700000000
        88    2       34.340002020000       2.019997980000      53.000000000000
        89    1       32.319997980000       4.040002020000      50.441372000000
        90    1       32.319997980000       4.040002020000      52.161434000000
        91    2       31.310002020000       5.049997980000      49.602700000000
        92    2       31.310002020000       5.049997980000      53.000000000000
        93    1       35.349997980000       4.040002020000      50.441372000000
        94    1       35.349997980000       4.040002020000      52.161434000000
        95    2       34.340002020000       5.049997980000      49.602700000000
        96    2       34.340002020000       5.049997980000      53.000000000000
        97    1       38.379997980000       1.010002020000      50.441372000000
        98    1       38.379997980000       1.010002020000      52.161434000000
        99    2       37.370002020000       2.019997980000      49.602700000000
       100    2       37.370002020000       2.019997980000      53.000000000000
       101    1       41.409997980000       1.010002020000      50.441372000000
       102    1       41.409997980000       1.010002020000      52.161434000000
       103    2       40.400002020000       2.019997980000      49.602700000000
       104    2       40.400002020000       2.019997980000      53.000000000000
       105    1       38.379997980000       4.040002020000      50.441372000000
       106    1       38.379997980000       4.040002020000      52.161434000000
       107    2       37.370002020000       5.049997980000      49.602700000000
       108    2       37.370002020000       5.049997980000      53.000000000000
       109    1       41.409997980000       4.040002020000      50.441372000000
       110    1       41.409997980000       4.040002020000      52.161434000000
       111    2       40.400002020000       5.049997980000      49.602700000000
       112    2       40.400002020000       5.049997980000      53.000000000000
       113    1       44.439997980000       1.010002020000      50.441372000000
       114    1       44.439997980000       1.010002020000      52.161434000000
       115    2       43.430002020000       2.019997980000      49.602700000000
       116    2       43.430002020000       2.019997980000      53.000000000000
       117    1       47.469997980000       1.010002020000      50.441372000000
       118    1       47.469997980000       1.010002020000      52.161434000000
       119    2       46.460002020000       2.019997980000      49.602700000000
       120    2       46.460002020000       2.019997980000      53.000000000000
       121    1       44.439997980000       4.040002020000      50.441372000000
       122    1       44.439997980000       4.040002020000      52.161434000000
       123    2       43.430002020000       5.049997980000      49.602700000000
       124    2       43.430002020000       5.049997980000      53.000000000000
       125    1       47.469997980000       4.040002020000      50.441372000000
       126    1       47.469997980000       4.040002020000      52.161434000000
       127    2       46.460002020000       5.049997980000      49.602700000000
       128    2       46.460002020000       5.049997980000      53.000000000000
       129    1       50.499997980000       1.010002020000      50.441372000000
       130    1       50.499997980000       1.010002020000      52.161434000000
       131    2       49.490002020000       2.019997980000      49.602700000000
       132    2       49.490002020000       2.019997980000      53.000000000000
       133    1       53.529997980000       1.010002020000      50.441372000000
       134    1       53.529997980000       1.010002020000      52.161434000000
       135    2       52.520002020000       2.019997980000      49.602700000000
       136    2       52.520002020000       2.019997980000      53.000000000000
       137    1       50.499997980000       4.040002020000      50.441372000000
       138    1       50.499997980000       4.040002020000      52.161434000000
       139    2       49.490002020000       5.049997980000      49.602700000000
       140    2       49.490002020000       5.049997980000      53.000000000000
       141    1       53.529997980000       4.040002020000      50.441372000000
       142    1       53.529997980000       4.040002020000      52.161434000000
       143    2       52.520002020000       5.049997980000      49.602700000000
       144    2       52.520002020000       5.049997980000      53.000000000000
       145    1       56.559997980000       1.010002020000      50.441372000000
       146    1       56.559997980000       1.010002020000      52.161434000000
       147    2       55.550002020000       2.019997980000      49.602700000000
       148    2       55.550002020000       2.019997980000      53.000000000000
       149    1       59.589997980000       1.010002020000      50.441372000000
       150    1       59.589997980000       1.010002020000      52.161434000000
       151    2       58.580002020000       2.019997980000      49.602700000000
       152    2       58.580002020000       2.019997980000      53.000000000000
       153    1       56.559997980000       4.040002020000      50.441372000000
       154    1       56.559997980000       4.040002020000      52.161434000000
       155    2       55.550002020000       5.049997980000      49.602700000000
       156    2       55.550002020000       5.049997980000      53.000000000000
       157    1       59.589997980000       4.040002020000      50.441372000000
       158    1       59.589997980000       4.040002020000      52.161434000000
       159    2       58.580002020000       5.049997980000      49.602700000000
       160    2       58.580002020000       5.049997980000      53.000000000000
       161    1       62.619997980000       1.010002020000      50.441372000000
       162    1       62.619997980000       1.010002020000      52.161434000000
       163    2       61.610002020000       2.019997980000      49.602700000000
       164    2       61.610002020000       2.019997980000      53.000000000000
       165    1       65.649997980000       1.010002020000      50.441372000000
       166    1       65.649997980000       1.010002020000      52.161434000000
       167    2       64.640002020000       2.019997980000      49.602700000000
       168    2       64.640002020000       2.019997980000      53.000000000000
       169    1       62.619997980000       4.040002020000      50.441372000000
       170    1       62.619997980000       4.040002020000      52.161434000000
       171    2       61.610002020000       5.049997980000      49.602700000000
       172    2       61.610002020000       5.049997980000      53.000000000000
       173    1       65.649997980000       4.040002020000      50.441372000000
       174    1       65.649997980000       4.040002020000      52.161434000000
       175    2       64.640002020000       5.049997980000      49.602700000000
       176    2       64.640002020000       5.049997980000      53.000000000000
       177    1       68.679997980000       1.010002020000      50.441372000000
       178    1       68.679997980000       1.010002020000      52.161434000000
       179    2       67.670002020000       2.019997980000      49.602700000000
       180    2       67.670002020000       2.019997980000      53.000000000000
       181    1       71.709997980000       1.010002020000      50.441372000000
       182    1       71.709997980000       1.010002020000      52.161434000000
       183    2       70.700002020000       2.019997980000      49.602700000000
       184    2       70.700002020000       2.019997980000      53.000000000000
       185    1       68.679997980000       4.040002020000      50.441372000000
       186    1       68.679997980000       4.040002020000      52.161434000000
       187    2       67.670002020000       5.049997980000      49.602700000000
       188    2       67.670002020000       5.049997980000      53.000000000000
       189    1       71.709997980000       4.040002020000      50.441372000000
       190    1       71.709997980000       4.040002020000      52.161434000000
       191    2       70.700002020000       5.049997980000      49.602700000000
       192    2       70.700002020000       5.049997980000      53.000000000000
       193    1       74.739997980000       1.010002020000      50.441372000000
       194    1       74.739997980000       1.010002020000      52.161434000000
       195    2       73.730002020000       2.019997980000      49.602700000000
       196    2       73.730002020000       2.019997980000      53.000000000000
       197    1       77.769997980000       1.010002020000      50.441372000000
       198    1       77.769997980000       1.010002020000      52.161434000000
       199    2       76.760002020000       2.019997980000      49.602700000000
       200    2       76.760002020000       2.019997980000      53.000000000000
       201    1       74.739997980000       4.040002020000      50.441372000000
       202    1       74.739997980000       4.040002020000      52.161434000000
       203    2       73.730002020000       5.049997980000      49.602700000000
       204    2       73.730002020000       5.049997980000      53.000000000000
       205    1       77.769997980000       4.040002020000      50.441372000000
       206    1       77.769997980000       4.040002020000      52.161434000000
       207    2       76.760002020000       5.049997980000      49.602700000000
       208    2       76.760002020000       5.049997980000      53.000000000000
       209    1       80.799997980000       1.010002020000      50.441372000000
       210    1       80.799997980000       1.010002020000      52.161434000000
       211    2       79.790002020000       2.019997980000      49.602700000000
       212    2       79.790002020000       2.019997980000      53.000000000000
       213    1       83.829997980000       1.010002020000      50.441372000000
       214    1       83.829997980000       1.010002020000      52.161434000000
       215    2       82.820002020000       2.019997980000      49.602700000000
       216    2       82.820002020000       2.019997980000      53.000000000000
       217    1       80.799997980000       4.040002020000      50.441372000000
       218    1       80.799997980000       4.040002020000      52.161434000000
       219    2       79.790002020000       5.049997980000      49.602700000000
       220    2       79.790002020000       5.049997980000      53.000000000000
       221    1       83.829997980000       4.040002020000      50.441372000000
       222    1       83.829997980000       4.040002020000      52.161434000000
       223    2       82.820002020000       5.049997980000      49.602700000000
       224    2       82.820002020000       5.049997980000      53.000000000000
       225    1       86.859997980000       1.010002020000      50.441372000000
       226    1       86.859997980000       1.010002020000      52.161434000000
       227    2       85.850002020000       2.019997980000      49.602700000000
       228    2       85.850002020000       2.019997980000      53.000000000000
       229    1       89.889997980000       1.010002020000      50.441372000000
       230    1       89.889997980000       1.010002020000      52.161434000000
       231    2       88.880002020000       2.019997980000      49.602700000000
       232    2       88.880002020000       2.019997980000      53.000000000000
       233    1       86.859997980000       4.040002020000      50.441372000000
       234    1       86.859997980000       4.040002020000      52.161434000000
       235    2       85.850002020000       5.049997980000      49.602700000000
       236    2       85.850002020000       5.049997980000      53.000000000000
       237    1       89.889997980000       4.040002020000      50.441372000000
       238    1       89.889997980000       4.040002020000      52.161434000000
       239    2       88.880002020000       5.049997980000      49.602700000000
       240    2       88.880002020000       5.049997980000      53.000000000000
       241    1       92.919997980000       1.010002020000      50.441372000000
       242    1       92.919997980000       1.010002020000      52.161434000000
       243    2       91.910002020000       2.019997980000      49.602700000000
       244    2       91.910002020000       2.019997980000      53.000000000000
       245    1       95.949997980000       1.010002020000      50.441372000000
       246    1       95.949997980000       1.010002020000      52.161434000000
       247    2       94.940002020000       2.019997980000      49.602700000000
       248    2       94.940002020000       2.019997980000      53.000000000000
       249    1       92.919997980000       4.040002020000      50.441372000000
       250    1       92.919997980000       4.040002020000      52.161434000000
       251    2       91.910002020000       5.049997980000      49.602700000000
       252    2       91.910002020000       5.049997980000      53.000000000000
       253    1       95.949997980000       4.040002020000      50.441372000000
       254    1       95.949997980000       4.040002020000      52.161434000000
       255    2       94.940002020000       5.049997980000      49.602700000000
       256    2       94.940002020000       5.049997980000      53.000000000000
       257    1       98.979997980000       1.010002020000      50.441372000000
       258    1       98.979997980000       1.010002020000      52.161434000000
       259    2       97.970002020000       2.019997980000      49.602700000000
       260    2       97.970002020000       2.019997980000      53.000000000000
       261    1      102.009997980000       1.010002020000      50.441372000000
       262    1      102.009997980000       1.010002020000      52.161434000000
       263    2      101.000002020000       2.019997980000      49.602700000000
       264    2      101.000002020000       2.019997980000      53.000000000000
       265    1       98.979997980000       4.040002020000      50.441372000000
       266    1       98.979997980000       4.040002020000      52.161434000000
       267    2       97.970002020000       5.049997980000      49.602700000000
       268    2       97.970002020000       5.049997980000      53.000000000000
       269    1      102.009997980000       4.040002020000      50.441372000000
       270    1      102.009997980000       4.040002020000      52.161434000000
       271    2      101.000002020000       5.049997980000      49.602700000000
       272    2      101.000002020000       5.049997980000      53.000000000000
       273    1        2.019997980000       7.070002020000      50.441372000000
       274    1        2.019997980000       7.070002020000      52.161434000000
       275    2        1.010002020000       8.079997980000      49.602700000000
       276    2        1.010002020000       8.079997980000      53.000000000000
       277    1        5.049997980000       7.070002020000      50.441372000000
       278    1        5.049997980000       7.070002020000      52.161434000000
       279    2        4.040002020000       8.079997980000      49.602700000000
       280    2        4.040002020000       8.079997980000      53.000000000000
       281    1        2.019997980000      10.100002020000      50.441372000000
       282    1        2.019997980000      10.100002020000      52.161434000000
       283    2        1.010002020000      11.109997980000      49.602700000000
       284    2        1.010002020000      11.109997980000      53.000000000000
       285    1        5.049997980000      10.100002020000      50.441372000000
       286    1        5.049997980000      10.100002020000      52.161434000000
       287    2        4.040002020000      11.109997980000      49.602700000000
       288    2        4.040002020000      11.109997980000      53.000000000000
       289    1        8.079997980000       7.070002020000      50.441372000000
       290    1        8.079997980000       7.070002020000      52.161434000000
       291    2        7.070002020000       8.079997980000      49.602700000000
       292    2        7.070002020000       8.079997980000      53.000000000000
       293    1       11.109997980000       7.070002020000      50.441372000000
       294    1       11.109997980000       7.070002020000      52.161434000000
       295    2       10.100002020000       8.079997980000      49.602700000000
       296    2       10.100002020000       8.079997980000      53.000000000000
       297    1        8.079997980000      10.100002020000      50.441372000000
       298    1        8.079997980000      10.100002020000      52.161434000000
       299    2        7.070002020000      11.109997980000      49.602700000000
       300    2        7.070002020000      11.109997980000      53.000000000000
       301    1       11.109997980000      10.100002020000      50.441372000000
       302    1       11.109997980000      10.100002020000      52.161434000000
       303    2       10.100002020000      11.109997980000      49.602700000000
       304    2       10.100002020000      11.109997980000      53.000000000000
       305    1       14.139997980000       7.070002020000      50.441372000000
       306    1       14.139997980000       7.070002020000      52.161434000000
       307    2       13.130002020000       8.079997980000      49.602700000000
       308    2       13.130002020000       8.079997980000      53.000000000000
       309    1       17.169997980000       7.070002020000      50.441372000000
       310    1       17.169997980000       7.070002020000      52.161434000000
       311    2       16.160002020000       8.079997980000      49.602700000000
       312    2       16.160002020000       8.079997980000      53.000000000000
       313    1       14.139997980000      10.100002020000      50.441372000000
       314    1       14.139997980000      10.100002020000      52.161434000000
       315    2       13.130002020000      11.109997980000      49.602700000000
       316    2       13.130002020000      11.109997980000      53.000000000000
       317    1       17.169997980000      10.100002020000      50.441372000000
       318    1       17.169997980000      10.100002020000      52.161434000000
       319    2       16.160002020000      11.109997980000      49.602700000000
       320    2       16.160002020000      11.109997980000      53.000000000000
       321    1       20.199997980000       7.070002020000      50.441372000000
       322    1       20.199997980000       7.070002020000      52.161434000000
       323    2       19.190002020000       8.079997980000      49.602700000000
       324    2       19.190002020000       8.079997980000      53.000000000000
       325    1       23.229997980000       7.070002020000      50.441372000000
       326    1       23.229997980000       7.070002020000      52.161434000000
       327    2       22.220002020000       8.079997980000      49.602700000000
       328    2       22.220002020000       8.079997980000      53.000000000000
       329    1       20.199997980000      10.100002020000      50.441372000000
       330    1       20.199997980000      10.100002020000      52.161434000000
       331    2       19.190002020000      11.109997980000      49.602700000000
       332    2       19.190002020000      11.109997980000      53.000000000000
       333    1       23.229997980000      10.100002020000      50.441372000000
       334    1       23.229997980000      10.100002020000      52.161434000000
       335    2       22.220002020000      11.109997980000      49.602700000000
       336    2       22.220002020000      11.109997980000      53.000000000000
       337    1       26.259997980000       7.070002020000      50.441372000000
       338    1       26.259997980000       7.070002020000      52.161434000000
       339    2       25.250002020000       8.079997980000      49.602700000000
       340    2       25.250002020000       8.079997980000      53.000000000000
       341    1       29.289997980000       7.070002020000      50.441372000000
       342    1       29.289997980000       7.070002020000      52.161434000000
       343    2       28.280002020000       8.079997980000      49.602700000000
       344    2       28.280002020000       8.079997980000      53.000000000000
       345    1       26.259997980000      10.100002020000      50.441372000000
       346    1       26.259997980000      10.100002020000      52.161434000000
       347    2       25.250002020000      11.109997980000      49.602700000000
       348    2       25.250002020000      11.109997980000      53.000000000000
       349    1       29.289997980000      10.100002020000      50.441372000000
       350    1       29.289997980000      10.100002020000      52.161434000000
       351    2       28.280002020000      11.109997980000      49.602700000000
       352    2       28.280002020000      11.109997980000      53.000000000000
       353    1       32.319997980000       7.070002020000      50.441372000000
       354    1       32.319997980000       7.070002020000      52.161434000000
       355    2       31.310002020000       8.079997980000      49.602700000000
       356    2       31.310002020000       8.079997980000      53.000000000000
       357    1       35.349997980000       7.070002020000      50.441372000000
       358    1       35.349997980000       7.070002020000      52.161434000000
       359    2       34.340002020000       8.079997980000      49.602700000000
       360    2       34.340002020000       8.079997980000      53.000000000000
       361    1       32.319997980000      10.100002020000      50.441372000000
       362    1       32.319997980000      10.100002020000      52.161434000000
       363    2       31.310002020000      11.109997980000      49.602700000000
       364    2       31.310002020000      11.109997980000      53.000000000000
       365    1       35.349997980000      10.100002020000      50.441372000000
       366    1       35.349997980000      10.100002020000      52.161434000000
       367    2       34.340002020000      11.109997980000      49.602700000000
       368    2       34.340002020000      11.109997980000      53.000000000000
       369    1       38.379997980000       7.070002020000      50.441372000000
       370    1       38.379997980000       7.070002020000      52.161434000000