 # Ga16 O16
  
        4608  atoms
           2  atom types
 
      0.000000000000     100.350400000000  xlo xhi
      0.000000000000      97.767000000000  ylo yhi
      0.000000000000      20.807300000000  zlo zhi
 
Masses
 
            1   69.72300000             # Ga
            2   15.99900000             # O
 
Atoms # atomic
 
         1    1        6.271818465300       1.810525347000      11.661555321500
         2    1        3.135749299200       7.242025347000      11.661555321500
         3    2        4.703868552900       2.715750000000      12.410826194500
         4    1        3.135950000000       1.810481895000       9.145744678500
         5    2        6.271780833900       5.431500000000      12.410826194500
         6    2        1.567793114900       8.147250000000      12.410826194500
         7    1        6.271780833900       7.241981895000       9.145744678500
         8    2        3.135711667800       0.000000000000      12.410826194500
         9    1        3.135868465300       1.810525347000      11.661555321500
        10    1        6.271699299200       7.242025347000      11.661555321500
        11    2        3.135868465300       3.620996379000       8.396473805500
        12    2        6.271699299200       9.052496379000       8.396473805500
        13    2        1.567956184300       0.905246379000       8.396473805500
        14    2        4.703787018200       6.336746379000       8.396473805500
        15    1        6.271900000000       1.810481895000       9.145744678500
        16    1        3.135830833900       7.241981895000       9.145744678500
        17    1        4.703868552900       4.526231895000       9.145744678500
        18    1        1.567793114900       9.957731895000       9.145744678500
        19    2        6.271818465300       3.620996379000       8.396473805500
        20    2        3.135749299200       9.052496379000       8.396473805500
        21    2        1.567918552900       2.715750000000      12.410826194500
        22    1        1.567918552900       4.526231895000       9.145744678500
        23    2        4.703743114900       8.147250000000      12.410826194500
        24    1        4.703743114900       9.957731895000       9.145744678500
        25    2        3.135830833900       5.431500000000      12.410826194500
        26    2        6.271661667800       0.000000000000      12.410826194500
        27    1        1.567837018200       4.526275347000      11.661555321500
        28    1        4.703661580200       9.957775347000      11.661555321500
        29    2        4.703906184300       0.905246379000       8.396473805500
        30    2        1.567837018200       6.336746379000       8.396473805500
        31    1        4.703787018200       4.526275347000      11.661555321500
        32    1        1.567711580200       9.957775347000      11.661555321500
        33    1       12.543718465300       1.810525347000      11.661555321500
        34    1        9.407649299200       7.242025347000      11.661555321500
        35    2       10.975768552900       2.715750000000      12.410826194500
        36    1        9.407850000000       1.810481895000       9.145744678500
        37    2       12.543680833900       5.431500000000      12.410826194500
        38    2        7.839693114900       8.147250000000      12.410826194500
        39    1       12.543680833900       7.241981895000       9.145744678500
        40    2        9.407611667800       0.000000000000      12.410826194500
        41    1        9.407768465300       1.810525347000      11.661555321500
        42    1       12.543599299200       7.242025347000      11.661555321500
        43    2        9.407768465300       3.620996379000       8.396473805500
        44    2       12.543599299200       9.052496379000       8.396473805500
        45    2        7.839856184300       0.905246379000       8.396473805500
        46    2       10.975687018200       6.336746379000       8.396473805500
        47    1       12.543800000000       1.810481895000       9.145744678500
        48    1        9.407730833900       7.241981895000       9.145744678500
        49    1       10.975768552900       4.526231895000       9.145744678500
        50    1        7.839693114900       9.957731895000       9.145744678500
        51    2       12.543718465300       3.620996379000       8.396473805500
        52    2        9.407649299200       9.052496379000       8.396473805500
        53    2        7.839818552900       2.715750000000      12.410826194500
        54    1        7.839818552900       4.526231895000       9.145744678500
        55    2       10.975643114900       8.147250000000      12.410826194500
        56    1       10.975643114900       9.957731895000       9.145744678500
        57    2        9.407730833900       5.431500000000      12.410826194500
        58    2       12.543561667800       0.000000000000      12.410826194500
        59    1        7.839737018200       4.526275347000      11.661555321500
        60    1       10.975561580200       9.957775347000      11.661555321500
        61    2       10.975806184300       0.905246379000       8.396473805500
        62    2        7.839737018200       6.336746379000       8.396473805500
        63    1       10.975687018200       4.526275347000      11.661555321500
        64    1        7.839611580200       9.957775347000      11.661555321500
        65    1       18.815618465300       1.810525347000      11.661555321500
        66    1       15.679549299200       7.242025347000      11.661555321500
        67    2       17.247668552900       2.715750000000      12.410826194500
        68    1       15.679750000000       1.810481895000       9.145744678500
        69    2       18.815580833900       5.431500000000      12.410826194500
        70    2       14.111593114900       8.147250000000      12.410826194500
        71    1       18.815580833900       7.241981895000       9.145744678500
        72    2       15.679511667800       0.000000000000      12.410826194500
        73    1       15.679668465300       1.810525347000      11.661555321500
        74    1       18.815499299200       7.242025347000      11.661555321500
        75    2       15.679668465300       3.620996379000       8.396473805500
        76    2       18.815499299200       9.052496379000       8.396473805500
        77    2       14.111756184300       0.905246379000       8.396473805500
        78    2       17.247587018200       6.336746379000       8.396473805500
        79    1       18.815700000000       1.810481895000       9.145744678500
        80    1       15.679630833900       7.241981895000       9.145744678500
        81    1       17.247668552900       4.526231895000       9.145744678500
        82    1       14.111593114900       9.957731895000       9.145744678500
        83    2       18.815618465300       3.620996379000       8.396473805500
        84    2       15.679549299200       9.052496379000       8.396473805500
        85    2       14.111718552900       2.715750000000      12.410826194500
        86    1       14.111718552900       4.526231895000       9.145744678500
        87    2       17.247543114900       8.147250000000      12.410826194500
        88    1       17.247543114900       9.957731895000       9.145744678500
        89    2       15.679630833900       5.431500000000      12.410826194500
        90    2       18.815461667800       0.000000000000      12.410826194500
        91    1       14.111637018200       4.526275347000      11.661555321500
        92    1       17.247461580200       9.957775347000      11.661555321500
        93    2       17.247706184300       0.905246379000       8.396473805500
        94    2       14.111637018200       6.336746379000       8.396473805500
        95    1       17.247587018200       4.526275347000      11.661555321500
        96    1       14.111511580200       9.957775347000      11.661555321500
        97    1       25.087518465300       1.810525347000      11.661555321500
        98    1       21.951449299200       7.242025347000      11.661555321500
        99    2       23.519568552900       2.715750000000      12.410826194500
       100    1       21.951650000000       1.810481895000       9.145744678500
       101    2       25.087480833900       5.431500000000      12.410826194500
       102    2       20.383493114900       8.147250000000      12.410826194500
       103    1       25.087480833900       7.241981895000       9.145744678500
       104    2       21.951411667800       0.000000000000      12.410826194500
       105    1       21.951568465300       1.810525347000      11.661555321500
       106    1       25.087399299200       7.242025347000      11.661555321500
       107    2       21.951568465300       3.620996379000       8.396473805500
       108    2       25.087399299200       9.052496379000       8.396473805500
       109    2       20.383656184300       0.905246379000       8.396473805500
       110    2       23.519487018200       6.336746379000       8.396473805500
       111    1       25.087600000000       1.810481895000       9.145744678500
       112    1       21.951530833900       7.241981895000       9.145744678500
       113    1       23.519568552900       4.526231895000       9.145744678500
       114    1       20.383493114900       9.957731895000       9.145744678500
       115    2       25.087518465300       3.620996379000       8.396473805500
       116    2       21.951449299200       9.052496379000       8.396473805500
       117    2       20.383618552900       2.715750000000      12.410826194500
       118    1       20.383618552900       4.526231895000       9.145744678500
       119    2       23.519443114900       8.147250000000      12.410826194500
       120    1       23.519443114900       9.957731895000       9.145744678500
       121    2       21.951530833900       5.431500000000      12.410826194500
       122    2       25.087361667800       0.000000000000      12.410826194500
       123    1       20.383537018200       4.526275347000      11.661555321500
       124    1       23.519361580200       9.957775347000      11.661555321500
       125    2       23.519606184300       0.905246379000       8.396473805500
       126    2       20.383537018200       6.336746379000       8.396473805500
       127    1       23.519487018200       4.526275347000      11.661555321500
       128    1       20.383411580200       9.957775347000      11.661555321500
       129    1       31.359418465300       1.810525347000      11.661555321500
       130    1       28.223349299200       7.242025347000      11.661555321500
       131    2       29.791468552900       2.715750000000      12.410826194500
       132    1       28.223550000000       1.810481895000       9.145744678500
       133    2       31.359380833900       5.431500000000      12.410826194500
       134    2       26.655393114900       8.147250000000      12.410826194500
       135    1       31.359380833900       7.241981895000       9.145744678500
       136    2       28.223311667800       0.000000000000      12.410826194500
       137    1       28.223468465300       1.810525347000      11.661555321500
       138    1       31.359299299200       7.242025347000      11.661555321500
       139    2       28.223468465300       3.620996379000       8.396473805500
       140    2       31.359299299200       9.052496379000       8.396473805500
       141    2       26.655556184300       0.905246379000       8.396473805500
       142    2       29.791387018200       6.336746379000       8.396473805500
       143    1       31.359500000000       1.810481895000       9.145744678500
       144    1       28.223430833900       7.241981895000       9.145744678500
       145    1       29.791468552900       4.526231895000       9.145744678500
       146    1       26.655393114900       9.957731895000       9.145744678500
       147    2       31.359418465300       3.620996379000       8.396473805500
       148    2       28.223349299200       9.052496379000       8.396473805500
       149    2       26.655518552900       2.715750000000      12.410826194500
       150    1       26.655518552900       4.526231895000       9.145744678500
       151    2       29.791343114900       8.147250000000      12.410826194500
       152    1       29.791343114900       9.957731895000       9.145744678500
       153    2       28.223430833900       5.431500000000      12.410826194500
       154    2       31.359261667800       0.000000000000      12.410826194500
       155    1       26.655437018200       4.526275347000      11.661555321500
       156    1       29.791261580200       9.957775347000      11.661555321500
       157    2       29.791506184300       0.905246379000       8.396473805500
       158    2       26.655437018200       6.336746379000       8.396473805500
       159    1       29.791387018200       4.526275347000      11.661555321500
       160    1       26.655311580200       9.957775347000      11.661555321500
       161    1       37.631318465300       1.810525347000      11.661555321500
       162    1       34.495249299200       7.242025347000      11.661555321500
       163    2       36.063368552900       2.715750000000      12.410826194500
       164    1       34.495450000000       1.810481895000       9.145744678500
       165    2       37.631280833900       5.431500000000      12.410826194500
       166    2       32.927293114900       8.147250000000      12.410826194500
       167    1       37.631280833900       7.241981895000       9.145744678500
       168    2       34.495211667800       0.000000000000      12.410826194500
       169    1       34.495368465300       1.810525347000      11.661555321500
       170    1       37.631199299200       7.242025347000      11.661555321500
       171    2       34.495368465300       3.620996379000       8.396473805500
       172    2       37.631199299200       9.052496379000       8.396473805500
       173    2       32.927456184300       0.905246379000       8.396473805500
       174    2       36.063287018200       6.336746379000       8.396473805500
       175    1       37.631400000000       1.810481895000       9.145744678500
       176    1       34.495330833900       7.241981895000       9.145744678500
       177    1       36.063368552900       4.526231895000       9.145744678500
       178    1       32.927293114900       9.957731895000       9.145744678500
       179    2       37.631318465300       3.620996379000       8.396473805500
       180    2       34.495249299200       9.052496379000       8.396473805500
       181    2       32.927418552900       2.715750000000      12.410826194500
       182    1       32.927418552900       4.526231895000       9.145744678500
       183    2       36.063243114900       8.147250000000      12.410826194500
       184    1       36.063243114900       9.957731895000       9.145744678500
       185    2       34.495330833900       5.431500000000      12.410826194500
       186    2       37.631161667800       0.000000000000      12.410826194500
       187    1       32.927337018200       4.526275347000      11.661555321500
       188    1       36.063161580200       9.957775347000      11.661555321500
       189    2       36.063406184300       0.905246379000       8.396473805500
       190    2       32.927337018200       6.336746379000       8.396473805500
       191    1       36.063287018200       4.526275347000      11.661555321500
       192    1       32.927211580200       9.957775347000      11.661555321500
       193    1       43.903218465300       1.810525347000      11.661555321500
       194    1       40.767149299200       7.242025347000      11.661555321500
       195    2       42.335268552900       2.715750000000      12.410826194500
       196    1       40.767350000000       1.810481895000       9.145744678500
       197    2       43.903180833900       5.431500000000      12.410826194500
       198    2       39.199193114900       8.147250000000      12.410826194500
       199    1       43.903180833900       7.241981895000       9.145744678500
       200    2       40.767111667800       0.000000000000      12.410826194500
       201    1       40.767268465300       1.810525347000      11.661555321500
       202    1       43.903099299200       7.242025347000      11.661555321500
       203    2       40.767268465300       3.620996379000       8.396473805500
       204    2       43.903099299200       9.052496379000       8.396473805500
       205    2       39.199356184300       0.905246379000       8.396473805500
       206    2       42.335187018200       6.336746379000       8.396473805500
       207    1       43.903300000000       1.810481895000       9.145744678500
       208    1       40.767230833900       7.241981895000       9.145744678500
       209    1       42.335268552900       4.526231895000       9.145744678500
       210    1       39.199193114900       9.957731895000       9.145744678500
       211    2       43.903218465300       3.620996379000       8.396473805500
       212    2       40.767149299200       9.052496379000       8.396473805500
       213    2       39.199318552900       2.715750000000      12.410826194500
       214    1       39.199318552900       4.526231895000       9.145744678500
       215    2       42.335143114900       8.147250000000      12.410826194500
       216    1       42.335143114900       9.957731895000       9.145744678500
       217    2       40.767230833900       5.431500000000      12.410826194500
       218    2       43.903061667800       0.000000000000      12.410826194500
       219    1       39.199237018200       4.526275347000      11.661555321500
       220    1       42.335061580200       9.957775347000      11.661555321500
       221    2       42.335306184300       0.905246379000       8.396473805500
       222    2       39.199237018200       6.336746379000       8.396473805500
       223    1       42.335187018200       4.526275347000      11.661555321500
       224    1       39.199111580200       9.957775347000      11.661555321500
       225    1       50.175118465300       1.810525347000      11.661555321500
       226    1       47.039049299200       7.242025347000      11.661555321500
       227    2       48.607168552900       2.715750000000      12.410826194500
       228    1       47.039250000000       1.810481895000       9.145744678500
       229    2       50.175080833900       5.431500000000      12.410826194500
       230    2       45.471093114900       8.147250000000      12.410826194500
       231    1       50.175080833900       7.241981895000       9.145744678500
       232    2       47.039011667800       0.000000000000      12.410826194500
       233    1       47.039168465300       1.810525347000      11.661555321500
       234    1       50.174999299200       7.242025347000      11.661555321500
       235    2       47.039168465300       3.620996379000       8.396473805500
       236    2       50.174999299200       9.052496379000       8.396473805500
       237    2       45.471256184300       0.905246379000       8.396473805500
       238    2       48.607087018200       6.336746379000       8.396473805500
       239    1       50.175200000000       1.810481895000       9.145744678500
       240    1       47.039130833900       7.241981895000       9.145744678500
       241    1       48.607168552900       4.526231895000       9.145744678500
       242    1       45.471093114900       9.957731895000       9.145744678500
       243    2       50.175118465300       3.620996379000       8.396473805500
       244    2       47.039049299200       9.052496379000       8.396473805500
       245    2       45.471218552900       2.715750000000      12.410826194500
       246    1       45.471218552900       4.526231895000       9.145744678500
       247    2       48.607043114900       8.147250000000      12.410826194500
       248    1       48.607043114900       9.957731895000       9.145744678500
       249    2       47.039130833900       5.431500000000      12.410826194500
       250    2       50.174961667800       0.000000000000      12.410826194500
       251    1       45.471137018200       4.526275347000      11.661555321500
       252    1       48.606961580200       9.957775347000      11.661555321500
       253    2       48.607206184300       0.905246379000       8.396473805500
       254    2       45.471137018200       6.336746379000       8.396473805500
       255    1       48.607087018200       4.526275347000      11.661555321500
       256    1       45.471011580200       9.957775347000      11.661555321500
       257    1       56.447018465300       1.810525347000      11.661555321500
       258    1       53.310949299200       7.242025347000      11.661555321500
       259    2       54.879068552900       2.715750000000      12.410826194500
       260    1       53.311150000000       1.810481895000       9.145744678500
       261    2       56.446980833900       5.431500000000      12.410826194500
       262    2       51.742993114900       8.147250000000      12.410826194500
       263    1       56.446980833900       7.241981895000       9.145744678500
       264    2       53.310911667800       0.000000000000      12.410826194500
       265    1       53.311068465300       1.810525347000      11.661555321500
       266    1       56.446899299200       7.242025347000      11.661555321500
       267    2       53.311068465300       3.620996379000       8.396473805500
       268    2       56.446899299200       9.052496379000       8.396473805500
       269    2       51.743156184300       0.905246379000       8.396473805500
       270    2       54.878987018200       6.336746379000       8.396473805500
       271    1       56.447100000000       1.810481895000       9.145744678500
       272    1       53.311030833900       7.241981895000       9.145744678500
       273    1       54.879068552900       4.526231895000       9.145744678500
       274    1       51.742993114900       9.957731895000       9.145744678500
       275    2       56.447018465300       3.620996379000       8.396473805500
       276    2       53.310949299200       9.052496379000       8.396473805500
       277    2       51.743118552900       2.715750000000      12.410826194500
       278    1       51.743118552900       4.526231895000       9.145744678500
       279    2       54.878943114900       8.147250000000      12.410826194500
       280    1       54.878943114900       9.957731895000       9.145744678500
       281    2       53.311030833900       5.431500000000      12.410826194500
       282    2       56.446861667800       0.000000000000      12.410826194500
       283    1       51.743037018200       4.526275347000      11.661555321500
       284    1       54.878861580200       9.957775347000      11.661555321500
       285    2       54.879106184300       0.905246379000       8.396473805500
       286    2       51.743037018200       6.336746379000       8.396473805500
       287    1       54.878987018200       4.526275347000      11.661555321500
       288    1       51.742911580200       9.957775347000      11.661555321500
       289    1       62.718918465300       1.810525347000      11.661555321500
       290    1       59.582849299200       7.242025347000      11.661555321500
       291    2       61.150968552900       2.715750000000      12.410826194500
       292    1       59.583050000000       1.810481895000       9.145744678500
       293    2       62.718880833900       5.431500000000      12.410826194500
       294    2       58.014893114900       8.147250000000      12.410826194500
       295    1       62.718880833900       7.241981895000       9.145744678500
       296    2       59.582811667800       0.000000000000      12.410826194500
       297    1       59.582968465300       1.810525347000      11.661555321500
       298    1       62.718799299200       7.242025347000      11.661555321500
       299    2       59.582968465300       3.620996379000       8.396473805500
       300    2       62.718799299200       9.052496379000       8.396473805500
       301    2       58.015056184300       0.905246379000       8.396473805500
       302    2       61.150887018200       6.336746379000       8.396473805500
       303    1       62.719000000000       1.810481895000       9.145744678500
       304    1       59.582930833900       7.241981895000       9.145744678500
       305    1       61.150968552900       4.526231895000       9.145744678500
       306    1       58.014893114900       9.957731895000       9.145744678500
       307    2       62.718918465300       3.620996379000       8.396473805500
       308    2       59.582849299200       9.052496379000       8.396473805500
       309    2       58.015018552900       2.715750000000      12.410826194500
       310    1       58.015018552900       4.526231895000       9.145744678500
       311    2       61.150843114900       8.147250000000      12.410826194500
       312    1       61.150843114900       9.957731895000       9.145744678500
       313    2       59.582930833900       5.431500000000      12.410826194500
       314    2       62.718761667800       0.000000000000      12.410826194500
       315    1       58.014937018200       4.526275347000      11.661555321500
       316    1       61.150761580200       9.957775347000      11.661555321500
       317    2       61.151006184300       0.905246379000       8.396473805500
       318    2       58.014937018200       6.336746379000       8.396473805500
       319    1       61.150887018200       4.526275347000      11.661555321500
       320    1       58.014811580200       9.957775347000      11.661555321500
       321    1       68.990818465300       1.810525347000      11.661555321500
       322    1       65.854749299200       7.242025347000      11.661555321500
       323    2       67.422868552900       2.715750000000      12.410826194500
       324    1       65.854950000000       1.810481895000       9.145744678500
       325    2       68.990780833900       5.431500000000      12.410826194500
       326    2       64.286793114900       8.147250000000      12.410826194500
       327    1       68.990780833900       7.241981895000       9.145744678500
       328    2       65.854711667800       0.000000000000      12.410826194500
       329    1       65.854868465300       1.810525347000      11.661555321500
       330    1       68.990699299200       7.242025347000      11.661555321500
       331    2       65.854868465300       3.620996379000       8.396473805500
       332    2       68.990699299200       9.052496379000       8.396473805500
       333    2       64.286956184300       0.905246379000       8.396473805500
       334    2       67.422787018200       6.336746379000       8.396473805500
       335    1       68.990900000000       1.810481895000       9.145744678500
       336    1       65.854830833900       7.241981895000       9.145744678500
       337    1       67.422868552900       4.526231895000       9.145744678500
       338    1       64.286793114900       9.957731895000       9.145744678500
       339    2       68.990818465300       3.620996379000       8.396473805500
       340    2       65.854749299200       9.052496379000       8.396473805500
       341    2       64.286918552900       2.715750000000      12.410826194500
       342    1       64.286918552900       4.526231895000       9.145744678500
       343    2       67.422743114900       8.147250000000      12.410826194500
       344    1       67.422743114900       9.957731895000       9.145744678500
       345    2       65.854830833900       5.431500000000      12.410826194500
       346    2       68.990661667800       0.000000000000      12.410826194500
       347    1       64.286837018200       4.526275347000      11.661555321500
       348    1       67.422661580200       9.957775347000      11.661555321500
       349    2       67.422906184300       0.905246379000       8.396473805500
       350    2       64.286837018200       6.336746379000       8.396473805500
       351    1       67.422787018200       4.526275347000      11.661555321500
       352    1       64.286711580200       9.957775347000      11.661555321500
       353    1       75.262718465300       1.810525347000      11.661555321500
       354    1       72.126649299200       7.242025347000      11.661555321500
       355    2       73.694768552900       2.715750000000      12.410826194500
       356    1       72.126850000000       1.810481895000       9.145744678500
       357    2       75.262680833900       5.431500000000      12.410826194500
       358    2       70.558693114900       8.147250000000      12.410826194500
       359    1       75.262680833900       7.241981895000       9.145744678500
       360    2       72.126611667800       0.000000000000      12.410826194500
       361    1       72.126768465300       1.810525347000      11.661555321500
       362    1       75.262599299200       7.242025347000      11.661555321500
       363    2       72.126768465300       3.620996379000       8.396473805500
       364    2       75.262599299200       9.052496379000       8.396473805500
       365    2       70.558856184300       0.905246379000       8.396473805500
       366    2       73.694687018200       6.336746379000       8.396473805500
       367    1       75.262800000000       1.810481895000       9.145744678500
       368    1       72.126730833900       7.241981895000       9.145744678500
       369    1       73.694768552900       4.526231895000       9.145744678500
       370    1       70.558693114900       9.957731895000       9.145744678500