 # Ga16 S16
  
        3584  atoms
           2  atom types
 
      0.000000000000     102.365200000000  xlo xhi
      0.000000000000     101.316000000000  ylo yhi
      0.000000000000      20.807300000000  zlo zhi
 
Masses
 
            1   69.72300000             # Ga
            2   32.06000000             # S
 
Atoms # atomic
 
         1    1        0.000065806200       2.110703563500      11.640498333900
         2    1        3.655965806200       8.442953563500      11.640498333900
         3    1        5.483784193800       5.276917215000       9.166801666100
         4    2        5.483725699400       3.166200987000      12.729094655300
         5    1        1.827884193800      11.609167215000       9.166801666100
         6    2        1.827825699400       9.498450987000      12.729094655300
         7    2        1.827825699400       3.166200987000      12.729094655300
         8    1        7.311734193800       2.110792215000       9.166801666100
         9    1        3.655834193800       8.443042215000       9.166801666100
        10    2        5.483725699400       9.498450987000      12.729094655300
        11    2        3.655775699400       0.000075987000      12.729094655300
        12    2        7.311675699400       6.332325987000      12.729094655300
        13    2        5.483974300600       1.055307456000       8.078205344700
        14    2        1.828074300600       7.387557456000       8.078205344700
        15    2        0.000124300600       4.221432456000       8.078205344700
        16    2        1.828074300600       1.055307456000       8.078205344700
        17    1        1.827884193800       5.276917215000       9.166801666100
        18    2        3.656024300600      10.553682456000       8.078205344700
        19    2        5.483974300600       7.387557456000       8.078205344700
        20    1        5.483784193800      11.609167215000       9.166801666100
        21    1        5.483915806200       5.276828563500      11.640498333900
        22    1        1.828015806200      11.609078563500      11.640498333900
        23    1        1.828015806200       5.276828563500      11.640498333900
        24    1        5.483915806200      11.609078563500      11.640498333900
        25    1        3.655834193800       2.110792215000       9.166801666100
        26    1        3.655965806200       2.110703563500      11.640498333900
        27    2        3.656024300600       4.221432456000       8.078205344700
        28    1        7.311734193800       8.443042215000       9.166801666100
        29    1        0.000065806200       8.442953563500      11.640498333900
        30    2        0.000124300600      10.553682456000       8.078205344700
        31    2        7.311675699400       0.000075987000      12.729094655300
        32    2        3.655775699400       6.332325987000      12.729094655300
        33    1        7.311865806200       2.110703563500      11.640498333900
        34    1       10.967765806200       8.442953563500      11.640498333900
        35    1       12.795584193800       5.276917215000       9.166801666100
        36    2       12.795525699400       3.166200987000      12.729094655300
        37    1        9.139684193800      11.609167215000       9.166801666100
        38    2        9.139625699400       9.498450987000      12.729094655300
        39    2        9.139625699400       3.166200987000      12.729094655300
        40    1       14.623534193800       2.110792215000       9.166801666100
        41    1       10.967634193800       8.443042215000       9.166801666100
        42    2       12.795525699400       9.498450987000      12.729094655300
        43    2       10.967575699400       0.000075987000      12.729094655300
        44    2       14.623475699400       6.332325987000      12.729094655300
        45    2       12.795774300600       1.055307456000       8.078205344700
        46    2        9.139874300600       7.387557456000       8.078205344700
        47    2        7.311924300600       4.221432456000       8.078205344700
        48    2        9.139874300600       1.055307456000       8.078205344700
        49    1        9.139684193800       5.276917215000       9.166801666100
        50    2       10.967824300600      10.553682456000       8.078205344700
        51    2       12.795774300600       7.387557456000       8.078205344700
        52    1       12.795584193800      11.609167215000       9.166801666100
        53    1       12.795715806200       5.276828563500      11.640498333900
        54    1        9.139815806200      11.609078563500      11.640498333900
        55    1        9.139815806200       5.276828563500      11.640498333900
        56    1       12.795715806200      11.609078563500      11.640498333900
        57    1       10.967634193800       2.110792215000       9.166801666100
        58    1       10.967765806200       2.110703563500      11.640498333900
        59    2       10.967824300600       4.221432456000       8.078205344700
        60    1       14.623534193800       8.443042215000       9.166801666100
        61    1        7.311865806200       8.442953563500      11.640498333900
        62    2        7.311924300600      10.553682456000       8.078205344700
        63    2       14.623475699400       0.000075987000      12.729094655300
        64    2       10.967575699400       6.332325987000      12.729094655300
        65    1       14.623665806200       2.110703563500      11.640498333900
        66    1       18.279565806200       8.442953563500      11.640498333900
        67    1       20.107384193800       5.276917215000       9.166801666100
        68    2       20.107325699400       3.166200987000      12.729094655300
        69    1       16.451484193800      11.609167215000       9.166801666100
        70    2       16.451425699400       9.498450987000      12.729094655300
        71    2       16.451425699400       3.166200987000      12.729094655300
        72    1       21.935334193800       2.110792215000       9.166801666100
        73    1       18.279434193800       8.443042215000       9.166801666100
        74    2       20.107325699400       9.498450987000      12.729094655300
        75    2       18.279375699400       0.000075987000      12.729094655300
        76    2       21.935275699400       6.332325987000      12.729094655300
        77    2       20.107574300600       1.055307456000       8.078205344700
        78    2       16.451674300600       7.387557456000       8.078205344700
        79    2       14.623724300600       4.221432456000       8.078205344700
        80    2       16.451674300600       1.055307456000       8.078205344700
        81    1       16.451484193800       5.276917215000       9.166801666100
        82    2       18.279624300600      10.553682456000       8.078205344700
        83    2       20.107574300600       7.387557456000       8.078205344700
        84    1       20.107384193800      11.609167215000       9.166801666100
        85    1       20.107515806200       5.276828563500      11.640498333900
        86    1       16.451615806200      11.609078563500      11.640498333900
        87    1       16.451615806200       5.276828563500      11.640498333900
        88    1       20.107515806200      11.609078563500      11.640498333900
        89    1       18.279434193800       2.110792215000       9.166801666100
        90    1       18.279565806200       2.110703563500      11.640498333900
        91    2       18.279624300600       4.221432456000       8.078205344700
        92    1       21.935334193800       8.443042215000       9.166801666100
        93    1       14.623665806200       8.442953563500      11.640498333900
        94    2       14.623724300600      10.553682456000       8.078205344700
        95    2       21.935275699400       0.000075987000      12.729094655300
        96    2       18.279375699400       6.332325987000      12.729094655300
        97    1       21.935465806200       2.110703563500      11.640498333900
        98    1       25.591365806200       8.442953563500      11.640498333900
        99    1       27.419184193800       5.276917215000       9.166801666100
       100    2       27.419125699400       3.166200987000      12.729094655300
       101    1       23.763284193800      11.609167215000       9.166801666100
       102    2       23.763225699400       9.498450987000      12.729094655300
       103    2       23.763225699400       3.166200987000      12.729094655300
       104    1       29.247134193800       2.110792215000       9.166801666100
       105    1       25.591234193800       8.443042215000       9.166801666100
       106    2       27.419125699400       9.498450987000      12.729094655300
       107    2       25.591175699400       0.000075987000      12.729094655300
       108    2       29.247075699400       6.332325987000      12.729094655300
       109    2       27.419374300600       1.055307456000       8.078205344700
       110    2       23.763474300600       7.387557456000       8.078205344700
       111    2       21.935524300600       4.221432456000       8.078205344700
       112    2       23.763474300600       1.055307456000       8.078205344700
       113    1       23.763284193800       5.276917215000       9.166801666100
       114    2       25.591424300600      10.553682456000       8.078205344700
       115    2       27.419374300600       7.387557456000       8.078205344700
       116    1       27.419184193800      11.609167215000       9.166801666100
       117    1       27.419315806200       5.276828563500      11.640498333900
       118    1       23.763415806200      11.609078563500      11.640498333900
       119    1       23.763415806200       5.276828563500      11.640498333900
       120    1       27.419315806200      11.609078563500      11.640498333900
       121    1       25.591234193800       2.110792215000       9.166801666100
       122    1       25.591365806200       2.110703563500      11.640498333900
       123    2       25.591424300600       4.221432456000       8.078205344700
       124    1       29.247134193800       8.443042215000       9.166801666100
       125    1       21.935465806200       8.442953563500      11.640498333900
       126    2       21.935524300600      10.553682456000       8.078205344700
       127    2       29.247075699400       0.000075987000      12.729094655300
       128    2       25.591175699400       6.332325987000      12.729094655300
       129    1       29.247265806200       2.110703563500      11.640498333900
       130    1       32.903165806200       8.442953563500      11.640498333900
       131    1       34.730984193800       5.276917215000       9.166801666100
       132    2       34.730925699400       3.166200987000      12.729094655300
       133    1       31.075084193800      11.609167215000       9.166801666100
       134    2       31.075025699400       9.498450987000      12.729094655300
       135    2       31.075025699400       3.166200987000      12.729094655300
       136    1       36.558934193800       2.110792215000       9.166801666100
       137    1       32.903034193800       8.443042215000       9.166801666100
       138    2       34.730925699400       9.498450987000      12.729094655300
       139    2       32.902975699400       0.000075987000      12.729094655300
       140    2       36.558875699400       6.332325987000      12.729094655300
       141    2       34.731174300600       1.055307456000       8.078205344700
       142    2       31.075274300600       7.387557456000       8.078205344700
       143    2       29.247324300600       4.221432456000       8.078205344700
       144    2       31.075274300600       1.055307456000       8.078205344700
       145    1       31.075084193800       5.276917215000       9.166801666100
       146    2       32.903224300600      10.553682456000       8.078205344700
       147    2       34.731174300600       7.387557456000       8.078205344700
       148    1       34.730984193800      11.609167215000       9.166801666100
       149    1       34.731115806200       5.276828563500      11.640498333900
       150    1       31.075215806200      11.609078563500      11.640498333900
       151    1       31.075215806200       5.276828563500      11.640498333900
       152    1       34.731115806200      11.609078563500      11.640498333900
       153    1       32.903034193800       2.110792215000       9.166801666100
       154    1       32.903165806200       2.110703563500      11.640498333900
       155    2       32.903224300600       4.221432456000       8.078205344700
       156    1       36.558934193800       8.443042215000       9.166801666100
       157    1       29.247265806200       8.442953563500      11.640498333900
       158    2       29.247324300600      10.553682456000       8.078205344700
       159    2       36.558875699400       0.000075987000      12.729094655300
       160    2       32.902975699400       6.332325987000      12.729094655300
       161    1       36.559065806200       2.110703563500      11.640498333900
       162    1       40.214965806200       8.442953563500      11.640498333900
       163    1       42.042784193800       5.276917215000       9.166801666100
       164    2       42.042725699400       3.166200987000      12.729094655300
       165    1       38.386884193800      11.609167215000       9.166801666100
       166    2       38.386825699400       9.498450987000      12.729094655300
       167    2       38.386825699400       3.166200987000      12.729094655300
       168    1       43.870734193800       2.110792215000       9.166801666100
       169    1       40.214834193800       8.443042215000       9.166801666100
       170    2       42.042725699400       9.498450987000      12.729094655300
       171    2       40.214775699400       0.000075987000      12.729094655300
       172    2       43.870675699400       6.332325987000      12.729094655300
       173    2       42.042974300600       1.055307456000       8.078205344700
       174    2       38.387074300600       7.387557456000       8.078205344700
       175    2       36.559124300600       4.221432456000       8.078205344700
       176    2       38.387074300600       1.055307456000       8.078205344700
       177    1       38.386884193800       5.276917215000       9.166801666100
       178    2       40.215024300600      10.553682456000       8.078205344700
       179    2       42.042974300600       7.387557456000       8.078205344700
       180    1       42.042784193800      11.609167215000       9.166801666100
       181    1       42.042915806200       5.276828563500      11.640498333900
       182    1       38.387015806200      11.609078563500      11.640498333900
       183    1       38.387015806200       5.276828563500      11.640498333900
       184    1       42.042915806200      11.609078563500      11.640498333900
       185    1       40.214834193800       2.110792215000       9.166801666100
       186    1       40.214965806200       2.110703563500      11.640498333900
       187    2       40.215024300600       4.221432456000       8.078205344700
       188    1       43.870734193800       8.443042215000       9.166801666100
       189    1       36.559065806200       8.442953563500      11.640498333900
       190    2       36.559124300600      10.553682456000       8.078205344700
       191    2       43.870675699400       0.000075987000      12.729094655300
       192    2       40.214775699400       6.332325987000      12.729094655300
       193    1       43.870865806200       2.110703563500      11.640498333900
       194    1       47.526765806200       8.442953563500      11.640498333900
       195    1       49.354584193800       5.276917215000       9.166801666100
       196    2       49.354525699400       3.166200987000      12.729094655300
       197    1       45.698684193800      11.609167215000       9.166801666100
       198    2       45.698625699400       9.498450987000      12.729094655300
       199    2       45.698625699400       3.166200987000      12.729094655300
       200    1       51.182534193800       2.110792215000       9.166801666100
       201    1       47.526634193800       8.443042215000       9.166801666100
       202    2       49.354525699400       9.498450987000      12.729094655300
       203    2       47.526575699400       0.000075987000      12.729094655300
       204    2       51.182475699400       6.332325987000      12.729094655300
       205    2       49.354774300600       1.055307456000       8.078205344700
       206    2       45.698874300600       7.387557456000       8.078205344700
       207    2       43.870924300600       4.221432456000       8.078205344700
       208    2       45.698874300600       1.055307456000       8.078205344700
       209    1       45.698684193800       5.276917215000       9.166801666100
       210    2       47.526824300600      10.553682456000       8.078205344700
       211    2       49.354774300600       7.387557456000       8.078205344700
       212    1       49.354584193800      11.609167215000       9.166801666100
       213    1       49.354715806200       5.276828563500      11.640498333900
       214    1       45.698815806200      11.609078563500      11.640498333900
       215    1       45.698815806200       5.276828563500      11.640498333900
       216    1       49.354715806200      11.609078563500      11.640498333900
       217    1       47.526634193800       2.110792215000       9.166801666100
       218    1       47.526765806200       2.110703563500      11.640498333900
       219    2       47.526824300600       4.221432456000       8.078205344700
       220    1       51.182534193800       8.443042215000       9.166801666100
       221    1       43.870865806200       8.442953563500      11.640498333900
       222    2       43.870924300600      10.553682456000       8.078205344700
       223    2       51.182475699400       0.000075987000      12.729094655300
       224    2       47.526575699400       6.332325987000      12.729094655300
       225    1       51.182665806200       2.110703563500      11.640498333900
       226    1       54.838565806200       8.442953563500      11.640498333900
       227    1       56.666384193800       5.276917215000       9.166801666100
       228    2       56.666325699400       3.166200987000      12.729094655300
       229    1       53.010484193800      11.609167215000       9.166801666100
       230    2       53.010425699400       9.498450987000      12.729094655300
       231    2       53.010425699400       3.166200987000      12.729094655300
       232    1       58.494334193800       2.110792215000       9.166801666100
       233    1       54.838434193800       8.443042215000       9.166801666100
       234    2       56.666325699400       9.498450987000      12.729094655300
       235    2       54.838375699400       0.000075987000      12.729094655300
       236    2       58.494275699400       6.332325987000      12.729094655300
       237    2       56.666574300600       1.055307456000       8.078205344700
       238    2       53.010674300600       7.387557456000       8.078205344700
       239    2       51.182724300600       4.221432456000       8.078205344700
       240    2       53.010674300600       1.055307456000       8.078205344700
       241    1       53.010484193800       5.276917215000       9.166801666100
       242    2       54.838624300600      10.553682456000       8.078205344700
       243    2       56.666574300600       7.387557456000       8.078205344700
       244    1       56.666384193800      11.609167215000       9.166801666100
       245    1       56.666515806200       5.276828563500      11.640498333900
       246    1       53.010615806200      11.609078563500      11.640498333900
       247    1       53.010615806200       5.276828563500      11.640498333900
       248    1       56.666515806200      11.609078563500      11.640498333900
       249    1       54.838434193800       2.110792215000       9.166801666100
       250    1       54.838565806200       2.110703563500      11.640498333900
       251    2       54.838624300600       4.221432456000       8.078205344700
       252    1       58.494334193800       8.443042215000       9.166801666100
       253    1       51.182665806200       8.442953563500      11.640498333900
       254    2       51.182724300600      10.553682456000       8.078205344700
       255    2       58.494275699400       0.000075987000      12.729094655300
       256    2       54.838375699400       6.332325987000      12.729094655300
       257    1       58.494465806200       2.110703563500      11.640498333900
       258    1       62.150365806200       8.442953563500      11.640498333900
       259    1       63.978184193800       5.276917215000       9.166801666100
       260    2       63.978125699400       3.166200987000      12.729094655300
       261    1       60.322284193800      11.609167215000       9.166801666100
       262    2       60.322225699400       9.498450987000      12.729094655300
       263    2       60.322225699400       3.166200987000      12.729094655300
       264    1       65.806134193800       2.110792215000       9.166801666100
       265    1       62.150234193800       8.443042215000       9.166801666100
       266    2       63.978125699400       9.498450987000      12.729094655300
       267    2       62.150175699400       0.000075987000      12.729094655300
       268    2       65.806075699400       6.332325987000      12.729094655300
       269    2       63.978374300600       1.055307456000       8.078205344700
       270    2       60.322474300600       7.387557456000       8.078205344700
       271    2       58.494524300600       4.221432456000       8.078205344700
       272    2       60.322474300600       1.055307456000       8.078205344700
       273    1       60.322284193800       5.276917215000       9.166801666100
       274    2       62.150424300600      10.553682456000       8.078205344700
       275    2       63.978374300600       7.387557456000       8.078205344700
       276    1       63.978184193800      11.609167215000       9.166801666100
       277    1       63.978315806200       5.276828563500      11.640498333900
       278    1       60.322415806200      11.609078563500      11.640498333900
       279    1       60.322415806200       5.276828563500      11.640498333900
       280    1       63.978315806200      11.609078563500      11.640498333900
       281    1       62.150234193800       2.110792215000       9.166801666100
       282    1       62.150365806200       2.110703563500      11.640498333900
       283    2       62.150424300600       4.221432456000       8.078205344700
       284    1       65.806134193800       8.443042215000       9.166801666100
       285    1       58.494465806200       8.442953563500      11.640498333900
       286    2       58.494524300600      10.553682456000       8.078205344700
       287    2       65.806075699400       0.000075987000      12.729094655300
       288    2       62.150175699400       6.332325987000      12.729094655300
       289    1       65.806265806200       2.110703563500      11.640498333900
       290    1       69.462165806200       8.442953563500      11.640498333900
       291    1       71.289984193800       5.276917215000       9.166801666100
       292    2       71.289925699400       3.166200987000      12.729094655300
       293    1       67.634084193800      11.609167215000       9.166801666100
       294    2       67.634025699400       9.498450987000      12.729094655300
       295    2       67.634025699400       3.166200987000      12.729094655300
       296    1       73.117934193800       2.110792215000       9.166801666100
       297    1       69.462034193800       8.443042215000       9.166801666100
       298    2       71.289925699400       9.498450987000      12.729094655300
       299    2       69.461975699400       0.000075987000      12.729094655300
       300    2       73.117875699400       6.332325987000      12.729094655300
       301    2       71.290174300600       1.055307456000       8.078205344700
       302    2       67.634274300600       7.387557456000       8.078205344700
       303    2       65.806324300600       4.221432456000       8.078205344700
       304    2       67.634274300600       1.055307456000       8.078205344700
       305    1       67.634084193800       5.276917215000       9.166801666100
       306    2       69.462224300600      10.553682456000       8.078205344700
       307    2       71.290174300600       7.387557456000       8.078205344700
       308    1       71.289984193800      11.609167215000       9.166801666100
       309    1       71.290115806200       5.276828563500      11.640498333900
       310    1       67.634215806200      11.609078563500      11.640498333900
       311    1       67.634215806200       5.276828563500      11.640498333900
       312    1       71.290115806200      11.609078563500      11.640498333900
       313    1       69.462034193800       2.110792215000       9.166801666100
       314    1       69.462165806200       2.110703563500      11.640498333900
       315    2       69.462224300600       4.221432456000       8.078205344700
       316    1       73.117934193800       8.443042215000       9.166801666100
       317    1       65.806265806200       8.442953563500      11.640498333900
       318    2       65.806324300600      10.553682456000       8.078205344700
       319    2       73.117875699400       0.000075987000      12.729094655300
       320    2       69.461975699400       6.332325987000      12.729094655300
       321    1       73.118065806200       2.110703563500      11.640498333900
       322    1       76.773965806200       8.442953563500      11.640498333900
       323    1       78.601784193800       5.276917215000       9.166801666100
       324    2       78.601725699400       3.166200987000      12.729094655300
       325    1       74.945884193800      11.609167215000       9.166801666100
       326    2       74.945825699400       9.498450987000      12.729094655300
       327    2       74.945825699400       3.166200987000      12.729094655300
       328    1       80.429734193800       2.110792215000       9.166801666100
       329    1       76.773834193800       8.443042215000       9.166801666100
       330    2       78.601725699400       9.498450987000      12.729094655300
       331    2       76.773775699400       0.000075987000      12.729094655300
       332    2       80.429675699400       6.332325987000      12.729094655300
       333    2       78.601974300600       1.055307456000       8.078205344700
       334    2       74.946074300600       7.387557456000       8.078205344700
       335    2       73.118124300600       4.221432456000       8.078205344700
       336    2       74.946074300600       1.055307456000       8.078205344700
       337    1       74.945884193800       5.276917215000       9.166801666100
       338    2       76.774024300600      10.553682456000       8.078205344700
       339    2       78.601974300600       7.387557456000       8.078205344700
       340    1       78.601784193800      11.609167215000       9.166801666100
       341    1       78.601915806200       5.276828563500      11.640498333900
       342    1       74.946015806200      11.609078563500      11.640498333900
       343    1       74.946015806200       5.276828563500      11.640498333900
       344    1       78.601915806200      11.609078563500      11.640498333900
       345    1       76.773834193800       2.110792215000       9.166801666100
       346    1       76.773965806200       2.110703563500      11.640498333900
       347    2       76.774024300600       4.221432456000       8.078205344700
       348    1       80.429734193800       8.443042215000       9.166801666100
       349    1       73.118065806200       8.442953563500      11.640498333900
       350    2       73.118124300600      10.553682456000       8.078205344700
       351    2       80.429675699400       0.000075987000      12.729094655300
       352    2       76.773775699400       6.332325987000      12.729094655300
       353    1       80.429865806200       2.110703563500      11.640498333900
       354    1       84.085765806200       8.442953563500      11.640498333900
       355    1       85.913584193800       5.276917215000       9.166801666100
       356    2       85.913525699400       3.166200987000      12.729094655300
       357    1       82.257684193800      11.609167215000       9.166801666100
       358    2       82.257625699400       9.498450987000      12.729094655300
       359    2       82.257625699400       3.166200987000      12.729094655300
       360    1       87.741534193800       2.110792215000       9.166801666100
       361    1       84.085634193800       8.443042215000       9.166801666100
       362    2       85.913525699400       9.498450987000      12.729094655300
       363    2       84.085575699400       0.000075987000      12.729094655300
       364    2       87.741475699400       6.332325987000      12.729094655300
       365    2       85.913774300600       1.055307456000       8.078205344700
       366    2       82.257874300600       7.387557456000       8.078205344700
       367    2       80.429924300600       4.221432456000       8.078205344700
       368    2       82.257874300600       1.055307456000       8.078205344700
       369    1       82.257684193800       5.276917215000       9.166801666100
       370    2       84.085824300600      10.553682456000       8.078205344700