 # Ga16 Se16
  
        3328  atoms
           2  atom types
 
      0.000000000000      99.716500000000  xlo xhi
      0.000000000000     106.285600000000  ylo yhi
      0.000000000000      20.807300000000  zlo zhi
 
Masses
 
            1   69.72300000             # Ga
            2   78.96000000             # Se
 
Atoms # atomic
 
         1    1        5.752813636000       5.535752619000       9.168757552300
         2    1        1.917563636000      12.178602619000       9.168757552300
         3    2        5.752990057500       1.107070809600       7.997306562300
         4    2        1.917740057500       7.749920809600       7.997306562300
         5    1        7.670438636000       2.214327619000       9.168757552300
         6    1        3.835188636000       8.857177619000       9.168757552300
         7    1        3.835311364000       2.214247904800      11.638542447700
         8    1        0.000061364000       8.857097904800      11.638542447700
         9    2        1.917509942500       3.321504714200      12.809993437700
        10    1        3.835188636000       2.214327619000       9.168757552300
        11    2        5.752759942500       9.964354714200      12.809993437700
        12    1        7.670438636000       8.857177619000       9.168757552300
        13    2        3.835365057500       4.428495809600       7.997306562300
        14    2        0.000115057500      11.071345809600       7.997306562300
        15    2        0.000115057500       4.428495809600       7.997306562300
        16    2        3.835365057500      11.071345809600       7.997306562300
        17    1        0.000061364000       2.214247904800      11.638542447700
        18    1        3.835311364000       8.857097904800      11.638542447700
        19    1        5.752936364000       5.535672904800      11.638542447700
        20    2        5.752759942500       3.321504714200      12.809993437700
        21    1        1.917686364000      12.178522904800      11.638542447700
        22    2        1.917509942500       9.964354714200      12.809993437700
        23    2        1.917740057500       1.107070809600       7.997306562300
        24    1        1.917563636000       5.535752619000       9.168757552300
        25    2        3.835134942500       0.000079714200      12.809993437700
        26    1        5.752813636000      12.178602619000       9.168757552300
        27    2        7.670384942500       6.642929714200      12.809993437700
        28    2        5.752990057500       7.749920809600       7.997306562300
        29    1        1.917686364000       5.535672904800      11.638542447700
        30    1        5.752936364000      12.178522904800      11.638542447700
        31    2        7.670384942500       0.000079714200      12.809993437700
        32    2        3.835134942500       6.642929714200      12.809993437700
        33    1       13.423313636000       5.535752619000       9.168757552300
        34    1        9.588063636000      12.178602619000       9.168757552300
        35    2       13.423490057500       1.107070809600       7.997306562300
        36    2        9.588240057500       7.749920809600       7.997306562300
        37    1       15.340938636000       2.214327619000       9.168757552300
        38    1       11.505688636000       8.857177619000       9.168757552300
        39    1       11.505811364000       2.214247904800      11.638542447700
        40    1        7.670561364000       8.857097904800      11.638542447700
        41    2        9.588009942500       3.321504714200      12.809993437700
        42    1       11.505688636000       2.214327619000       9.168757552300
        43    2       13.423259942500       9.964354714200      12.809993437700
        44    1       15.340938636000       8.857177619000       9.168757552300
        45    2       11.505865057500       4.428495809600       7.997306562300
        46    2        7.670615057500      11.071345809600       7.997306562300
        47    2        7.670615057500       4.428495809600       7.997306562300
        48    2       11.505865057500      11.071345809600       7.997306562300
        49    1        7.670561364000       2.214247904800      11.638542447700
        50    1       11.505811364000       8.857097904800      11.638542447700
        51    1       13.423436364000       5.535672904800      11.638542447700
        52    2       13.423259942500       3.321504714200      12.809993437700
        53    1        9.588186364000      12.178522904800      11.638542447700
        54    2        9.588009942500       9.964354714200      12.809993437700
        55    2        9.588240057500       1.107070809600       7.997306562300
        56    1        9.588063636000       5.535752619000       9.168757552300
        57    2       11.505634942500       0.000079714200      12.809993437700
        58    1       13.423313636000      12.178602619000       9.168757552300
        59    2       15.340884942500       6.642929714200      12.809993437700
        60    2       13.423490057500       7.749920809600       7.997306562300
        61    1        9.588186364000       5.535672904800      11.638542447700
        62    1       13.423436364000      12.178522904800      11.638542447700
        63    2       15.340884942500       0.000079714200      12.809993437700
        64    2       11.505634942500       6.642929714200      12.809993437700
        65    1       21.093813636000       5.535752619000       9.168757552300
        66    1       17.258563636000      12.178602619000       9.168757552300
        67    2       21.093990057500       1.107070809600       7.997306562300
        68    2       17.258740057500       7.749920809600       7.997306562300
        69    1       23.011438636000       2.214327619000       9.168757552300
        70    1       19.176188636000       8.857177619000       9.168757552300
        71    1       19.176311364000       2.214247904800      11.638542447700
        72    1       15.341061364000       8.857097904800      11.638542447700
        73    2       17.258509942500       3.321504714200      12.809993437700
        74    1       19.176188636000       2.214327619000       9.168757552300
        75    2       21.093759942500       9.964354714200      12.809993437700
        76    1       23.011438636000       8.857177619000       9.168757552300
        77    2       19.176365057500       4.428495809600       7.997306562300
        78    2       15.341115057500      11.071345809600       7.997306562300
        79    2       15.341115057500       4.428495809600       7.997306562300
        80    2       19.176365057500      11.071345809600       7.997306562300
        81    1       15.341061364000       2.214247904800      11.638542447700
        82    1       19.176311364000       8.857097904800      11.638542447700
        83    1       21.093936364000       5.535672904800      11.638542447700
        84    2       21.093759942500       3.321504714200      12.809993437700
        85    1       17.258686364000      12.178522904800      11.638542447700
        86    2       17.258509942500       9.964354714200      12.809993437700
        87    2       17.258740057500       1.107070809600       7.997306562300
        88    1       17.258563636000       5.535752619000       9.168757552300
        89    2       19.176134942500       0.000079714200      12.809993437700
        90    1       21.093813636000      12.178602619000       9.168757552300
        91    2       23.011384942500       6.642929714200      12.809993437700
        92    2       21.093990057500       7.749920809600       7.997306562300
        93    1       17.258686364000       5.535672904800      11.638542447700
        94    1       21.093936364000      12.178522904800      11.638542447700
        95    2       23.011384942500       0.000079714200      12.809993437700
        96    2       19.176134942500       6.642929714200      12.809993437700
        97    1       28.764313636000       5.535752619000       9.168757552300
        98    1       24.929063636000      12.178602619000       9.168757552300
        99    2       28.764490057500       1.107070809600       7.997306562300
       100    2       24.929240057500       7.749920809600       7.997306562300
       101    1       30.681938636000       2.214327619000       9.168757552300
       102    1       26.846688636000       8.857177619000       9.168757552300
       103    1       26.846811364000       2.214247904800      11.638542447700
       104    1       23.011561364000       8.857097904800      11.638542447700
       105    2       24.929009942500       3.321504714200      12.809993437700
       106    1       26.846688636000       2.214327619000       9.168757552300
       107    2       28.764259942500       9.964354714200      12.809993437700
       108    1       30.681938636000       8.857177619000       9.168757552300
       109    2       26.846865057500       4.428495809600       7.997306562300
       110    2       23.011615057500      11.071345809600       7.997306562300
       111    2       23.011615057500       4.428495809600       7.997306562300
       112    2       26.846865057500      11.071345809600       7.997306562300
       113    1       23.011561364000       2.214247904800      11.638542447700
       114    1       26.846811364000       8.857097904800      11.638542447700
       115    1       28.764436364000       5.535672904800      11.638542447700
       116    2       28.764259942500       3.321504714200      12.809993437700
       117    1       24.929186364000      12.178522904800      11.638542447700
       118    2       24.929009942500       9.964354714200      12.809993437700
       119    2       24.929240057500       1.107070809600       7.997306562300
       120    1       24.929063636000       5.535752619000       9.168757552300
       121    2       26.846634942500       0.000079714200      12.809993437700
       122    1       28.764313636000      12.178602619000       9.168757552300
       123    2       30.681884942500       6.642929714200      12.809993437700
       124    2       28.764490057500       7.749920809600       7.997306562300
       125    1       24.929186364000       5.535672904800      11.638542447700
       126    1       28.764436364000      12.178522904800      11.638542447700
       127    2       30.681884942500       0.000079714200      12.809993437700
       128    2       26.846634942500       6.642929714200      12.809993437700
       129    1       36.434813636000       5.535752619000       9.168757552300
       130    1       32.599563636000      12.178602619000       9.168757552300
       131    2       36.434990057500       1.107070809600       7.997306562300
       132    2       32.599740057500       7.749920809600       7.997306562300
       133    1       38.352438636000       2.214327619000       9.168757552300
       134    1       34.517188636000       8.857177619000       9.168757552300
       135    1       34.517311364000       2.214247904800      11.638542447700
       136    1       30.682061364000       8.857097904800      11.638542447700
       137    2       32.599509942500       3.321504714200      12.809993437700
       138    1       34.517188636000       2.214327619000       9.168757552300
       139    2       36.434759942500       9.964354714200      12.809993437700
       140    1       38.352438636000       8.857177619000       9.168757552300
       141    2       34.517365057500       4.428495809600       7.997306562300
       142    2       30.682115057500      11.071345809600       7.997306562300
       143    2       30.682115057500       4.428495809600       7.997306562300
       144    2       34.517365057500      11.071345809600       7.997306562300
       145    1       30.682061364000       2.214247904800      11.638542447700
       146    1       34.517311364000       8.857097904800      11.638542447700
       147    1       36.434936364000       5.535672904800      11.638542447700
       148    2       36.434759942500       3.321504714200      12.809993437700
       149    1       32.599686364000      12.178522904800      11.638542447700
       150    2       32.599509942500       9.964354714200      12.809993437700
       151    2       32.599740057500       1.107070809600       7.997306562300
       152    1       32.599563636000       5.535752619000       9.168757552300
       153    2       34.517134942500       0.000079714200      12.809993437700
       154    1       36.434813636000      12.178602619000       9.168757552300
       155    2       38.352384942500       6.642929714200      12.809993437700
       156    2       36.434990057500       7.749920809600       7.997306562300
       157    1       32.599686364000       5.535672904800      11.638542447700
       158    1       36.434936364000      12.178522904800      11.638542447700
       159    2       38.352384942500       0.000079714200      12.809993437700
       160    2       34.517134942500       6.642929714200      12.809993437700
       161    1       44.105313636000       5.535752619000       9.168757552300
       162    1       40.270063636000      12.178602619000       9.168757552300
       163    2       44.105490057500       1.107070809600       7.997306562300
       164    2       40.270240057500       7.749920809600       7.997306562300
       165    1       46.022938636000       2.214327619000       9.168757552300
       166    1       42.187688636000       8.857177619000       9.168757552300
       167    1       42.187811364000       2.214247904800      11.638542447700
       168    1       38.352561364000       8.857097904800      11.638542447700
       169    2       40.270009942500       3.321504714200      12.809993437700
       170    1       42.187688636000       2.214327619000       9.168757552300
       171    2       44.105259942500       9.964354714200      12.809993437700
       172    1       46.022938636000       8.857177619000       9.168757552300
       173    2       42.187865057500       4.428495809600       7.997306562300
       174    2       38.352615057500      11.071345809600       7.997306562300
       175    2       38.352615057500       4.428495809600       7.997306562300
       176    2       42.187865057500      11.071345809600       7.997306562300
       177    1       38.352561364000       2.214247904800      11.638542447700
       178    1       42.187811364000       8.857097904800      11.638542447700
       179    1       44.105436364000       5.535672904800      11.638542447700
       180    2       44.105259942500       3.321504714200      12.809993437700
       181    1       40.270186364000      12.178522904800      11.638542447700
       182    2       40.270009942500       9.964354714200      12.809993437700
       183    2       40.270240057500       1.107070809600       7.997306562300
       184    1       40.270063636000       5.535752619000       9.168757552300
       185    2       42.187634942500       0.000079714200      12.809993437700
       186    1       44.105313636000      12.178602619000       9.168757552300
       187    2       46.022884942500       6.642929714200      12.809993437700
       188    2       44.105490057500       7.749920809600       7.997306562300
       189    1       40.270186364000       5.535672904800      11.638542447700
       190    1       44.105436364000      12.178522904800      11.638542447700
       191    2       46.022884942500       0.000079714200      12.809993437700
       192    2       42.187634942500       6.642929714200      12.809993437700
       193    1       51.775813636000       5.535752619000       9.168757552300
       194    1       47.940563636000      12.178602619000       9.168757552300
       195    2       51.775990057500       1.107070809600       7.997306562300
       196    2       47.940740057500       7.749920809600       7.997306562300
       197    1       53.693438636000       2.214327619000       9.168757552300
       198    1       49.858188636000       8.857177619000       9.168757552300
       199    1       49.858311364000       2.214247904800      11.638542447700
       200    1       46.023061364000       8.857097904800      11.638542447700
       201    2       47.940509942500       3.321504714200      12.809993437700
       202    1       49.858188636000       2.214327619000       9.168757552300
       203    2       51.775759942500       9.964354714200      12.809993437700
       204    1       53.693438636000       8.857177619000       9.168757552300
       205    2       49.858365057500       4.428495809600       7.997306562300
       206    2       46.023115057500      11.071345809600       7.997306562300
       207    2       46.023115057500       4.428495809600       7.997306562300
       208    2       49.858365057500      11.071345809600       7.997306562300
       209    1       46.023061364000       2.214247904800      11.638542447700
       210    1       49.858311364000       8.857097904800      11.638542447700
       211    1       51.775936364000       5.535672904800      11.638542447700
       212    2       51.775759942500       3.321504714200      12.809993437700
       213    1       47.940686364000      12.178522904800      11.638542447700
       214    2       47.940509942500       9.964354714200      12.809993437700
       215    2       47.940740057500       1.107070809600       7.997306562300
       216    1       47.940563636000       5.535752619000       9.168757552300
       217    2       49.858134942500       0.000079714200      12.809993437700
       218    1       51.775813636000      12.178602619000       9.168757552300
       219    2       53.693384942500       6.642929714200      12.809993437700
       220    2       51.775990057500       7.749920809600       7.997306562300
       221    1       47.940686364000       5.535672904800      11.638542447700
       222    1       51.775936364000      12.178522904800      11.638542447700
       223    2       53.693384942500       0.000079714200      12.809993437700
       224    2       49.858134942500       6.642929714200      12.809993437700
       225    1       59.446313636000       5.535752619000       9.168757552300
       226    1       55.611063636000      12.178602619000       9.168757552300
       227    2       59.446490057500       1.107070809600       7.997306562300
       228    2       55.611240057500       7.749920809600       7.997306562300
       229    1       61.363938636000       2.214327619000       9.168757552300
       230    1       57.528688636000       8.857177619000       9.168757552300
       231    1       57.528811364000       2.214247904800      11.638542447700
       232    1       53.693561364000       8.857097904800      11.638542447700
       233    2       55.611009942500       3.321504714200      12.809993437700
       234    1       57.528688636000       2.214327619000       9.168757552300
       235    2       59.446259942500       9.964354714200      12.809993437700
       236    1       61.363938636000       8.857177619000       9.168757552300
       237    2       57.528865057500       4.428495809600       7.997306562300
       238    2       53.693615057500      11.071345809600       7.997306562300
       239    2       53.693615057500       4.428495809600       7.997306562300
       240    2       57.528865057500      11.071345809600       7.997306562300
       241    1       53.693561364000       2.214247904800      11.638542447700
       242    1       57.528811364000       8.857097904800      11.638542447700
       243    1       59.446436364000       5.535672904800      11.638542447700
       244    2       59.446259942500       3.321504714200      12.809993437700
       245    1       55.611186364000      12.178522904800      11.638542447700
       246    2       55.611009942500       9.964354714200      12.809993437700
       247    2       55.611240057500       1.107070809600       7.997306562300
       248    1       55.611063636000       5.535752619000       9.168757552300
       249    2       57.528634942500       0.000079714200      12.809993437700
       250    1       59.446313636000      12.178602619000       9.168757552300
       251    2       61.363884942500       6.642929714200      12.809993437700
       252    2       59.446490057500       7.749920809600       7.997306562300
       253    1       55.611186364000       5.535672904800      11.638542447700
       254    1       59.446436364000      12.178522904800      11.638542447700
       255    2       61.363884942500       0.000079714200      12.809993437700
       256    2       57.528634942500       6.642929714200      12.809993437700
       257    1       67.116813636000       5.535752619000       9.168757552300
       258    1       63.281563636000      12.178602619000       9.168757552300
       259    2       67.116990057500       1.107070809600       7.997306562300
       260    2       63.281740057500       7.749920809600       7.997306562300
       261    1       69.034438636000       2.214327619000       9.168757552300
       262    1       65.199188636000       8.857177619000       9.168757552300
       263    1       65.199311364000       2.214247904800      11.638542447700
       264    1       61.364061364000       8.857097904800      11.638542447700
       265    2       63.281509942500       3.321504714200      12.809993437700
       266    1       65.199188636000       2.214327619000       9.168757552300
       267    2       67.116759942500       9.964354714200      12.809993437700
       268    1       69.034438636000       8.857177619000       9.168757552300
       269    2       65.199365057500       4.428495809600       7.997306562300
       270    2       61.364115057500      11.071345809600       7.997306562300
       271    2       61.364115057500       4.428495809600       7.997306562300
       272    2       65.199365057500      11.071345809600       7.997306562300
       273    1       61.364061364000       2.214247904800      11.638542447700
       274    1       65.199311364000       8.857097904800      11.638542447700
       275    1       67.116936364000       5.535672904800      11.638542447700
       276    2       67.116759942500       3.321504714200      12.809993437700
       277    1       63.281686364000      12.178522904800      11.638542447700
       278    2       63.281509942500       9.964354714200      12.809993437700
       279    2       63.281740057500       1.107070809600       7.997306562300
       280    1       63.281563636000       5.535752619000       9.168757552300
       281    2       65.199134942500       0.000079714200      12.809993437700
       282    1       67.116813636000      12.178602619000       9.168757552300
       283    2       69.034384942500       6.642929714200      12.809993437700
       284    2       67.116990057500       7.749920809600       7.997306562300
       285    1       63.281686364000       5.535672904800      11.638542447700
       286    1       67.116936364000      12.178522904800      11.638542447700
       287    2       69.034384942500       0.000079714200      12.809993437700
       288    2       65.199134942500       6.642929714200      12.809993437700
       289    1       74.787313636000       5.535752619000       9.168757552300
       290    1       70.952063636000      12.178602619000       9.168757552300
       291    2       74.787490057500       1.107070809600       7.997306562300
       292    2       70.952240057500       7.749920809600       7.997306562300
       293    1       76.704938636000       2.214327619000       9.168757552300
       294    1       72.869688636000       8.857177619000       9.168757552300
       295    1       72.869811364000       2.214247904800      11.638542447700
       296    1       69.034561364000       8.857097904800      11.638542447700
       297    2       70.952009942500       3.321504714200      12.809993437700
       298    1       72.869688636000       2.214327619000       9.168757552300
       299    2       74.787259942500       9.964354714200      12.809993437700
       300    1       76.704938636000       8.857177619000       9.168757552300
       301    2       72.869865057500       4.428495809600       7.997306562300
       302    2       69.034615057500      11.071345809600       7.997306562300
       303    2       69.034615057500       4.428495809600       7.997306562300
       304    2       72.869865057500      11.071345809600       7.997306562300
       305    1       69.034561364000       2.214247904800      11.638542447700
       306    1       72.869811364000       8.857097904800      11.638542447700
       307    1       74.787436364000       5.535672904800      11.638542447700
       308    2       74.787259942500       3.321504714200      12.809993437700
       309    1       70.952186364000      12.178522904800      11.638542447700
       310    2       70.952009942500       9.964354714200      12.809993437700
       311    2       70.952240057500       1.107070809600       7.997306562300
       312    1       70.952063636000       5.535752619000       9.168757552300
       313    2       72.869634942500       0.000079714200      12.809993437700
       314    1       74.787313636000      12.178602619000       9.168757552300
       315    2       76.704884942500       6.642929714200      12.809993437700
       316    2       74.787490057500       7.749920809600       7.997306562300
       317    1       70.952186364000       5.535672904800      11.638542447700
       318    1       74.787436364000      12.178522904800      11.638542447700
       319    2       76.704884942500       0.000079714200      12.809993437700
       320    2       72.869634942500       6.642929714200      12.809993437700
       321    1       82.457813636000       5.535752619000       9.168757552300
       322    1       78.622563636000      12.178602619000       9.168757552300
       323    2       82.457990057500       1.107070809600       7.997306562300
       324    2       78.622740057500       7.749920809600       7.997306562300
       325    1       84.375438636000       2.214327619000       9.168757552300
       326    1       80.540188636000       8.857177619000       9.168757552300
       327    1       80.540311364000       2.214247904800      11.638542447700
       328    1       76.705061364000       8.857097904800      11.638542447700
       329    2       78.622509942500       3.321504714200      12.809993437700
       330    1       80.540188636000       2.214327619000       9.168757552300
       331    2       82.457759942500       9.964354714200      12.809993437700
       332    1       84.375438636000       8.857177619000       9.168757552300
       333    2       80.540365057500       4.428495809600       7.997306562300
       334    2       76.705115057500      11.071345809600       7.997306562300
       335    2       76.705115057500       4.428495809600       7.997306562300
       336    2       80.540365057500      11.071345809600       7.997306562300
       337    1       76.705061364000       2.214247904800      11.638542447700
       338    1       80.540311364000       8.857097904800      11.638542447700
       339    1       82.457936364000       5.535672904800      11.638542447700
       340    2       82.457759942500       3.321504714200      12.809993437700
       341    1       78.622686364000      12.178522904800      11.638542447700
       342    2       78.622509942500       9.964354714200      12.809993437700
       343    2       78.622740057500       1.107070809600       7.997306562300
       344    1       78.622563636000       5.535752619000       9.168757552300
       345    2       80.540134942500       0.000079714200      12.809993437700
       346    1       82.457813636000      12.178602619000       9.168757552300
       347    2       84.375384942500       6.642929714200      12.809993437700
       348    2       82.457990057500       7.749920809600       7.997306562300
       349    1       78.622686364000       5.535672904800      11.638542447700
       350    1       82.457936364000      12.178522904800      11.638542447700
       351    2       84.375384942500       0.000079714200      12.809993437700
       352    2       80.540134942500       6.642929714200      12.809993437700
       353    1       90.128313636000       5.535752619000       9.168757552300
       354    1       86.293063636000      12.178602619000       9.168757552300
       355    2       90.128490057500       1.107070809600       7.997306562300
       356    2       86.293240057500       7.749920809600       7.997306562300
       357    1       92.045938636000       2.214327619000       9.168757552300
       358    1       88.210688636000       8.857177619000       9.168757552300
       359    1       88.210811364000       2.214247904800      11.638542447700
       360    1       84.375561364000       8.857097904800      11.638542447700
       361    2       86.293009942500       3.321504714200      12.809993437700
       362    1       88.210688636000       2.214327619000       9.168757552300
       363    2       90.128259942500       9.964354714200      12.809993437700
       364    1       92.045938636000       8.857177619000       9.168757552300
       365    2       88.210865057500       4.428495809600       7.997306562300
       366    2       84.375615057500      11.071345809600       7.997306562300
       367    2       84.375615057500       4.428495809600       7.997306562300
       368    2       88.210865057500      11.071345809600       7.997306562300
       369    1       84.375561364000       2.214247904800      11.638542447700
       370    1       88.210811364000       8.857097904800      11.638542447700