 # Ga16 Te16
  
        2688  atoms
           2  atom types
 
      0.000000000000      99.564000000000  xlo xhi
      0.000000000000     100.597000000000  ylo yhi
      0.000000000000      20.807300000000  zlo zhi
 
Masses
 
            1   69.72300000             # Ga
            2   127.60000000            # Te
 
Atoms # atomic
 
         1    1        6.222733406000       5.987921457000      11.636336873900
         2    1        2.074233406000      13.173421457000      11.636336873900
         3    2        0.000033188000       4.790314172000       7.909312490600
         4    2        4.148466812000       0.000014371000      12.897966702100
         5    2        2.074216812000       3.592764371000      12.897966702100
         6    2        4.148533188000      11.975814172000       7.909312490600
         7    2        8.296966812000       7.185514371000      12.897966702100
         8    2        6.222716812000      10.778264371000      12.897966702100
         9    2        6.222783188000       1.197564172000       7.909312490600
        10    2        2.074283188000       1.197564172000       7.909312490600
        11    2        2.074283188000       8.383064172000       7.909312490600
        12    2        6.222783188000       8.383064172000       7.909312490600
        13    2        8.296966812000       0.000014371000      12.897966702100
        14    2        4.148466812000       7.185514371000      12.897966702100
        15    1        4.148483406000       2.395171457000      11.636336873900
        16    1        8.296983406000       9.580671457000      11.636336873900
        17    2        6.222716812000       3.592764371000      12.897966702100
        18    2        4.148533188000       4.790314172000       7.909312490600
        19    2        2.074216812000      10.778264371000      12.897966702100
        20    2        0.000033188000      11.975814172000       7.909312490600
        21    1        4.148516594000       2.395157086000       9.170942318800
        22    1        0.000016594000       9.580657086000       9.170942318800
        23    1        8.296983406000       2.395171457000      11.636336873900
        24    1        4.148483406000       9.580671457000      11.636336873900
        25    1        2.074266594000       5.987907086000       9.170942318800
        26    1        6.222766594000      13.173407086000       9.170942318800
        27    1        6.222766594000       5.987907086000       9.170942318800
        28    1        2.074266594000      13.173407086000       9.170942318800
        29    1        0.000016594000       2.395157086000       9.170942318800
        30    1        4.148516594000       9.580657086000       9.170942318800
        31    1        2.074233406000       5.987921457000      11.636336873900
        32    1        6.222733406000      13.173421457000      11.636336873900
        33    1       14.519733406000       5.987921457000      11.636336873900
        34    1       10.371233406000      13.173421457000      11.636336873900
        35    2        8.297033188000       4.790314172000       7.909312490600
        36    2       12.445466812000       0.000014371000      12.897966702100
        37    2       10.371216812000       3.592764371000      12.897966702100
        38    2       12.445533188000      11.975814172000       7.909312490600
        39    2       16.593966812000       7.185514371000      12.897966702100
        40    2       14.519716812000      10.778264371000      12.897966702100
        41    2       14.519783188000       1.197564172000       7.909312490600
        42    2       10.371283188000       1.197564172000       7.909312490600
        43    2       10.371283188000       8.383064172000       7.909312490600
        44    2       14.519783188000       8.383064172000       7.909312490600
        45    2       16.593966812000       0.000014371000      12.897966702100
        46    2       12.445466812000       7.185514371000      12.897966702100
        47    1       12.445483406000       2.395171457000      11.636336873900
        48    1       16.593983406000       9.580671457000      11.636336873900
        49    2       14.519716812000       3.592764371000      12.897966702100
        50    2       12.445533188000       4.790314172000       7.909312490600
        51    2       10.371216812000      10.778264371000      12.897966702100
        52    2        8.297033188000      11.975814172000       7.909312490600
        53    1       12.445516594000       2.395157086000       9.170942318800
        54    1        8.297016594000       9.580657086000       9.170942318800
        55    1       16.593983406000       2.395171457000      11.636336873900
        56    1       12.445483406000       9.580671457000      11.636336873900
        57    1       10.371266594000       5.987907086000       9.170942318800
        58    1       14.519766594000      13.173407086000       9.170942318800
        59    1       14.519766594000       5.987907086000       9.170942318800
        60    1       10.371266594000      13.173407086000       9.170942318800
        61    1        8.297016594000       2.395157086000       9.170942318800
        62    1       12.445516594000       9.580657086000       9.170942318800
        63    1       10.371233406000       5.987921457000      11.636336873900
        64    1       14.519733406000      13.173421457000      11.636336873900
        65    1       22.816733406000       5.987921457000      11.636336873900
        66    1       18.668233406000      13.173421457000      11.636336873900
        67    2       16.594033188000       4.790314172000       7.909312490600
        68    2       20.742466812000       0.000014371000      12.897966702100
        69    2       18.668216812000       3.592764371000      12.897966702100
        70    2       20.742533188000      11.975814172000       7.909312490600
        71    2       24.890966812000       7.185514371000      12.897966702100
        72    2       22.816716812000      10.778264371000      12.897966702100
        73    2       22.816783188000       1.197564172000       7.909312490600
        74    2       18.668283188000       1.197564172000       7.909312490600
        75    2       18.668283188000       8.383064172000       7.909312490600
        76    2       22.816783188000       8.383064172000       7.909312490600
        77    2       24.890966812000       0.000014371000      12.897966702100
        78    2       20.742466812000       7.185514371000      12.897966702100
        79    1       20.742483406000       2.395171457000      11.636336873900
        80    1       24.890983406000       9.580671457000      11.636336873900
        81    2       22.816716812000       3.592764371000      12.897966702100
        82    2       20.742533188000       4.790314172000       7.909312490600
        83    2       18.668216812000      10.778264371000      12.897966702100
        84    2       16.594033188000      11.975814172000       7.909312490600
        85    1       20.742516594000       2.395157086000       9.170942318800
        86    1       16.594016594000       9.580657086000       9.170942318800
        87    1       24.890983406000       2.395171457000      11.636336873900
        88    1       20.742483406000       9.580671457000      11.636336873900
        89    1       18.668266594000       5.987907086000       9.170942318800
        90    1       22.816766594000      13.173407086000       9.170942318800
        91    1       22.816766594000       5.987907086000       9.170942318800
        92    1       18.668266594000      13.173407086000       9.170942318800
        93    1       16.594016594000       2.395157086000       9.170942318800
        94    1       20.742516594000       9.580657086000       9.170942318800
        95    1       18.668233406000       5.987921457000      11.636336873900
        96    1       22.816733406000      13.173421457000      11.636336873900
        97    1       31.113733406000       5.987921457000      11.636336873900
        98    1       26.965233406000      13.173421457000      11.636336873900
        99    2       24.891033188000       4.790314172000       7.909312490600
       100    2       29.039466812000       0.000014371000      12.897966702100
       101    2       26.965216812000       3.592764371000      12.897966702100
       102    2       29.039533188000      11.975814172000       7.909312490600
       103    2       33.187966812000       7.185514371000      12.897966702100
       104    2       31.113716812000      10.778264371000      12.897966702100
       105    2       31.113783188000       1.197564172000       7.909312490600
       106    2       26.965283188000       1.197564172000       7.909312490600
       107    2       26.965283188000       8.383064172000       7.909312490600
       108    2       31.113783188000       8.383064172000       7.909312490600
       109    2       33.187966812000       0.000014371000      12.897966702100
       110    2       29.039466812000       7.185514371000      12.897966702100
       111    1       29.039483406000       2.395171457000      11.636336873900
       112    1       33.187983406000       9.580671457000      11.636336873900
       113    2       31.113716812000       3.592764371000      12.897966702100
       114    2       29.039533188000       4.790314172000       7.909312490600
       115    2       26.965216812000      10.778264371000      12.897966702100
       116    2       24.891033188000      11.975814172000       7.909312490600
       117    1       29.039516594000       2.395157086000       9.170942318800
       118    1       24.891016594000       9.580657086000       9.170942318800
       119    1       33.187983406000       2.395171457000      11.636336873900
       120    1       29.039483406000       9.580671457000      11.636336873900
       121    1       26.965266594000       5.987907086000       9.170942318800
       122    1       31.113766594000      13.173407086000       9.170942318800
       123    1       31.113766594000       5.987907086000       9.170942318800
       124    1       26.965266594000      13.173407086000       9.170942318800
       125    1       24.891016594000       2.395157086000       9.170942318800
       126    1       29.039516594000       9.580657086000       9.170942318800
       127    1       26.965233406000       5.987921457000      11.636336873900
       128    1       31.113733406000      13.173421457000      11.636336873900
       129    1       39.410733406000       5.987921457000      11.636336873900
       130    1       35.262233406000      13.173421457000      11.636336873900
       131    2       33.188033188000       4.790314172000       7.909312490600
       132    2       37.336466812000       0.000014371000      12.897966702100
       133    2       35.262216812000       3.592764371000      12.897966702100
       134    2       37.336533188000      11.975814172000       7.909312490600
       135    2       41.484966812000       7.185514371000      12.897966702100
       136    2       39.410716812000      10.778264371000      12.897966702100
       137    2       39.410783188000       1.197564172000       7.909312490600
       138    2       35.262283188000       1.197564172000       7.909312490600
       139    2       35.262283188000       8.383064172000       7.909312490600
       140    2       39.410783188000       8.383064172000       7.909312490600
       141    2       41.484966812000       0.000014371000      12.897966702100
       142    2       37.336466812000       7.185514371000      12.897966702100
       143    1       37.336483406000       2.395171457000      11.636336873900
       144    1       41.484983406000       9.580671457000      11.636336873900
       145    2       39.410716812000       3.592764371000      12.897966702100
       146    2       37.336533188000       4.790314172000       7.909312490600
       147    2       35.262216812000      10.778264371000      12.897966702100
       148    2       33.188033188000      11.975814172000       7.909312490600
       149    1       37.336516594000       2.395157086000       9.170942318800
       150    1       33.188016594000       9.580657086000       9.170942318800
       151    1       41.484983406000       2.395171457000      11.636336873900
       152    1       37.336483406000       9.580671457000      11.636336873900
       153    1       35.262266594000       5.987907086000       9.170942318800
       154    1       39.410766594000      13.173407086000       9.170942318800
       155    1       39.410766594000       5.987907086000       9.170942318800
       156    1       35.262266594000      13.173407086000       9.170942318800
       157    1       33.188016594000       2.395157086000       9.170942318800
       158    1       37.336516594000       9.580657086000       9.170942318800
       159    1       35.262233406000       5.987921457000      11.636336873900
       160    1       39.410733406000      13.173421457000      11.636336873900
       161    1       47.707733406000       5.987921457000      11.636336873900
       162    1       43.559233406000      13.173421457000      11.636336873900
       163    2       41.485033188000       4.790314172000       7.909312490600
       164    2       45.633466812000       0.000014371000      12.897966702100
       165    2       43.559216812000       3.592764371000      12.897966702100
       166    2       45.633533188000      11.975814172000       7.909312490600
       167    2       49.781966812000       7.185514371000      12.897966702100
       168    2       47.707716812000      10.778264371000      12.897966702100
       169    2       47.707783188000       1.197564172000       7.909312490600
       170    2       43.559283188000       1.197564172000       7.909312490600
       171    2       43.559283188000       8.383064172000       7.909312490600
       172    2       47.707783188000       8.383064172000       7.909312490600
       173    2       49.781966812000       0.000014371000      12.897966702100
       174    2       45.633466812000       7.185514371000      12.897966702100
       175    1       45.633483406000       2.395171457000      11.636336873900
       176    1       49.781983406000       9.580671457000      11.636336873900
       177    2       47.707716812000       3.592764371000      12.897966702100
       178    2       45.633533188000       4.790314172000       7.909312490600
       179    2       43.559216812000      10.778264371000      12.897966702100
       180    2       41.485033188000      11.975814172000       7.909312490600
       181    1       45.633516594000       2.395157086000       9.170942318800
       182    1       41.485016594000       9.580657086000       9.170942318800
       183    1       49.781983406000       2.395171457000      11.636336873900
       184    1       45.633483406000       9.580671457000      11.636336873900
       185    1       43.559266594000       5.987907086000       9.170942318800
       186    1       47.707766594000      13.173407086000       9.170942318800
       187    1       47.707766594000       5.987907086000       9.170942318800
       188    1       43.559266594000      13.173407086000       9.170942318800
       189    1       41.485016594000       2.395157086000       9.170942318800
       190    1       45.633516594000       9.580657086000       9.170942318800
       191    1       43.559233406000       5.987921457000      11.636336873900
       192    1       47.707733406000      13.173421457000      11.636336873900
       193    1       56.004733406000       5.987921457000      11.636336873900
       194    1       51.856233406000      13.173421457000      11.636336873900
       195    2       49.782033188000       4.790314172000       7.909312490600
       196    2       53.930466812000       0.000014371000      12.897966702100
       197    2       51.856216812000       3.592764371000      12.897966702100
       198    2       53.930533188000      11.975814172000       7.909312490600
       199    2       58.078966812000       7.185514371000      12.897966702100
       200    2       56.004716812000      10.778264371000      12.897966702100
       201    2       56.004783188000       1.197564172000       7.909312490600
       202    2       51.856283188000       1.197564172000       7.909312490600
       203    2       51.856283188000       8.383064172000       7.909312490600
       204    2       56.004783188000       8.383064172000       7.909312490600
       205    2       58.078966812000       0.000014371000      12.897966702100
       206    2       53.930466812000       7.185514371000      12.897966702100
       207    1       53.930483406000       2.395171457000      11.636336873900
       208    1       58.078983406000       9.580671457000      11.636336873900
       209    2       56.004716812000       3.592764371000      12.897966702100
       210    2       53.930533188000       4.790314172000       7.909312490600
       211    2       51.856216812000      10.778264371000      12.897966702100
       212    2       49.782033188000      11.975814172000       7.909312490600
       213    1       53.930516594000       2.395157086000       9.170942318800
       214    1       49.782016594000       9.580657086000       9.170942318800
       215    1       58.078983406000       2.395171457000      11.636336873900
       216    1       53.930483406000       9.580671457000      11.636336873900
       217    1       51.856266594000       5.987907086000       9.170942318800
       218    1       56.004766594000      13.173407086000       9.170942318800
       219    1       56.004766594000       5.987907086000       9.170942318800
       220    1       51.856266594000      13.173407086000       9.170942318800
       221    1       49.782016594000       2.395157086000       9.170942318800
       222    1       53.930516594000       9.580657086000       9.170942318800
       223    1       51.856233406000       5.987921457000      11.636336873900
       224    1       56.004733406000      13.173421457000      11.636336873900
       225    1       64.301733406000       5.987921457000      11.636336873900
       226    1       60.153233406000      13.173421457000      11.636336873900
       227    2       58.079033188000       4.790314172000       7.909312490600
       228    2       62.227466812000       0.000014371000      12.897966702100
       229    2       60.153216812000       3.592764371000      12.897966702100
       230    2       62.227533188000      11.975814172000       7.909312490600
       231    2       66.375966812000       7.185514371000      12.897966702100
       232    2       64.301716812000      10.778264371000      12.897966702100
       233    2       64.301783188000       1.197564172000       7.909312490600
       234    2       60.153283188000       1.197564172000       7.909312490600
       235    2       60.153283188000       8.383064172000       7.909312490600
       236    2       64.301783188000       8.383064172000       7.909312490600
       237    2       66.375966812000       0.000014371000      12.897966702100
       238    2       62.227466812000       7.185514371000      12.897966702100
       239    1       62.227483406000       2.395171457000      11.636336873900
       240    1       66.375983406000       9.580671457000      11.636336873900
       241    2       64.301716812000       3.592764371000      12.897966702100
       242    2       62.227533188000       4.790314172000       7.909312490600
       243    2       60.153216812000      10.778264371000      12.897966702100
       244    2       58.079033188000      11.975814172000       7.909312490600
       245    1       62.227516594000       2.395157086000       9.170942318800
       246    1       58.079016594000       9.580657086000       9.170942318800
       247    1       66.375983406000       2.395171457000      11.636336873900
       248    1       62.227483406000       9.580671457000      11.636336873900
       249    1       60.153266594000       5.987907086000       9.170942318800
       250    1       64.301766594000      13.173407086000       9.170942318800
       251    1       64.301766594000       5.987907086000       9.170942318800
       252    1       60.153266594000      13.173407086000       9.170942318800
       253    1       58.079016594000       2.395157086000       9.170942318800
       254    1       62.227516594000       9.580657086000       9.170942318800
       255    1       60.153233406000       5.987921457000      11.636336873900
       256    1       64.301733406000      13.173421457000      11.636336873900
       257    1       72.598733406000       5.987921457000      11.636336873900
       258    1       68.450233406000      13.173421457000      11.636336873900
       259    2       66.376033188000       4.790314172000       7.909312490600
       260    2       70.524466812000       0.000014371000      12.897966702100
       261    2       68.450216812000       3.592764371000      12.897966702100
       262    2       70.524533188000      11.975814172000       7.909312490600
       263    2       74.672966812000       7.185514371000      12.897966702100
       264    2       72.598716812000      10.778264371000      12.897966702100
       265    2       72.598783188000       1.197564172000       7.909312490600
       266    2       68.450283188000       1.197564172000       7.909312490600
       267    2       68.450283188000       8.383064172000       7.909312490600
       268    2       72.598783188000       8.383064172000       7.909312490600
       269    2       74.672966812000       0.000014371000      12.897966702100
       270    2       70.524466812000       7.185514371000      12.897966702100
       271    1       70.524483406000       2.395171457000      11.636336873900
       272    1       74.672983406000       9.580671457000      11.636336873900
       273    2       72.598716812000       3.592764371000      12.897966702100
       274    2       70.524533188000       4.790314172000       7.909312490600
       275    2       68.450216812000      10.778264371000      12.897966702100
       276    2       66.376033188000      11.975814172000       7.909312490600
       277    1       70.524516594000       2.395157086000       9.170942318800
       278    1       66.376016594000       9.580657086000       9.170942318800
       279    1       74.672983406000       2.395171457000      11.636336873900
       280    1       70.524483406000       9.580671457000      11.636336873900
       281    1       68.450266594000       5.987907086000       9.170942318800
       282    1       72.598766594000      13.173407086000       9.170942318800
       283    1       72.598766594000       5.987907086000       9.170942318800
       284    1       68.450266594000      13.173407086000       9.170942318800
       285    1       66.376016594000       2.395157086000       9.170942318800
       286    1       70.524516594000       9.580657086000       9.170942318800
       287    1       68.450233406000       5.987921457000      11.636336873900
       288    1       72.598733406000      13.173421457000      11.636336873900
       289    1       80.895733406000       5.987921457000      11.636336873900
       290    1       76.747233406000      13.173421457000      11.636336873900
       291    2       74.673033188000       4.790314172000       7.909312490600
       292    2       78.821466812000       0.000014371000      12.897966702100
       293    2       76.747216812000       3.592764371000      12.897966702100
       294    2       78.821533188000      11.975814172000       7.909312490600
       295    2       82.969966812000       7.185514371000      12.897966702100
       296    2       80.895716812000      10.778264371000      12.897966702100
       297    2       80.895783188000       1.197564172000       7.909312490600
       298    2       76.747283188000       1.197564172000       7.909312490600
       299    2       76.747283188000       8.383064172000       7.909312490600
       300    2       80.895783188000       8.383064172000       7.909312490600
       301    2       82.969966812000       0.000014371000      12.897966702100
       302    2       78.821466812000       7.185514371000      12.897966702100
       303    1       78.821483406000       2.395171457000      11.636336873900
       304    1       82.969983406000       9.580671457000      11.636336873900
       305    2       80.895716812000       3.592764371000      12.897966702100
       306    2       78.821533188000       4.790314172000       7.909312490600
       307    2       76.747216812000      10.778264371000      12.897966702100
       308    2       74.673033188000      11.975814172000       7.909312490600
       309    1       78.821516594000       2.395157086000       9.170942318800
       310    1       74.673016594000       9.580657086000       9.170942318800
       311    1       82.969983406000       2.395171457000      11.636336873900
       312    1       78.821483406000       9.580671457000      11.636336873900
       313    1       76.747266594000       5.987907086000       9.170942318800
       314    1       80.895766594000      13.173407086000       9.170942318800
       315    1       80.895766594000       5.987907086000       9.170942318800
       316    1       76.747266594000      13.173407086000       9.170942318800
       317    1       74.673016594000       2.395157086000       9.170942318800
       318    1       78.821516594000       9.580657086000       9.170942318800
       319    1       76.747233406000       5.987921457000      11.636336873900
       320    1       80.895733406000      13.173421457000      11.636336873900
       321    1       89.192733406000       5.987921457000      11.636336873900
       322    1       85.044233406000      13.173421457000      11.636336873900
       323    2       82.970033188000       4.790314172000       7.909312490600
       324    2       87.118466812000       0.000014371000      12.897966702100
       325    2       85.044216812000       3.592764371000      12.897966702100
       326    2       87.118533188000      11.975814172000       7.909312490600
       327    2       91.266966812000       7.185514371000      12.897966702100
       328    2       89.192716812000      10.778264371000      12.897966702100
       329    2       89.192783188000       1.197564172000       7.909312490600
       330    2       85.044283188000       1.197564172000       7.909312490600
       331    2       85.044283188000       8.383064172000       7.909312490600
       332    2       89.192783188000       8.383064172000       7.909312490600
       333    2       91.266966812000       0.000014371000      12.897966702100
       334    2       87.118466812000       7.185514371000      12.897966702100
       335    1       87.118483406000       2.395171457000      11.636336873900
       336    1       91.266983406000       9.580671457000      11.636336873900
       337    2       89.192716812000       3.592764371000      12.897966702100
       338    2       87.118533188000       4.790314172000       7.909312490600
       339    2       85.044216812000      10.778264371000      12.897966702100
       340    2       82.970033188000      11.975814172000       7.909312490600
       341    1       87.118516594000       2.395157086000       9.170942318800
       342    1       82.970016594000       9.580657086000       9.170942318800
       343    1       91.266983406000       2.395171457000      11.636336873900
       344    1       87.118483406000       9.580671457000      11.636336873900
       345    1       85.044266594000       5.987907086000       9.170942318800
       346    1       89.192766594000      13.173407086000       9.170942318800
       347    1       89.192766594000       5.987907086000       9.170942318800
       348    1       85.044266594000      13.173407086000       9.170942318800
       349    1       82.970016594000       2.395157086000       9.170942318800
       350    1       87.118516594000       9.580657086000       9.170942318800
       351    1       85.044233406000       5.987921457000      11.636336873900
       352    1       89.192733406000      13.173421457000      11.636336873900
       353    1       97.489733406000       5.987921457000      11.636336873900
       354    1       93.341233406000      13.173421457000      11.636336873900
       355    2       91.267033188000       4.790314172000       7.909312490600
       356    2       95.415466812000       0.000014371000      12.897966702100
       357    2       93.341216812000       3.592764371000      12.897966702100
       358    2       95.415533188000      11.975814172000       7.909312490600
       359    2       99.563966812000       7.185514371000      12.897966702100
       360    2       97.489716812000      10.778264371000      12.897966702100
       361    2       97.489783188000       1.197564172000       7.909312490600
       362    2       93.341283188000       1.197564172000       7.909312490600
       363    2       93.341283188000       8.383064172000       7.909312490600
       364    2       97.489783188000       8.383064172000       7.909312490600
       365    2       99.563966812000       0.000014371000      12.897966702100
       366    2       95.415466812000       7.185514371000      12.897966702100
       367    1       95.415483406000       2.395171457000      11.636336873900
       368    1       99.563983406000       9.580671457000      11.636336873900
       369    2       97.489716812000       3.592764371000      12.897966702100
       370    2       95.415533188000       4.790314172000       7.909312490600