 # Cr8 O16
  
        5016  atoms
           2  atom types
 
      0.000000000000     100.112900000000  xlo xhi
      0.000000000000     100.389300000000  ylo yhi
      0.000000000000      17.336900000000  zlo zhi
 
Masses
 
            1   51.99610000             # Cr
            2   15.99900000             # O
 
Atoms # atomic
 
         1    1        2.634550000000       0.000000000000       8.668450000000
         2    1        0.000000000000       4.563150000000       8.668450000000
         3    1        1.317275000000       2.281575000000       8.668450000000
         4    1        3.951825000000       6.844725000000       8.668450000000
         5    1        0.000000000000       0.000000000000       8.668450000000
         6    2        3.951825000000       0.760521957900       7.500012287600
         7    1        3.951825000000       2.281575000000       8.668450000000
         8    2        1.317275000000       5.323671957900       7.500012287600
         9    1        1.317275000000       6.844725000000       8.668450000000
        10    1        2.634550000000       4.563150000000       8.668450000000
        11    2        0.000000000000       3.042096957900       7.500012287600
        12    2        2.634550000000       7.605246957900       7.500012287600
        13    2        1.317275000000       0.760521957900       7.500012287600
        14    2        3.951825000000       5.323671957900       7.500012287600
        15    2        2.634550000000       3.042096957900       7.500012287600
        16    2        2.634550000000       3.042096957900       9.836887712400
        17    2        0.000000000000       7.605246957900       7.500012287600
        18    2        0.000000000000       7.605246957900       9.836887712400
        19    2        0.000000000000       3.042096957900       9.836887712400
        20    2        2.634550000000       7.605246957900       9.836887712400
        21    2        1.317275000000       0.760521957900       9.836887712400
        22    2        3.951825000000       5.323671957900       9.836887712400
        23    2        3.951825000000       0.760521957900       9.836887712400
        24    2        1.317275000000       5.323671957900       9.836887712400
        25    1        7.903650000000       0.000000000000       8.668450000000
        26    1        5.269100000000       4.563150000000       8.668450000000
        27    1        6.586375000000       2.281575000000       8.668450000000
        28    1        9.220925000000       6.844725000000       8.668450000000
        29    1        5.269100000000       0.000000000000       8.668450000000
        30    2        9.220925000000       0.760521957900       7.500012287600
        31    1        9.220925000000       2.281575000000       8.668450000000
        32    2        6.586375000000       5.323671957900       7.500012287600
        33    1        6.586375000000       6.844725000000       8.668450000000
        34    1        7.903650000000       4.563150000000       8.668450000000
        35    2        5.269100000000       3.042096957900       7.500012287600
        36    2        7.903650000000       7.605246957900       7.500012287600
        37    2        6.586375000000       0.760521957900       7.500012287600
        38    2        9.220925000000       5.323671957900       7.500012287600
        39    2        7.903650000000       3.042096957900       7.500012287600
        40    2        7.903650000000       3.042096957900       9.836887712400
        41    2        5.269100000000       7.605246957900       7.500012287600
        42    2        5.269100000000       7.605246957900       9.836887712400
        43    2        5.269100000000       3.042096957900       9.836887712400
        44    2        7.903650000000       7.605246957900       9.836887712400
        45    2        6.586375000000       0.760521957900       9.836887712400
        46    2        9.220925000000       5.323671957900       9.836887712400
        47    2        9.220925000000       0.760521957900       9.836887712400
        48    2        6.586375000000       5.323671957900       9.836887712400
        49    1       13.172750000000       0.000000000000       8.668450000000
        50    1       10.538200000000       4.563150000000       8.668450000000
        51    1       11.855475000000       2.281575000000       8.668450000000
        52    1       14.490025000000       6.844725000000       8.668450000000
        53    1       10.538200000000       0.000000000000       8.668450000000
        54    2       14.490025000000       0.760521957900       7.500012287600
        55    1       14.490025000000       2.281575000000       8.668450000000
        56    2       11.855475000000       5.323671957900       7.500012287600
        57    1       11.855475000000       6.844725000000       8.668450000000
        58    1       13.172750000000       4.563150000000       8.668450000000
        59    2       10.538200000000       3.042096957900       7.500012287600
        60    2       13.172750000000       7.605246957900       7.500012287600
        61    2       11.855475000000       0.760521957900       7.500012287600
        62    2       14.490025000000       5.323671957900       7.500012287600
        63    2       13.172750000000       3.042096957900       7.500012287600
        64    2       13.172750000000       3.042096957900       9.836887712400
        65    2       10.538200000000       7.605246957900       7.500012287600
        66    2       10.538200000000       7.605246957900       9.836887712400
        67    2       10.538200000000       3.042096957900       9.836887712400
        68    2       13.172750000000       7.605246957900       9.836887712400
        69    2       11.855475000000       0.760521957900       9.836887712400
        70    2       14.490025000000       5.323671957900       9.836887712400
        71    2       14.490025000000       0.760521957900       9.836887712400
        72    2       11.855475000000       5.323671957900       9.836887712400
        73    1       18.441850000000       0.000000000000       8.668450000000
        74    1       15.807300000000       4.563150000000       8.668450000000
        75    1       17.124575000000       2.281575000000       8.668450000000
        76    1       19.759125000000       6.844725000000       8.668450000000
        77    1       15.807300000000       0.000000000000       8.668450000000
        78    2       19.759125000000       0.760521957900       7.500012287600
        79    1       19.759125000000       2.281575000000       8.668450000000
        80    2       17.124575000000       5.323671957900       7.500012287600
        81    1       17.124575000000       6.844725000000       8.668450000000
        82    1       18.441850000000       4.563150000000       8.668450000000
        83    2       15.807300000000       3.042096957900       7.500012287600
        84    2       18.441850000000       7.605246957900       7.500012287600
        85    2       17.124575000000       0.760521957900       7.500012287600
        86    2       19.759125000000       5.323671957900       7.500012287600
        87    2       18.441850000000       3.042096957900       7.500012287600
        88    2       18.441850000000       3.042096957900       9.836887712400
        89    2       15.807300000000       7.605246957900       7.500012287600
        90    2       15.807300000000       7.605246957900       9.836887712400
        91    2       15.807300000000       3.042096957900       9.836887712400
        92    2       18.441850000000       7.605246957900       9.836887712400
        93    2       17.124575000000       0.760521957900       9.836887712400
        94    2       19.759125000000       5.323671957900       9.836887712400
        95    2       19.759125000000       0.760521957900       9.836887712400
        96    2       17.124575000000       5.323671957900       9.836887712400
        97    1       23.710950000000       0.000000000000       8.668450000000
        98    1       21.076400000000       4.563150000000       8.668450000000
        99    1       22.393675000000       2.281575000000       8.668450000000
       100    1       25.028225000000       6.844725000000       8.668450000000
       101    1       21.076400000000       0.000000000000       8.668450000000
       102    2       25.028225000000       0.760521957900       7.500012287600
       103    1       25.028225000000       2.281575000000       8.668450000000
       104    2       22.393675000000       5.323671957900       7.500012287600
       105    1       22.393675000000       6.844725000000       8.668450000000
       106    1       23.710950000000       4.563150000000       8.668450000000
       107    2       21.076400000000       3.042096957900       7.500012287600
       108    2       23.710950000000       7.605246957900       7.500012287600
       109    2       22.393675000000       0.760521957900       7.500012287600
       110    2       25.028225000000       5.323671957900       7.500012287600
       111    2       23.710950000000       3.042096957900       7.500012287600
       112    2       23.710950000000       3.042096957900       9.836887712400
       113    2       21.076400000000       7.605246957900       7.500012287600
       114    2       21.076400000000       7.605246957900       9.836887712400
       115    2       21.076400000000       3.042096957900       9.836887712400
       116    2       23.710950000000       7.605246957900       9.836887712400
       117    2       22.393675000000       0.760521957900       9.836887712400
       118    2       25.028225000000       5.323671957900       9.836887712400
       119    2       25.028225000000       0.760521957900       9.836887712400
       120    2       22.393675000000       5.323671957900       9.836887712400
       121    1       28.980050000000       0.000000000000       8.668450000000
       122    1       26.345500000000       4.563150000000       8.668450000000
       123    1       27.662775000000       2.281575000000       8.668450000000
       124    1       30.297325000000       6.844725000000       8.668450000000
       125    1       26.345500000000       0.000000000000       8.668450000000
       126    2       30.297325000000       0.760521957900       7.500012287600
       127    1       30.297325000000       2.281575000000       8.668450000000
       128    2       27.662775000000       5.323671957900       7.500012287600
       129    1       27.662775000000       6.844725000000       8.668450000000
       130    1       28.980050000000       4.563150000000       8.668450000000
       131    2       26.345500000000       3.042096957900       7.500012287600
       132    2       28.980050000000       7.605246957900       7.500012287600
       133    2       27.662775000000       0.760521957900       7.500012287600
       134    2       30.297325000000       5.323671957900       7.500012287600
       135    2       28.980050000000       3.042096957900       7.500012287600
       136    2       28.980050000000       3.042096957900       9.836887712400
       137    2       26.345500000000       7.605246957900       7.500012287600
       138    2       26.345500000000       7.605246957900       9.836887712400
       139    2       26.345500000000       3.042096957900       9.836887712400
       140    2       28.980050000000       7.605246957900       9.836887712400
       141    2       27.662775000000       0.760521957900       9.836887712400
       142    2       30.297325000000       5.323671957900       9.836887712400
       143    2       30.297325000000       0.760521957900       9.836887712400
       144    2       27.662775000000       5.323671957900       9.836887712400
       145    1       34.249150000000       0.000000000000       8.668450000000
       146    1       31.614600000000       4.563150000000       8.668450000000
       147    1       32.931875000000       2.281575000000       8.668450000000
       148    1       35.566425000000       6.844725000000       8.668450000000
       149    1       31.614600000000       0.000000000000       8.668450000000
       150    2       35.566425000000       0.760521957900       7.500012287600
       151    1       35.566425000000       2.281575000000       8.668450000000
       152    2       32.931875000000       5.323671957900       7.500012287600
       153    1       32.931875000000       6.844725000000       8.668450000000
       154    1       34.249150000000       4.563150000000       8.668450000000
       155    2       31.614600000000       3.042096957900       7.500012287600
       156    2       34.249150000000       7.605246957900       7.500012287600
       157    2       32.931875000000       0.760521957900       7.500012287600
       158    2       35.566425000000       5.323671957900       7.500012287600
       159    2       34.249150000000       3.042096957900       7.500012287600
       160    2       34.249150000000       3.042096957900       9.836887712400
       161    2       31.614600000000       7.605246957900       7.500012287600
       162    2       31.614600000000       7.605246957900       9.836887712400
       163    2       31.614600000000       3.042096957900       9.836887712400
       164    2       34.249150000000       7.605246957900       9.836887712400
       165    2       32.931875000000       0.760521957900       9.836887712400
       166    2       35.566425000000       5.323671957900       9.836887712400
       167    2       35.566425000000       0.760521957900       9.836887712400
       168    2       32.931875000000       5.323671957900       9.836887712400
       169    1       39.518250000000       0.000000000000       8.668450000000
       170    1       36.883700000000       4.563150000000       8.668450000000
       171    1       38.200975000000       2.281575000000       8.668450000000
       172    1       40.835525000000       6.844725000000       8.668450000000
       173    1       36.883700000000       0.000000000000       8.668450000000
       174    2       40.835525000000       0.760521957900       7.500012287600
       175    1       40.835525000000       2.281575000000       8.668450000000
       176    2       38.200975000000       5.323671957900       7.500012287600
       177    1       38.200975000000       6.844725000000       8.668450000000
       178    1       39.518250000000       4.563150000000       8.668450000000
       179    2       36.883700000000       3.042096957900       7.500012287600
       180    2       39.518250000000       7.605246957900       7.500012287600
       181    2       38.200975000000       0.760521957900       7.500012287600
       182    2       40.835525000000       5.323671957900       7.500012287600
       183    2       39.518250000000       3.042096957900       7.500012287600
       184    2       39.518250000000       3.042096957900       9.836887712400
       185    2       36.883700000000       7.605246957900       7.500012287600
       186    2       36.883700000000       7.605246957900       9.836887712400
       187    2       36.883700000000       3.042096957900       9.836887712400
       188    2       39.518250000000       7.605246957900       9.836887712400
       189    2       38.200975000000       0.760521957900       9.836887712400
       190    2       40.835525000000       5.323671957900       9.836887712400
       191    2       40.835525000000       0.760521957900       9.836887712400
       192    2       38.200975000000       5.323671957900       9.836887712400
       193    1       44.787350000000       0.000000000000       8.668450000000
       194    1       42.152800000000       4.563150000000       8.668450000000
       195    1       43.470075000000       2.281575000000       8.668450000000
       196    1       46.104625000000       6.844725000000       8.668450000000
       197    1       42.152800000000       0.000000000000       8.668450000000
       198    2       46.104625000000       0.760521957900       7.500012287600
       199    1       46.104625000000       2.281575000000       8.668450000000
       200    2       43.470075000000       5.323671957900       7.500012287600
       201    1       43.470075000000       6.844725000000       8.668450000000
       202    1       44.787350000000       4.563150000000       8.668450000000
       203    2       42.152800000000       3.042096957900       7.500012287600
       204    2       44.787350000000       7.605246957900       7.500012287600
       205    2       43.470075000000       0.760521957900       7.500012287600
       206    2       46.104625000000       5.323671957900       7.500012287600
       207    2       44.787350000000       3.042096957900       7.500012287600
       208    2       44.787350000000       3.042096957900       9.836887712400
       209    2       42.152800000000       7.605246957900       7.500012287600
       210    2       42.152800000000       7.605246957900       9.836887712400
       211    2       42.152800000000       3.042096957900       9.836887712400
       212    2       44.787350000000       7.605246957900       9.836887712400
       213    2       43.470075000000       0.760521957900       9.836887712400
       214    2       46.104625000000       5.323671957900       9.836887712400
       215    2       46.104625000000       0.760521957900       9.836887712400
       216    2       43.470075000000       5.323671957900       9.836887712400
       217    1       50.056450000000       0.000000000000       8.668450000000
       218    1       47.421900000000       4.563150000000       8.668450000000
       219    1       48.739175000000       2.281575000000       8.668450000000
       220    1       51.373725000000       6.844725000000       8.668450000000
       221    1       47.421900000000       0.000000000000       8.668450000000
       222    2       51.373725000000       0.760521957900       7.500012287600
       223    1       51.373725000000       2.281575000000       8.668450000000
       224    2       48.739175000000       5.323671957900       7.500012287600
       225    1       48.739175000000       6.844725000000       8.668450000000
       226    1       50.056450000000       4.563150000000       8.668450000000
       227    2       47.421900000000       3.042096957900       7.500012287600
       228    2       50.056450000000       7.605246957900       7.500012287600
       229    2       48.739175000000       0.760521957900       7.500012287600
       230    2       51.373725000000       5.323671957900       7.500012287600
       231    2       50.056450000000       3.042096957900       7.500012287600
       232    2       50.056450000000       3.042096957900       9.836887712400
       233    2       47.421900000000       7.605246957900       7.500012287600
       234    2       47.421900000000       7.605246957900       9.836887712400
       235    2       47.421900000000       3.042096957900       9.836887712400
       236    2       50.056450000000       7.605246957900       9.836887712400
       237    2       48.739175000000       0.760521957900       9.836887712400
       238    2       51.373725000000       5.323671957900       9.836887712400
       239    2       51.373725000000       0.760521957900       9.836887712400
       240    2       48.739175000000       5.323671957900       9.836887712400
       241    1       55.325550000000       0.000000000000       8.668450000000
       242    1       52.691000000000       4.563150000000       8.668450000000
       243    1       54.008275000000       2.281575000000       8.668450000000
       244    1       56.642825000000       6.844725000000       8.668450000000
       245    1       52.691000000000       0.000000000000       8.668450000000
       246    2       56.642825000000       0.760521957900       7.500012287600
       247    1       56.642825000000       2.281575000000       8.668450000000
       248    2       54.008275000000       5.323671957900       7.500012287600
       249    1       54.008275000000       6.844725000000       8.668450000000
       250    1       55.325550000000       4.563150000000       8.668450000000
       251    2       52.691000000000       3.042096957900       7.500012287600
       252    2       55.325550000000       7.605246957900       7.500012287600
       253    2       54.008275000000       0.760521957900       7.500012287600
       254    2       56.642825000000       5.323671957900       7.500012287600
       255    2       55.325550000000       3.042096957900       7.500012287600
       256    2       55.325550000000       3.042096957900       9.836887712400
       257    2       52.691000000000       7.605246957900       7.500012287600
       258    2       52.691000000000       7.605246957900       9.836887712400
       259    2       52.691000000000       3.042096957900       9.836887712400
       260    2       55.325550000000       7.605246957900       9.836887712400
       261    2       54.008275000000       0.760521957900       9.836887712400
       262    2       56.642825000000       5.323671957900       9.836887712400
       263    2       56.642825000000       0.760521957900       9.836887712400
       264    2       54.008275000000       5.323671957900       9.836887712400
       265    1       60.594650000000       0.000000000000       8.668450000000
       266    1       57.960100000000       4.563150000000       8.668450000000
       267    1       59.277375000000       2.281575000000       8.668450000000
       268    1       61.911925000000       6.844725000000       8.668450000000
       269    1       57.960100000000       0.000000000000       8.668450000000
       270    2       61.911925000000       0.760521957900       7.500012287600
       271    1       61.911925000000       2.281575000000       8.668450000000
       272    2       59.277375000000       5.323671957900       7.500012287600
       273    1       59.277375000000       6.844725000000       8.668450000000
       274    1       60.594650000000       4.563150000000       8.668450000000
       275    2       57.960100000000       3.042096957900       7.500012287600
       276    2       60.594650000000       7.605246957900       7.500012287600
       277    2       59.277375000000       0.760521957900       7.500012287600
       278    2       61.911925000000       5.323671957900       7.500012287600
       279    2       60.594650000000       3.042096957900       7.500012287600
       280    2       60.594650000000       3.042096957900       9.836887712400
       281    2       57.960100000000       7.605246957900       7.500012287600
       282    2       57.960100000000       7.605246957900       9.836887712400
       283    2       57.960100000000       3.042096957900       9.836887712400
       284    2       60.594650000000       7.605246957900       9.836887712400
       285    2       59.277375000000       0.760521957900       9.836887712400
       286    2       61.911925000000       5.323671957900       9.836887712400
       287    2       61.911925000000       0.760521957900       9.836887712400
       288    2       59.277375000000       5.323671957900       9.836887712400
       289    1       65.863750000000       0.000000000000       8.668450000000
       290    1       63.229200000000       4.563150000000       8.668450000000
       291    1       64.546475000000       2.281575000000       8.668450000000
       292    1       67.181025000000       6.844725000000       8.668450000000
       293    1       63.229200000000       0.000000000000       8.668450000000
       294    2       67.181025000000       0.760521957900       7.500012287600
       295    1       67.181025000000       2.281575000000       8.668450000000
       296    2       64.546475000000       5.323671957900       7.500012287600
       297    1       64.546475000000       6.844725000000       8.668450000000
       298    1       65.863750000000       4.563150000000       8.668450000000
       299    2       63.229200000000       3.042096957900       7.500012287600
       300    2       65.863750000000       7.605246957900       7.500012287600
       301    2       64.546475000000       0.760521957900       7.500012287600
       302    2       67.181025000000       5.323671957900       7.500012287600
       303    2       65.863750000000       3.042096957900       7.500012287600
       304    2       65.863750000000       3.042096957900       9.836887712400
       305    2       63.229200000000       7.605246957900       7.500012287600
       306    2       63.229200000000       7.605246957900       9.836887712400
       307    2       63.229200000000       3.042096957900       9.836887712400
       308    2       65.863750000000       7.605246957900       9.836887712400
       309    2       64.546475000000       0.760521957900       9.836887712400
       310    2       67.181025000000       5.323671957900       9.836887712400
       311    2       67.181025000000       0.760521957900       9.836887712400
       312    2       64.546475000000       5.323671957900       9.836887712400
       313    1       71.132850000000       0.000000000000       8.668450000000
       314    1       68.498300000000       4.563150000000       8.668450000000
       315    1       69.815575000000       2.281575000000       8.668450000000
       316    1       72.450125000000       6.844725000000       8.668450000000
       317    1       68.498300000000       0.000000000000       8.668450000000
       318    2       72.450125000000       0.760521957900       7.500012287600
       319    1       72.450125000000       2.281575000000       8.668450000000
       320    2       69.815575000000       5.323671957900       7.500012287600
       321    1       69.815575000000       6.844725000000       8.668450000000
       322    1       71.132850000000       4.563150000000       8.668450000000
       323    2       68.498300000000       3.042096957900       7.500012287600
       324    2       71.132850000000       7.605246957900       7.500012287600
       325    2       69.815575000000       0.760521957900       7.500012287600
       326    2       72.450125000000       5.323671957900       7.500012287600
       327    2       71.132850000000       3.042096957900       7.500012287600
       328    2       71.132850000000       3.042096957900       9.836887712400
       329    2       68.498300000000       7.605246957900       7.500012287600
       330    2       68.498300000000       7.605246957900       9.836887712400
       331    2       68.498300000000       3.042096957900       9.836887712400
       332    2       71.132850000000       7.605246957900       9.836887712400
       333    2       69.815575000000       0.760521957900       9.836887712400
       334    2       72.450125000000       5.323671957900       9.836887712400
       335    2       72.450125000000       0.760521957900       9.836887712400
       336    2       69.815575000000       5.323671957900       9.836887712400
       337    1       76.401950000000       0.000000000000       8.668450000000
       338    1       73.767400000000       4.563150000000       8.668450000000
       339    1       75.084675000000       2.281575000000       8.668450000000
       340    1       77.719225000000       6.844725000000       8.668450000000
       341    1       73.767400000000       0.000000000000       8.668450000000
       342    2       77.719225000000       0.760521957900       7.500012287600
       343    1       77.719225000000       2.281575000000       8.668450000000
       344    2       75.084675000000       5.323671957900       7.500012287600
       345    1       75.084675000000       6.844725000000       8.668450000000
       346    1       76.401950000000       4.563150000000       8.668450000000
       347    2       73.767400000000       3.042096957900       7.500012287600
       348    2       76.401950000000       7.605246957900       7.500012287600
       349    2       75.084675000000       0.760521957900       7.500012287600
       350    2       77.719225000000       5.323671957900       7.500012287600
       351    2       76.401950000000       3.042096957900       7.500012287600
       352    2       76.401950000000       3.042096957900       9.836887712400
       353    2       73.767400000000       7.605246957900       7.500012287600
       354    2       73.767400000000       7.605246957900       9.836887712400
       355    2       73.767400000000       3.042096957900       9.836887712400
       356    2       76.401950000000       7.605246957900       9.836887712400
       357    2       75.084675000000       0.760521957900       9.836887712400
       358    2       77.719225000000       5.323671957900       9.836887712400
       359    2       77.719225000000       0.760521957900       9.836887712400
       360    2       75.084675000000       5.323671957900       9.836887712400
       361    1       81.671050000000       0.000000000000       8.668450000000
       362    1       79.036500000000       4.563150000000       8.668450000000
       363    1       80.353775000000       2.281575000000       8.668450000000
       364    1       82.988325000000       6.844725000000       8.668450000000
       365    1       79.036500000000       0.000000000000       8.668450000000
       366    2       82.988325000000       0.760521957900       7.500012287600
       367    1       82.988325000000       2.281575000000       8.668450000000
       368    2       80.353775000000       5.323671957900       7.500012287600
       369    1       80.353775000000       6.844725000000       8.668450000000
       370    1       81.671050000000       4.563150000000       8.668450000000