 # Cr8 S16
  
        3456  atoms
           2  atom types
 
      0.000000000000      97.521600000000  xlo xhi
      0.000000000000      95.013900000000  ylo yhi
      0.000000000000      17.948200000000  zlo zhi
 
Masses
 
            1   51.99610000             # Cr
            2   32.06000000             # S
 
Atoms # atomic
 
         1    1        0.000000000000       0.000000000000       8.974100000000
         2    1        3.047550000000       5.278550000000       8.974100000000
         3    2        1.523775000000       0.879754814300      10.448185666000
         4    2        4.571325000000       6.158304814300      10.448185666000
         5    1        4.571325000000       2.639275000000       8.974100000000
         6    1        1.523775000000       7.917825000000       8.974100000000
         7    2        1.523775000000       0.879754814300       7.500014334000
         8    2        4.571325000000       6.158304814300       7.500014334000
         9    2        4.571325000000       0.879754814300      10.448185666000
        10    2        1.523775000000       6.158304814300      10.448185666000
        11    2        3.047550000000       3.519029814300      10.448185666000
        12    2        0.000000000000       8.797579814300      10.448185666000
        13    2        4.571325000000       0.879754814300       7.500014334000
        14    2        1.523775000000       6.158304814300       7.500014334000
        15    1        1.523775000000       2.639275000000       8.974100000000
        16    1        4.571325000000       7.917825000000       8.974100000000
        17    2        0.000000000000       3.519029814300       7.500014334000
        18    2        3.047550000000       8.797579814300       7.500014334000
        19    2        3.047550000000       3.519029814300       7.500014334000
        20    2        6.095100000000       8.797579814300       7.500014334000
        21    1        3.047550000000       0.000000000000       8.974100000000
        22    1        0.000000000000       5.278550000000       8.974100000000
        23    2        0.000000000000       3.519029814300      10.448185666000
        24    2        3.047550000000       8.797579814300      10.448185666000
        25    1        6.095100000000       0.000000000000       8.974100000000
        26    1        9.142650000000       5.278550000000       8.974100000000
        27    2        7.618875000000       0.879754814300      10.448185666000
        28    2       10.666425000000       6.158304814300      10.448185666000
        29    1       10.666425000000       2.639275000000       8.974100000000
        30    1        7.618875000000       7.917825000000       8.974100000000
        31    2        7.618875000000       0.879754814300       7.500014334000
        32    2       10.666425000000       6.158304814300       7.500014334000
        33    2       10.666425000000       0.879754814300      10.448185666000
        34    2        7.618875000000       6.158304814300      10.448185666000
        35    2        9.142650000000       3.519029814300      10.448185666000
        36    2        6.095100000000       8.797579814300      10.448185666000
        37    2       10.666425000000       0.879754814300       7.500014334000
        38    2        7.618875000000       6.158304814300       7.500014334000
        39    1        7.618875000000       2.639275000000       8.974100000000
        40    1       10.666425000000       7.917825000000       8.974100000000
        41    2        6.095100000000       3.519029814300       7.500014334000
        42    2        9.142650000000       8.797579814300       7.500014334000
        43    2        9.142650000000       3.519029814300       7.500014334000
        44    2       12.190200000000       8.797579814300       7.500014334000
        45    1        9.142650000000       0.000000000000       8.974100000000
        46    1        6.095100000000       5.278550000000       8.974100000000
        47    2        6.095100000000       3.519029814300      10.448185666000
        48    2        9.142650000000       8.797579814300      10.448185666000
        49    1       12.190200000000       0.000000000000       8.974100000000
        50    1       15.237750000000       5.278550000000       8.974100000000
        51    2       13.713975000000       0.879754814300      10.448185666000
        52    2       16.761525000000       6.158304814300      10.448185666000
        53    1       16.761525000000       2.639275000000       8.974100000000
        54    1       13.713975000000       7.917825000000       8.974100000000
        55    2       13.713975000000       0.879754814300       7.500014334000
        56    2       16.761525000000       6.158304814300       7.500014334000
        57    2       16.761525000000       0.879754814300      10.448185666000
        58    2       13.713975000000       6.158304814300      10.448185666000
        59    2       15.237750000000       3.519029814300      10.448185666000
        60    2       12.190200000000       8.797579814300      10.448185666000
        61    2       16.761525000000       0.879754814300       7.500014334000
        62    2       13.713975000000       6.158304814300       7.500014334000
        63    1       13.713975000000       2.639275000000       8.974100000000
        64    1       16.761525000000       7.917825000000       8.974100000000
        65    2       12.190200000000       3.519029814300       7.500014334000
        66    2       15.237750000000       8.797579814300       7.500014334000
        67    2       15.237750000000       3.519029814300       7.500014334000
        68    2       18.285300000000       8.797579814300       7.500014334000
        69    1       15.237750000000       0.000000000000       8.974100000000
        70    1       12.190200000000       5.278550000000       8.974100000000
        71    2       12.190200000000       3.519029814300      10.448185666000
        72    2       15.237750000000       8.797579814300      10.448185666000
        73    1       18.285300000000       0.000000000000       8.974100000000
        74    1       21.332850000000       5.278550000000       8.974100000000
        75    2       19.809075000000       0.879754814300      10.448185666000
        76    2       22.856625000000       6.158304814300      10.448185666000
        77    1       22.856625000000       2.639275000000       8.974100000000
        78    1       19.809075000000       7.917825000000       8.974100000000
        79    2       19.809075000000       0.879754814300       7.500014334000
        80    2       22.856625000000       6.158304814300       7.500014334000
        81    2       22.856625000000       0.879754814300      10.448185666000
        82    2       19.809075000000       6.158304814300      10.448185666000
        83    2       21.332850000000       3.519029814300      10.448185666000
        84    2       18.285300000000       8.797579814300      10.448185666000
        85    2       22.856625000000       0.879754814300       7.500014334000
        86    2       19.809075000000       6.158304814300       7.500014334000
        87    1       19.809075000000       2.639275000000       8.974100000000
        88    1       22.856625000000       7.917825000000       8.974100000000
        89    2       18.285300000000       3.519029814300       7.500014334000
        90    2       21.332850000000       8.797579814300       7.500014334000
        91    2       21.332850000000       3.519029814300       7.500014334000
        92    2       24.380400000000       8.797579814300       7.500014334000
        93    1       21.332850000000       0.000000000000       8.974100000000
        94    1       18.285300000000       5.278550000000       8.974100000000
        95    2       18.285300000000       3.519029814300      10.448185666000
        96    2       21.332850000000       8.797579814300      10.448185666000
        97    1       24.380400000000       0.000000000000       8.974100000000
        98    1       27.427950000000       5.278550000000       8.974100000000
        99    2       25.904175000000       0.879754814300      10.448185666000
       100    2       28.951725000000       6.158304814300      10.448185666000
       101    1       28.951725000000       2.639275000000       8.974100000000
       102    1       25.904175000000       7.917825000000       8.974100000000
       103    2       25.904175000000       0.879754814300       7.500014334000
       104    2       28.951725000000       6.158304814300       7.500014334000
       105    2       28.951725000000       0.879754814300      10.448185666000
       106    2       25.904175000000       6.158304814300      10.448185666000
       107    2       27.427950000000       3.519029814300      10.448185666000
       108    2       24.380400000000       8.797579814300      10.448185666000
       109    2       28.951725000000       0.879754814300       7.500014334000
       110    2       25.904175000000       6.158304814300       7.500014334000
       111    1       25.904175000000       2.639275000000       8.974100000000
       112    1       28.951725000000       7.917825000000       8.974100000000
       113    2       24.380400000000       3.519029814300       7.500014334000
       114    2       27.427950000000       8.797579814300       7.500014334000
       115    2       27.427950000000       3.519029814300       7.500014334000
       116    2       30.475500000000       8.797579814300       7.500014334000
       117    1       27.427950000000       0.000000000000       8.974100000000
       118    1       24.380400000000       5.278550000000       8.974100000000
       119    2       24.380400000000       3.519029814300      10.448185666000
       120    2       27.427950000000       8.797579814300      10.448185666000
       121    1       30.475500000000       0.000000000000       8.974100000000
       122    1       33.523050000000       5.278550000000       8.974100000000
       123    2       31.999275000000       0.879754814300      10.448185666000
       124    2       35.046825000000       6.158304814300      10.448185666000
       125    1       35.046825000000       2.639275000000       8.974100000000
       126    1       31.999275000000       7.917825000000       8.974100000000
       127    2       31.999275000000       0.879754814300       7.500014334000
       128    2       35.046825000000       6.158304814300       7.500014334000
       129    2       35.046825000000       0.879754814300      10.448185666000
       130    2       31.999275000000       6.158304814300      10.448185666000
       131    2       33.523050000000       3.519029814300      10.448185666000
       132    2       30.475500000000       8.797579814300      10.448185666000
       133    2       35.046825000000       0.879754814300       7.500014334000
       134    2       31.999275000000       6.158304814300       7.500014334000
       135    1       31.999275000000       2.639275000000       8.974100000000
       136    1       35.046825000000       7.917825000000       8.974100000000
       137    2       30.475500000000       3.519029814300       7.500014334000
       138    2       33.523050000000       8.797579814300       7.500014334000
       139    2       33.523050000000       3.519029814300       7.500014334000
       140    2       36.570600000000       8.797579814300       7.500014334000
       141    1       33.523050000000       0.000000000000       8.974100000000
       142    1       30.475500000000       5.278550000000       8.974100000000
       143    2       30.475500000000       3.519029814300      10.448185666000
       144    2       33.523050000000       8.797579814300      10.448185666000
       145    1       36.570600000000       0.000000000000       8.974100000000
       146    1       39.618150000000       5.278550000000       8.974100000000
       147    2       38.094375000000       0.879754814300      10.448185666000
       148    2       41.141925000000       6.158304814300      10.448185666000
       149    1       41.141925000000       2.639275000000       8.974100000000
       150    1       38.094375000000       7.917825000000       8.974100000000
       151    2       38.094375000000       0.879754814300       7.500014334000
       152    2       41.141925000000       6.158304814300       7.500014334000
       153    2       41.141925000000       0.879754814300      10.448185666000
       154    2       38.094375000000       6.158304814300      10.448185666000
       155    2       39.618150000000       3.519029814300      10.448185666000
       156    2       36.570600000000       8.797579814300      10.448185666000
       157    2       41.141925000000       0.879754814300       7.500014334000
       158    2       38.094375000000       6.158304814300       7.500014334000
       159    1       38.094375000000       2.639275000000       8.974100000000
       160    1       41.141925000000       7.917825000000       8.974100000000
       161    2       36.570600000000       3.519029814300       7.500014334000
       162    2       39.618150000000       8.797579814300       7.500014334000
       163    2       39.618150000000       3.519029814300       7.500014334000
       164    2       42.665700000000       8.797579814300       7.500014334000
       165    1       39.618150000000       0.000000000000       8.974100000000
       166    1       36.570600000000       5.278550000000       8.974100000000
       167    2       36.570600000000       3.519029814300      10.448185666000
       168    2       39.618150000000       8.797579814300      10.448185666000
       169    1       42.665700000000       0.000000000000       8.974100000000
       170    1       45.713250000000       5.278550000000       8.974100000000
       171    2       44.189475000000       0.879754814300      10.448185666000
       172    2       47.237025000000       6.158304814300      10.448185666000
       173    1       47.237025000000       2.639275000000       8.974100000000
       174    1       44.189475000000       7.917825000000       8.974100000000
       175    2       44.189475000000       0.879754814300       7.500014334000
       176    2       47.237025000000       6.158304814300       7.500014334000
       177    2       47.237025000000       0.879754814300      10.448185666000
       178    2       44.189475000000       6.158304814300      10.448185666000
       179    2       45.713250000000       3.519029814300      10.448185666000
       180    2       42.665700000000       8.797579814300      10.448185666000
       181    2       47.237025000000       0.879754814300       7.500014334000
       182    2       44.189475000000       6.158304814300       7.500014334000
       183    1       44.189475000000       2.639275000000       8.974100000000
       184    1       47.237025000000       7.917825000000       8.974100000000
       185    2       42.665700000000       3.519029814300       7.500014334000
       186    2       45.713250000000       8.797579814300       7.500014334000
       187    2       45.713250000000       3.519029814300       7.500014334000
       188    2       48.760800000000       8.797579814300       7.500014334000
       189    1       45.713250000000       0.000000000000       8.974100000000
       190    1       42.665700000000       5.278550000000       8.974100000000
       191    2       42.665700000000       3.519029814300      10.448185666000
       192    2       45.713250000000       8.797579814300      10.448185666000
       193    1       48.760800000000       0.000000000000       8.974100000000
       194    1       51.808350000000       5.278550000000       8.974100000000
       195    2       50.284575000000       0.879754814300      10.448185666000
       196    2       53.332125000000       6.158304814300      10.448185666000
       197    1       53.332125000000       2.639275000000       8.974100000000
       198    1       50.284575000000       7.917825000000       8.974100000000
       199    2       50.284575000000       0.879754814300       7.500014334000
       200    2       53.332125000000       6.158304814300       7.500014334000
       201    2       53.332125000000       0.879754814300      10.448185666000
       202    2       50.284575000000       6.158304814300      10.448185666000
       203    2       51.808350000000       3.519029814300      10.448185666000
       204    2       48.760800000000       8.797579814300      10.448185666000
       205    2       53.332125000000       0.879754814300       7.500014334000
       206    2       50.284575000000       6.158304814300       7.500014334000
       207    1       50.284575000000       2.639275000000       8.974100000000
       208    1       53.332125000000       7.917825000000       8.974100000000
       209    2       48.760800000000       3.519029814300       7.500014334000
       210    2       51.808350000000       8.797579814300       7.500014334000
       211    2       51.808350000000       3.519029814300       7.500014334000
       212    2       54.855900000000       8.797579814300       7.500014334000
       213    1       51.808350000000       0.000000000000       8.974100000000
       214    1       48.760800000000       5.278550000000       8.974100000000
       215    2       48.760800000000       3.519029814300      10.448185666000
       216    2       51.808350000000       8.797579814300      10.448185666000
       217    1       54.855900000000       0.000000000000       8.974100000000
       218    1       57.903450000000       5.278550000000       8.974100000000
       219    2       56.379675000000       0.879754814300      10.448185666000
       220    2       59.427225000000       6.158304814300      10.448185666000
       221    1       59.427225000000       2.639275000000       8.974100000000
       222    1       56.379675000000       7.917825000000       8.974100000000
       223    2       56.379675000000       0.879754814300       7.500014334000
       224    2       59.427225000000       6.158304814300       7.500014334000
       225    2       59.427225000000       0.879754814300      10.448185666000
       226    2       56.379675000000       6.158304814300      10.448185666000
       227    2       57.903450000000       3.519029814300      10.448185666000
       228    2       54.855900000000       8.797579814300      10.448185666000
       229    2       59.427225000000       0.879754814300       7.500014334000
       230    2       56.379675000000       6.158304814300       7.500014334000
       231    1       56.379675000000       2.639275000000       8.974100000000
       232    1       59.427225000000       7.917825000000       8.974100000000
       233    2       54.855900000000       3.519029814300       7.500014334000
       234    2       57.903450000000       8.797579814300       7.500014334000
       235    2       57.903450000000       3.519029814300       7.500014334000
       236    2       60.951000000000       8.797579814300       7.500014334000
       237    1       57.903450000000       0.000000000000       8.974100000000
       238    1       54.855900000000       5.278550000000       8.974100000000
       239    2       54.855900000000       3.519029814300      10.448185666000
       240    2       57.903450000000       8.797579814300      10.448185666000
       241    1       60.951000000000       0.000000000000       8.974100000000
       242    1       63.998550000000       5.278550000000       8.974100000000
       243    2       62.474775000000       0.879754814300      10.448185666000
       244    2       65.522325000000       6.158304814300      10.448185666000
       245    1       65.522325000000       2.639275000000       8.974100000000
       246    1       62.474775000000       7.917825000000       8.974100000000
       247    2       62.474775000000       0.879754814300       7.500014334000
       248    2       65.522325000000       6.158304814300       7.500014334000
       249    2       65.522325000000       0.879754814300      10.448185666000
       250    2       62.474775000000       6.158304814300      10.448185666000
       251    2       63.998550000000       3.519029814300      10.448185666000
       252    2       60.951000000000       8.797579814300      10.448185666000
       253    2       65.522325000000       0.879754814300       7.500014334000
       254    2       62.474775000000       6.158304814300       7.500014334000
       255    1       62.474775000000       2.639275000000       8.974100000000
       256    1       65.522325000000       7.917825000000       8.974100000000
       257    2       60.951000000000       3.519029814300       7.500014334000
       258    2       63.998550000000       8.797579814300       7.500014334000
       259    2       63.998550000000       3.519029814300       7.500014334000
       260    2       67.046100000000       8.797579814300       7.500014334000
       261    1       63.998550000000       0.000000000000       8.974100000000
       262    1       60.951000000000       5.278550000000       8.974100000000
       263    2       60.951000000000       3.519029814300      10.448185666000
       264    2       63.998550000000       8.797579814300      10.448185666000
       265    1       67.046100000000       0.000000000000       8.974100000000
       266    1       70.093650000000       5.278550000000       8.974100000000
       267    2       68.569875000000       0.879754814300      10.448185666000
       268    2       71.617425000000       6.158304814300      10.448185666000
       269    1       71.617425000000       2.639275000000       8.974100000000
       270    1       68.569875000000       7.917825000000       8.974100000000
       271    2       68.569875000000       0.879754814300       7.500014334000
       272    2       71.617425000000       6.158304814300       7.500014334000
       273    2       71.617425000000       0.879754814300      10.448185666000
       274    2       68.569875000000       6.158304814300      10.448185666000
       275    2       70.093650000000       3.519029814300      10.448185666000
       276    2       67.046100000000       8.797579814300      10.448185666000
       277    2       71.617425000000       0.879754814300       7.500014334000
       278    2       68.569875000000       6.158304814300       7.500014334000
       279    1       68.569875000000       2.639275000000       8.974100000000
       280    1       71.617425000000       7.917825000000       8.974100000000
       281    2       67.046100000000       3.519029814300       7.500014334000
       282    2       70.093650000000       8.797579814300       7.500014334000
       283    2       70.093650000000       3.519029814300       7.500014334000
       284    2       73.141200000000       8.797579814300       7.500014334000
       285    1       70.093650000000       0.000000000000       8.974100000000
       286    1       67.046100000000       5.278550000000       8.974100000000
       287    2       67.046100000000       3.519029814300      10.448185666000
       288    2       70.093650000000       8.797579814300      10.448185666000
       289    1       73.141200000000       0.000000000000       8.974100000000
       290    1       76.188750000000       5.278550000000       8.974100000000
       291    2       74.664975000000       0.879754814300      10.448185666000
       292    2       77.712525000000       6.158304814300      10.448185666000
       293    1       77.712525000000       2.639275000000       8.974100000000
       294    1       74.664975000000       7.917825000000       8.974100000000
       295    2       74.664975000000       0.879754814300       7.500014334000
       296    2       77.712525000000       6.158304814300       7.500014334000
       297    2       77.712525000000       0.879754814300      10.448185666000
       298    2       74.664975000000       6.158304814300      10.448185666000
       299    2       76.188750000000       3.519029814300      10.448185666000
       300    2       73.141200000000       8.797579814300      10.448185666000
       301    2       77.712525000000       0.879754814300       7.500014334000
       302    2       74.664975000000       6.158304814300       7.500014334000
       303    1       74.664975000000       2.639275000000       8.974100000000
       304    1       77.712525000000       7.917825000000       8.974100000000
       305    2       73.141200000000       3.519029814300       7.500014334000
       306    2       76.188750000000       8.797579814300       7.500014334000
       307    2       76.188750000000       3.519029814300       7.500014334000
       308    2       79.236300000000       8.797579814300       7.500014334000
       309    1       76.188750000000       0.000000000000       8.974100000000
       310    1       73.141200000000       5.278550000000       8.974100000000
       311    2       73.141200000000       3.519029814300      10.448185666000
       312    2       76.188750000000       8.797579814300      10.448185666000
       313    1       79.236300000000       0.000000000000       8.974100000000
       314    1       82.283850000000       5.278550000000       8.974100000000
       315    2       80.760075000000       0.879754814300      10.448185666000
       316    2       83.807625000000       6.158304814300      10.448185666000
       317    1       83.807625000000       2.639275000000       8.974100000000
       318    1       80.760075000000       7.917825000000       8.974100000000
       319    2       80.760075000000       0.879754814300       7.500014334000
       320    2       83.807625000000       6.158304814300       7.500014334000
       321    2       83.807625000000       0.879754814300      10.448185666000
       322    2       80.760075000000       6.158304814300      10.448185666000
       323    2       82.283850000000       3.519029814300      10.448185666000
       324    2       79.236300000000       8.797579814300      10.448185666000
       325    2       83.807625000000       0.879754814300       7.500014334000
       326    2       80.760075000000       6.158304814300       7.500014334000
       327    1       80.760075000000       2.639275000000       8.974100000000
       328    1       83.807625000000       7.917825000000       8.974100000000
       329    2       79.236300000000       3.519029814300       7.500014334000
       330    2       82.283850000000       8.797579814300       7.500014334000
       331    2       82.283850000000       3.519029814300       7.500014334000
       332    2       85.331400000000       8.797579814300       7.500014334000
       333    1       82.283850000000       0.000000000000       8.974100000000
       334    1       79.236300000000       5.278550000000       8.974100000000
       335    2       79.236300000000       3.519029814300      10.448185666000
       336    2       82.283850000000       8.797579814300      10.448185666000
       337    1       85.331400000000       0.000000000000       8.974100000000
       338    1       88.378950000000       5.278550000000       8.974100000000
       339    2       86.855175000000       0.879754814300      10.448185666000
       340    2       89.902725000000       6.158304814300      10.448185666000
       341    1       89.902725000000       2.639275000000       8.974100000000
       342    1       86.855175000000       7.917825000000       8.974100000000
       343    2       86.855175000000       0.879754814300       7.500014334000
       344    2       89.902725000000       6.158304814300       7.500014334000
       345    2       89.902725000000       0.879754814300      10.448185666000
       346    2       86.855175000000       6.158304814300      10.448185666000
       347    2       88.378950000000       3.519029814300      10.448185666000
       348    2       85.331400000000       8.797579814300      10.448185666000
       349    2       89.902725000000       0.879754814300       7.500014334000
       350    2       86.855175000000       6.158304814300       7.500014334000
       351    1       86.855175000000       2.639275000000       8.974100000000
       352    1       89.902725000000       7.917825000000       8.974100000000
       353    2       85.331400000000       3.519029814300       7.500014334000
       354    2       88.378950000000       8.797579814300       7.500014334000
       355    2       88.378950000000       3.519029814300       7.500014334000
       356    2       91.426500000000       8.797579814300       7.500014334000
       357    1       88.378950000000       0.000000000000       8.974100000000
       358    1       85.331400000000       5.278550000000       8.974100000000
       359    2       85.331400000000       3.519029814300      10.448185666000
       360    2       88.378950000000       8.797579814300      10.448185666000
       361    1       91.426500000000       0.000000000000       8.974100000000
       362    1       94.474050000000       5.278550000000       8.974100000000
       363    2       92.950275000000       0.879754814300      10.448185666000
       364    2       95.997825000000       6.158304814300      10.448185666000
       365    1       95.997825000000       2.639275000000       8.974100000000
       366    1       92.950275000000       7.917825000000       8.974100000000
       367    2       92.950275000000       0.879754814300       7.500014334000
       368    2       95.997825000000       6.158304814300       7.500014334000
       369    2       95.997825000000       0.879754814300      10.448185666000
       370    2       92.950275000000       6.158304814300      10.448185666000