 # Fe8 S16
  
        3456  atoms
           2  atom types
 
      0.000000000000     100.937600000000  xlo xhi
      0.000000000000      98.341200000000  ylo yhi
      0.000000000000      17.693500000000  zlo zhi
 
Masses
 
            1   55.84500000             # Fe
            2   32.06000000             # S
 
Atoms # atomic
 
         1    1        1.577150000000       2.731700000000       8.846750000000
         2    1        4.731450000000       8.195100000000       8.846750000000
         3    2        6.308600000000       3.642263024400      10.215589934000
         4    2        1.577150000000       0.910563024400       7.477910066000
         5    2        1.577150000000       0.910563024400      10.215589934000
         6    2        3.154300000000       9.105663024400      10.215589934000
         7    2        4.731450000000       6.373963024400       7.477910066000
         8    1        3.154300000000       0.000000000000       8.846750000000
         9    2        0.000000000000       3.642263024400       7.477910066000
        10    2        4.731450000000       6.373963024400      10.215589934000
        11    1        6.308600000000       5.463400000000       8.846750000000
        12    2        4.731450000000       0.910563024400       7.477910066000
        13    2        3.154300000000       9.105663024400       7.477910066000
        14    2        1.577150000000       6.373963024400       7.477910066000
        15    1        0.000000000000       0.000000000000       8.846750000000
        16    1        3.154300000000       5.463400000000       8.846750000000
        17    2        3.154300000000       3.642263024400       7.477910066000
        18    2        6.308600000000       9.105663024400       7.477910066000
        19    1        4.731450000000       2.731700000000       8.846750000000
        20    1        1.577150000000       8.195100000000       8.846750000000
        21    2        4.731450000000       0.910563024400      10.215589934000
        22    2        1.577150000000       6.373963024400      10.215589934000
        23    2        3.154300000000       3.642263024400      10.215589934000
        24    2        6.308600000000       9.105663024400      10.215589934000
        25    1        7.885750000000       2.731700000000       8.846750000000
        26    1       11.040050000000       8.195100000000       8.846750000000
        27    2       12.617200000000       3.642263024400      10.215589934000
        28    2        7.885750000000       0.910563024400       7.477910066000
        29    2        7.885750000000       0.910563024400      10.215589934000
        30    2        9.462900000000       9.105663024400      10.215589934000
        31    2       11.040050000000       6.373963024400       7.477910066000
        32    1        9.462900000000       0.000000000000       8.846750000000
        33    2        6.308600000000       3.642263024400       7.477910066000
        34    2       11.040050000000       6.373963024400      10.215589934000
        35    1       12.617200000000       5.463400000000       8.846750000000
        36    2       11.040050000000       0.910563024400       7.477910066000
        37    2        9.462900000000       9.105663024400       7.477910066000
        38    2        7.885750000000       6.373963024400       7.477910066000
        39    1        6.308600000000       0.000000000000       8.846750000000
        40    1        9.462900000000       5.463400000000       8.846750000000
        41    2        9.462900000000       3.642263024400       7.477910066000
        42    2       12.617200000000       9.105663024400       7.477910066000
        43    1       11.040050000000       2.731700000000       8.846750000000
        44    1        7.885750000000       8.195100000000       8.846750000000
        45    2       11.040050000000       0.910563024400      10.215589934000
        46    2        7.885750000000       6.373963024400      10.215589934000
        47    2        9.462900000000       3.642263024400      10.215589934000
        48    2       12.617200000000       9.105663024400      10.215589934000
        49    1       14.194350000000       2.731700000000       8.846750000000
        50    1       17.348650000000       8.195100000000       8.846750000000
        51    2       18.925800000000       3.642263024400      10.215589934000
        52    2       14.194350000000       0.910563024400       7.477910066000
        53    2       14.194350000000       0.910563024400      10.215589934000
        54    2       15.771500000000       9.105663024400      10.215589934000
        55    2       17.348650000000       6.373963024400       7.477910066000
        56    1       15.771500000000       0.000000000000       8.846750000000
        57    2       12.617200000000       3.642263024400       7.477910066000
        58    2       17.348650000000       6.373963024400      10.215589934000
        59    1       18.925800000000       5.463400000000       8.846750000000
        60    2       17.348650000000       0.910563024400       7.477910066000
        61    2       15.771500000000       9.105663024400       7.477910066000
        62    2       14.194350000000       6.373963024400       7.477910066000
        63    1       12.617200000000       0.000000000000       8.846750000000
        64    1       15.771500000000       5.463400000000       8.846750000000
        65    2       15.771500000000       3.642263024400       7.477910066000
        66    2       18.925800000000       9.105663024400       7.477910066000
        67    1       17.348650000000       2.731700000000       8.846750000000
        68    1       14.194350000000       8.195100000000       8.846750000000
        69    2       17.348650000000       0.910563024400      10.215589934000
        70    2       14.194350000000       6.373963024400      10.215589934000
        71    2       15.771500000000       3.642263024400      10.215589934000
        72    2       18.925800000000       9.105663024400      10.215589934000
        73    1       20.502950000000       2.731700000000       8.846750000000
        74    1       23.657250000000       8.195100000000       8.846750000000
        75    2       25.234400000000       3.642263024400      10.215589934000
        76    2       20.502950000000       0.910563024400       7.477910066000
        77    2       20.502950000000       0.910563024400      10.215589934000
        78    2       22.080100000000       9.105663024400      10.215589934000
        79    2       23.657250000000       6.373963024400       7.477910066000
        80    1       22.080100000000       0.000000000000       8.846750000000
        81    2       18.925800000000       3.642263024400       7.477910066000
        82    2       23.657250000000       6.373963024400      10.215589934000
        83    1       25.234400000000       5.463400000000       8.846750000000
        84    2       23.657250000000       0.910563024400       7.477910066000
        85    2       22.080100000000       9.105663024400       7.477910066000
        86    2       20.502950000000       6.373963024400       7.477910066000
        87    1       18.925800000000       0.000000000000       8.846750000000
        88    1       22.080100000000       5.463400000000       8.846750000000
        89    2       22.080100000000       3.642263024400       7.477910066000
        90    2       25.234400000000       9.105663024400       7.477910066000
        91    1       23.657250000000       2.731700000000       8.846750000000
        92    1       20.502950000000       8.195100000000       8.846750000000
        93    2       23.657250000000       0.910563024400      10.215589934000
        94    2       20.502950000000       6.373963024400      10.215589934000
        95    2       22.080100000000       3.642263024400      10.215589934000
        96    2       25.234400000000       9.105663024400      10.215589934000
        97    1       26.811550000000       2.731700000000       8.846750000000
        98    1       29.965850000000       8.195100000000       8.846750000000
        99    2       31.543000000000       3.642263024400      10.215589934000
       100    2       26.811550000000       0.910563024400       7.477910066000
       101    2       26.811550000000       0.910563024400      10.215589934000
       102    2       28.388700000000       9.105663024400      10.215589934000
       103    2       29.965850000000       6.373963024400       7.477910066000
       104    1       28.388700000000       0.000000000000       8.846750000000
       105    2       25.234400000000       3.642263024400       7.477910066000
       106    2       29.965850000000       6.373963024400      10.215589934000
       107    1       31.543000000000       5.463400000000       8.846750000000
       108    2       29.965850000000       0.910563024400       7.477910066000
       109    2       28.388700000000       9.105663024400       7.477910066000
       110    2       26.811550000000       6.373963024400       7.477910066000
       111    1       25.234400000000       0.000000000000       8.846750000000
       112    1       28.388700000000       5.463400000000       8.846750000000
       113    2       28.388700000000       3.642263024400       7.477910066000
       114    2       31.543000000000       9.105663024400       7.477910066000
       115    1       29.965850000000       2.731700000000       8.846750000000
       116    1       26.811550000000       8.195100000000       8.846750000000
       117    2       29.965850000000       0.910563024400      10.215589934000
       118    2       26.811550000000       6.373963024400      10.215589934000
       119    2       28.388700000000       3.642263024400      10.215589934000
       120    2       31.543000000000       9.105663024400      10.215589934000
       121    1       33.120150000000       2.731700000000       8.846750000000
       122    1       36.274450000000       8.195100000000       8.846750000000
       123    2       37.851600000000       3.642263024400      10.215589934000
       124    2       33.120150000000       0.910563024400       7.477910066000
       125    2       33.120150000000       0.910563024400      10.215589934000
       126    2       34.697300000000       9.105663024400      10.215589934000
       127    2       36.274450000000       6.373963024400       7.477910066000
       128    1       34.697300000000       0.000000000000       8.846750000000
       129    2       31.543000000000       3.642263024400       7.477910066000
       130    2       36.274450000000       6.373963024400      10.215589934000
       131    1       37.851600000000       5.463400000000       8.846750000000
       132    2       36.274450000000       0.910563024400       7.477910066000
       133    2       34.697300000000       9.105663024400       7.477910066000
       134    2       33.120150000000       6.373963024400       7.477910066000
       135    1       31.543000000000       0.000000000000       8.846750000000
       136    1       34.697300000000       5.463400000000       8.846750000000
       137    2       34.697300000000       3.642263024400       7.477910066000
       138    2       37.851600000000       9.105663024400       7.477910066000
       139    1       36.274450000000       2.731700000000       8.846750000000
       140    1       33.120150000000       8.195100000000       8.846750000000
       141    2       36.274450000000       0.910563024400      10.215589934000
       142    2       33.120150000000       6.373963024400      10.215589934000
       143    2       34.697300000000       3.642263024400      10.215589934000
       144    2       37.851600000000       9.105663024400      10.215589934000
       145    1       39.428750000000       2.731700000000       8.846750000000
       146    1       42.583050000000       8.195100000000       8.846750000000
       147    2       44.160200000000       3.642263024400      10.215589934000
       148    2       39.428750000000       0.910563024400       7.477910066000
       149    2       39.428750000000       0.910563024400      10.215589934000
       150    2       41.005900000000       9.105663024400      10.215589934000
       151    2       42.583050000000       6.373963024400       7.477910066000
       152    1       41.005900000000       0.000000000000       8.846750000000
       153    2       37.851600000000       3.642263024400       7.477910066000
       154    2       42.583050000000       6.373963024400      10.215589934000
       155    1       44.160200000000       5.463400000000       8.846750000000
       156    2       42.583050000000       0.910563024400       7.477910066000
       157    2       41.005900000000       9.105663024400       7.477910066000
       158    2       39.428750000000       6.373963024400       7.477910066000
       159    1       37.851600000000       0.000000000000       8.846750000000
       160    1       41.005900000000       5.463400000000       8.846750000000
       161    2       41.005900000000       3.642263024400       7.477910066000
       162    2       44.160200000000       9.105663024400       7.477910066000
       163    1       42.583050000000       2.731700000000       8.846750000000
       164    1       39.428750000000       8.195100000000       8.846750000000
       165    2       42.583050000000       0.910563024400      10.215589934000
       166    2       39.428750000000       6.373963024400      10.215589934000
       167    2       41.005900000000       3.642263024400      10.215589934000
       168    2       44.160200000000       9.105663024400      10.215589934000
       169    1       45.737350000000       2.731700000000       8.846750000000
       170    1       48.891650000000       8.195100000000       8.846750000000
       171    2       50.468800000000       3.642263024400      10.215589934000
       172    2       45.737350000000       0.910563024400       7.477910066000
       173    2       45.737350000000       0.910563024400      10.215589934000
       174    2       47.314500000000       9.105663024400      10.215589934000
       175    2       48.891650000000       6.373963024400       7.477910066000
       176    1       47.314500000000       0.000000000000       8.846750000000
       177    2       44.160200000000       3.642263024400       7.477910066000
       178    2       48.891650000000       6.373963024400      10.215589934000
       179    1       50.468800000000       5.463400000000       8.846750000000
       180    2       48.891650000000       0.910563024400       7.477910066000
       181    2       47.314500000000       9.105663024400       7.477910066000
       182    2       45.737350000000       6.373963024400       7.477910066000
       183    1       44.160200000000       0.000000000000       8.846750000000
       184    1       47.314500000000       5.463400000000       8.846750000000
       185    2       47.314500000000       3.642263024400       7.477910066000
       186    2       50.468800000000       9.105663024400       7.477910066000
       187    1       48.891650000000       2.731700000000       8.846750000000
       188    1       45.737350000000       8.195100000000       8.846750000000
       189    2       48.891650000000       0.910563024400      10.215589934000
       190    2       45.737350000000       6.373963024400      10.215589934000
       191    2       47.314500000000       3.642263024400      10.215589934000
       192    2       50.468800000000       9.105663024400      10.215589934000
       193    1       52.045950000000       2.731700000000       8.846750000000
       194    1       55.200250000000       8.195100000000       8.846750000000
       195    2       56.777400000000       3.642263024400      10.215589934000
       196    2       52.045950000000       0.910563024400       7.477910066000
       197    2       52.045950000000       0.910563024400      10.215589934000
       198    2       53.623100000000       9.105663024400      10.215589934000
       199    2       55.200250000000       6.373963024400       7.477910066000
       200    1       53.623100000000       0.000000000000       8.846750000000
       201    2       50.468800000000       3.642263024400       7.477910066000
       202    2       55.200250000000       6.373963024400      10.215589934000
       203    1       56.777400000000       5.463400000000       8.846750000000
       204    2       55.200250000000       0.910563024400       7.477910066000
       205    2       53.623100000000       9.105663024400       7.477910066000
       206    2       52.045950000000       6.373963024400       7.477910066000
       207    1       50.468800000000       0.000000000000       8.846750000000
       208    1       53.623100000000       5.463400000000       8.846750000000
       209    2       53.623100000000       3.642263024400       7.477910066000
       210    2       56.777400000000       9.105663024400       7.477910066000
       211    1       55.200250000000       2.731700000000       8.846750000000
       212    1       52.045950000000       8.195100000000       8.846750000000
       213    2       55.200250000000       0.910563024400      10.215589934000
       214    2       52.045950000000       6.373963024400      10.215589934000
       215    2       53.623100000000       3.642263024400      10.215589934000
       216    2       56.777400000000       9.105663024400      10.215589934000
       217    1       58.354550000000       2.731700000000       8.846750000000
       218    1       61.508850000000       8.195100000000       8.846750000000
       219    2       63.086000000000       3.642263024400      10.215589934000
       220    2       58.354550000000       0.910563024400       7.477910066000
       221    2       58.354550000000       0.910563024400      10.215589934000
       222    2       59.931700000000       9.105663024400      10.215589934000
       223    2       61.508850000000       6.373963024400       7.477910066000
       224    1       59.931700000000       0.000000000000       8.846750000000
       225    2       56.777400000000       3.642263024400       7.477910066000
       226    2       61.508850000000       6.373963024400      10.215589934000
       227    1       63.086000000000       5.463400000000       8.846750000000
       228    2       61.508850000000       0.910563024400       7.477910066000
       229    2       59.931700000000       9.105663024400       7.477910066000
       230    2       58.354550000000       6.373963024400       7.477910066000
       231    1       56.777400000000       0.000000000000       8.846750000000
       232    1       59.931700000000       5.463400000000       8.846750000000
       233    2       59.931700000000       3.642263024400       7.477910066000
       234    2       63.086000000000       9.105663024400       7.477910066000
       235    1       61.508850000000       2.731700000000       8.846750000000
       236    1       58.354550000000       8.195100000000       8.846750000000
       237    2       61.508850000000       0.910563024400      10.215589934000
       238    2       58.354550000000       6.373963024400      10.215589934000
       239    2       59.931700000000       3.642263024400      10.215589934000
       240    2       63.086000000000       9.105663024400      10.215589934000
       241    1       64.663150000000       2.731700000000       8.846750000000
       242    1       67.817450000000       8.195100000000       8.846750000000
       243    2       69.394600000000       3.642263024400      10.215589934000
       244    2       64.663150000000       0.910563024400       7.477910066000
       245    2       64.663150000000       0.910563024400      10.215589934000
       246    2       66.240300000000       9.105663024400      10.215589934000
       247    2       67.817450000000       6.373963024400       7.477910066000
       248    1       66.240300000000       0.000000000000       8.846750000000
       249    2       63.086000000000       3.642263024400       7.477910066000
       250    2       67.817450000000       6.373963024400      10.215589934000
       251    1       69.394600000000       5.463400000000       8.846750000000
       252    2       67.817450000000       0.910563024400       7.477910066000
       253    2       66.240300000000       9.105663024400       7.477910066000
       254    2       64.663150000000       6.373963024400       7.477910066000
       255    1       63.086000000000       0.000000000000       8.846750000000
       256    1       66.240300000000       5.463400000000       8.846750000000
       257    2       66.240300000000       3.642263024400       7.477910066000
       258    2       69.394600000000       9.105663024400       7.477910066000
       259    1       67.817450000000       2.731700000000       8.846750000000
       260    1       64.663150000000       8.195100000000       8.846750000000
       261    2       67.817450000000       0.910563024400      10.215589934000
       262    2       64.663150000000       6.373963024400      10.215589934000
       263    2       66.240300000000       3.642263024400      10.215589934000
       264    2       69.394600000000       9.105663024400      10.215589934000
       265    1       70.971750000000       2.731700000000       8.846750000000
       266    1       74.126050000000       8.195100000000       8.846750000000
       267    2       75.703200000000       3.642263024400      10.215589934000
       268    2       70.971750000000       0.910563024400       7.477910066000
       269    2       70.971750000000       0.910563024400      10.215589934000
       270    2       72.548900000000       9.105663024400      10.215589934000
       271    2       74.126050000000       6.373963024400       7.477910066000
       272    1       72.548900000000       0.000000000000       8.846750000000
       273    2       69.394600000000       3.642263024400       7.477910066000
       274    2       74.126050000000       6.373963024400      10.215589934000
       275    1       75.703200000000       5.463400000000       8.846750000000
       276    2       74.126050000000       0.910563024400       7.477910066000
       277    2       72.548900000000       9.105663024400       7.477910066000
       278    2       70.971750000000       6.373963024400       7.477910066000
       279    1       69.394600000000       0.000000000000       8.846750000000
       280    1       72.548900000000       5.463400000000       8.846750000000
       281    2       72.548900000000       3.642263024400       7.477910066000
       282    2       75.703200000000       9.105663024400       7.477910066000
       283    1       74.126050000000       2.731700000000       8.846750000000
       284    1       70.971750000000       8.195100000000       8.846750000000
       285    2       74.126050000000       0.910563024400      10.215589934000
       286    2       70.971750000000       6.373963024400      10.215589934000
       287    2       72.548900000000       3.642263024400      10.215589934000
       288    2       75.703200000000       9.105663024400      10.215589934000
       289    1       77.280350000000       2.731700000000       8.846750000000
       290    1       80.434650000000       8.195100000000       8.846750000000
       291    2       82.011800000000       3.642263024400      10.215589934000
       292    2       77.280350000000       0.910563024400       7.477910066000
       293    2       77.280350000000       0.910563024400      10.215589934000
       294    2       78.857500000000       9.105663024400      10.215589934000
       295    2       80.434650000000       6.373963024400       7.477910066000
       296    1       78.857500000000       0.000000000000       8.846750000000
       297    2       75.703200000000       3.642263024400       7.477910066000
       298    2       80.434650000000       6.373963024400      10.215589934000
       299    1       82.011800000000       5.463400000000       8.846750000000
       300    2       80.434650000000       0.910563024400       7.477910066000
       301    2       78.857500000000       9.105663024400       7.477910066000
       302    2       77.280350000000       6.373963024400       7.477910066000
       303    1       75.703200000000       0.000000000000       8.846750000000
       304    1       78.857500000000       5.463400000000       8.846750000000
       305    2       78.857500000000       3.642263024400       7.477910066000
       306    2       82.011800000000       9.105663024400       7.477910066000
       307    1       80.434650000000       2.731700000000       8.846750000000
       308    1       77.280350000000       8.195100000000       8.846750000000
       309    2       80.434650000000       0.910563024400      10.215589934000
       310    2       77.280350000000       6.373963024400      10.215589934000
       311    2       78.857500000000       3.642263024400      10.215589934000
       312    2       82.011800000000       9.105663024400      10.215589934000
       313    1       83.588950000000       2.731700000000       8.846750000000
       314    1       86.743250000000       8.195100000000       8.846750000000
       315    2       88.320400000000       3.642263024400      10.215589934000
       316    2       83.588950000000       0.910563024400       7.477910066000
       317    2       83.588950000000       0.910563024400      10.215589934000
       318    2       85.166100000000       9.105663024400      10.215589934000
       319    2       86.743250000000       6.373963024400       7.477910066000
       320    1       85.166100000000       0.000000000000       8.846750000000
       321    2       82.011800000000       3.642263024400       7.477910066000
       322    2       86.743250000000       6.373963024400      10.215589934000
       323    1       88.320400000000       5.463400000000       8.846750000000
       324    2       86.743250000000       0.910563024400       7.477910066000
       325    2       85.166100000000       9.105663024400       7.477910066000
       326    2       83.588950000000       6.373963024400       7.477910066000
       327    1       82.011800000000       0.000000000000       8.846750000000
       328    1       85.166100000000       5.463400000000       8.846750000000
       329    2       85.166100000000       3.642263024400       7.477910066000
       330    2       88.320400000000       9.105663024400       7.477910066000
       331    1       86.743250000000       2.731700000000       8.846750000000
       332    1       83.588950000000       8.195100000000       8.846750000000
       333    2       86.743250000000       0.910563024400      10.215589934000
       334    2       83.588950000000       6.373963024400      10.215589934000
       335    2       85.166100000000       3.642263024400      10.215589934000
       336    2       88.320400000000       9.105663024400      10.215589934000
       337    1       89.897550000000       2.731700000000       8.846750000000
       338    1       93.051850000000       8.195100000000       8.846750000000
       339    2       94.629000000000       3.642263024400      10.215589934000
       340    2       89.897550000000       0.910563024400       7.477910066000
       341    2       89.897550000000       0.910563024400      10.215589934000
       342    2       91.474700000000       9.105663024400      10.215589934000
       343    2       93.051850000000       6.373963024400       7.477910066000
       344    1       91.474700000000       0.000000000000       8.846750000000
       345    2       88.320400000000       3.642263024400       7.477910066000
       346    2       93.051850000000       6.373963024400      10.215589934000
       347    1       94.629000000000       5.463400000000       8.846750000000
       348    2       93.051850000000       0.910563024400       7.477910066000
       349    2       91.474700000000       9.105663024400       7.477910066000
       350    2       89.897550000000       6.373963024400       7.477910066000
       351    1       88.320400000000       0.000000000000       8.846750000000
       352    1       91.474700000000       5.463400000000       8.846750000000
       353    2       91.474700000000       3.642263024400       7.477910066000
       354    2       94.629000000000       9.105663024400       7.477910066000
       355    1       93.051850000000       2.731700000000       8.846750000000
       356    1       89.897550000000       8.195100000000       8.846750000000
       357    2       93.051850000000       0.910563024400      10.215589934000
       358    2       89.897550000000       6.373963024400      10.215589934000
       359    2       91.474700000000       3.642263024400      10.215589934000
       360    2       94.629000000000       9.105663024400      10.215589934000
       361    1       96.206150000000       2.731700000000       8.846750000000
       362    1       99.360450000000       8.195100000000       8.846750000000
       363    2      100.937600000000       3.642263024400      10.215589934000
       364    2       96.206150000000       0.910563024400       7.477910066000
       365    2       96.206150000000       0.910563024400      10.215589934000
       366    2       97.783300000000       9.105663024400      10.215589934000
       367    2       99.360450000000       6.373963024400       7.477910066000
       368    1       97.783300000000       0.000000000000       8.846750000000
       369    2       94.629000000000       3.642263024400       7.477910066000
       370    2       99.360450000000       6.373963024400      10.215589934000