 # Fe8 Se16
  
        3240  atoms
           2  atom types
 
      0.000000000000      98.820000000000  xlo xhi
      0.000000000000     102.696300000000  ylo yhi
      0.000000000000      17.889800000000  zlo zhi
 
Masses
 
            1   55.84500000             # Fe
            2   78.96000000             # Se
 
Atoms # atomic
 
         1    1        0.000000000000       0.000000000000       8.944900000000
         2    1        3.294000000000       5.705350000000       8.944900000000
         3    2        4.941000000000       0.950887863100      10.455675720200
         4    2        1.647000000000       6.656237863100      10.455675720200
         5    2        0.000000000000       3.803562863100      10.455675720200
         6    1        4.941000000000       2.852675000000       8.944900000000
         7    2        4.941000000000       0.950887863100       7.434124279800
         8    1        1.647000000000       8.558025000000       8.944900000000
         9    2        3.294000000000       9.508912863100      10.455675720200
        10    2        1.647000000000       6.656237863100       7.434124279800
        11    2        0.000000000000       3.803562863100       7.434124279800
        12    2        3.294000000000       9.508912863100       7.434124279800
        13    2        3.294000000000       3.803562863100      10.455675720200
        14    2        0.000000000000       9.508912863100      10.455675720200
        15    2        3.294000000000       3.803562863100       7.434124279800
        16    2        0.000000000000       9.508912863100       7.434124279800
        17    2        1.647000000000       0.950887863100      10.455675720200
        18    2        4.941000000000       6.656237863100      10.455675720200
        19    1        3.294000000000       0.000000000000       8.944900000000
        20    1        0.000000000000       5.705350000000       8.944900000000
        21    1        1.647000000000       2.852675000000       8.944900000000
        22    1        4.941000000000       8.558025000000       8.944900000000
        23    2        1.647000000000       0.950887863100       7.434124279800
        24    2        4.941000000000       6.656237863100       7.434124279800
        25    1        6.588000000000       0.000000000000       8.944900000000
        26    1        9.882000000000       5.705350000000       8.944900000000
        27    2       11.529000000000       0.950887863100      10.455675720200
        28    2        8.235000000000       6.656237863100      10.455675720200
        29    2        6.588000000000       3.803562863100      10.455675720200
        30    1       11.529000000000       2.852675000000       8.944900000000
        31    2       11.529000000000       0.950887863100       7.434124279800
        32    1        8.235000000000       8.558025000000       8.944900000000
        33    2        9.882000000000       9.508912863100      10.455675720200
        34    2        8.235000000000       6.656237863100       7.434124279800
        35    2        6.588000000000       3.803562863100       7.434124279800
        36    2        9.882000000000       9.508912863100       7.434124279800
        37    2        9.882000000000       3.803562863100      10.455675720200
        38    2        6.588000000000       9.508912863100      10.455675720200
        39    2        9.882000000000       3.803562863100       7.434124279800
        40    2        6.588000000000       9.508912863100       7.434124279800
        41    2        8.235000000000       0.950887863100      10.455675720200
        42    2       11.529000000000       6.656237863100      10.455675720200
        43    1        9.882000000000       0.000000000000       8.944900000000
        44    1        6.588000000000       5.705350000000       8.944900000000
        45    1        8.235000000000       2.852675000000       8.944900000000
        46    1       11.529000000000       8.558025000000       8.944900000000
        47    2        8.235000000000       0.950887863100       7.434124279800
        48    2       11.529000000000       6.656237863100       7.434124279800
        49    1       13.176000000000       0.000000000000       8.944900000000
        50    1       16.470000000000       5.705350000000       8.944900000000
        51    2       18.117000000000       0.950887863100      10.455675720200
        52    2       14.823000000000       6.656237863100      10.455675720200
        53    2       13.176000000000       3.803562863100      10.455675720200
        54    1       18.117000000000       2.852675000000       8.944900000000
        55    2       18.117000000000       0.950887863100       7.434124279800
        56    1       14.823000000000       8.558025000000       8.944900000000
        57    2       16.470000000000       9.508912863100      10.455675720200
        58    2       14.823000000000       6.656237863100       7.434124279800
        59    2       13.176000000000       3.803562863100       7.434124279800
        60    2       16.470000000000       9.508912863100       7.434124279800
        61    2       16.470000000000       3.803562863100      10.455675720200
        62    2       13.176000000000       9.508912863100      10.455675720200
        63    2       16.470000000000       3.803562863100       7.434124279800
        64    2       13.176000000000       9.508912863100       7.434124279800
        65    2       14.823000000000       0.950887863100      10.455675720200
        66    2       18.117000000000       6.656237863100      10.455675720200
        67    1       16.470000000000       0.000000000000       8.944900000000
        68    1       13.176000000000       5.705350000000       8.944900000000
        69    1       14.823000000000       2.852675000000       8.944900000000
        70    1       18.117000000000       8.558025000000       8.944900000000
        71    2       14.823000000000       0.950887863100       7.434124279800
        72    2       18.117000000000       6.656237863100       7.434124279800
        73    1       19.764000000000       0.000000000000       8.944900000000
        74    1       23.058000000000       5.705350000000       8.944900000000
        75    2       24.705000000000       0.950887863100      10.455675720200
        76    2       21.411000000000       6.656237863100      10.455675720200
        77    2       19.764000000000       3.803562863100      10.455675720200
        78    1       24.705000000000       2.852675000000       8.944900000000
        79    2       24.705000000000       0.950887863100       7.434124279800
        80    1       21.411000000000       8.558025000000       8.944900000000
        81    2       23.058000000000       9.508912863100      10.455675720200
        82    2       21.411000000000       6.656237863100       7.434124279800
        83    2       19.764000000000       3.803562863100       7.434124279800
        84    2       23.058000000000       9.508912863100       7.434124279800
        85    2       23.058000000000       3.803562863100      10.455675720200
        86    2       19.764000000000       9.508912863100      10.455675720200
        87    2       23.058000000000       3.803562863100       7.434124279800
        88    2       19.764000000000       9.508912863100       7.434124279800
        89    2       21.411000000000       0.950887863100      10.455675720200
        90    2       24.705000000000       6.656237863100      10.455675720200
        91    1       23.058000000000       0.000000000000       8.944900000000
        92    1       19.764000000000       5.705350000000       8.944900000000
        93    1       21.411000000000       2.852675000000       8.944900000000
        94    1       24.705000000000       8.558025000000       8.944900000000
        95    2       21.411000000000       0.950887863100       7.434124279800
        96    2       24.705000000000       6.656237863100       7.434124279800
        97    1       26.352000000000       0.000000000000       8.944900000000
        98    1       29.646000000000       5.705350000000       8.944900000000
        99    2       31.293000000000       0.950887863100      10.455675720200
       100    2       27.999000000000       6.656237863100      10.455675720200
       101    2       26.352000000000       3.803562863100      10.455675720200
       102    1       31.293000000000       2.852675000000       8.944900000000
       103    2       31.293000000000       0.950887863100       7.434124279800
       104    1       27.999000000000       8.558025000000       8.944900000000
       105    2       29.646000000000       9.508912863100      10.455675720200
       106    2       27.999000000000       6.656237863100       7.434124279800
       107    2       26.352000000000       3.803562863100       7.434124279800
       108    2       29.646000000000       9.508912863100       7.434124279800
       109    2       29.646000000000       3.803562863100      10.455675720200
       110    2       26.352000000000       9.508912863100      10.455675720200
       111    2       29.646000000000       3.803562863100       7.434124279800
       112    2       26.352000000000       9.508912863100       7.434124279800
       113    2       27.999000000000       0.950887863100      10.455675720200
       114    2       31.293000000000       6.656237863100      10.455675720200
       115    1       29.646000000000       0.000000000000       8.944900000000
       116    1       26.352000000000       5.705350000000       8.944900000000
       117    1       27.999000000000       2.852675000000       8.944900000000
       118    1       31.293000000000       8.558025000000       8.944900000000
       119    2       27.999000000000       0.950887863100       7.434124279800
       120    2       31.293000000000       6.656237863100       7.434124279800
       121    1       32.940000000000       0.000000000000       8.944900000000
       122    1       36.234000000000       5.705350000000       8.944900000000
       123    2       37.881000000000       0.950887863100      10.455675720200
       124    2       34.587000000000       6.656237863100      10.455675720200
       125    2       32.940000000000       3.803562863100      10.455675720200
       126    1       37.881000000000       2.852675000000       8.944900000000
       127    2       37.881000000000       0.950887863100       7.434124279800
       128    1       34.587000000000       8.558025000000       8.944900000000
       129    2       36.234000000000       9.508912863100      10.455675720200
       130    2       34.587000000000       6.656237863100       7.434124279800
       131    2       32.940000000000       3.803562863100       7.434124279800
       132    2       36.234000000000       9.508912863100       7.434124279800
       133    2       36.234000000000       3.803562863100      10.455675720200
       134    2       32.940000000000       9.508912863100      10.455675720200
       135    2       36.234000000000       3.803562863100       7.434124279800
       136    2       32.940000000000       9.508912863100       7.434124279800
       137    2       34.587000000000       0.950887863100      10.455675720200
       138    2       37.881000000000       6.656237863100      10.455675720200
       139    1       36.234000000000       0.000000000000       8.944900000000
       140    1       32.940000000000       5.705350000000       8.944900000000
       141    1       34.587000000000       2.852675000000       8.944900000000
       142    1       37.881000000000       8.558025000000       8.944900000000
       143    2       34.587000000000       0.950887863100       7.434124279800
       144    2       37.881000000000       6.656237863100       7.434124279800
       145    1       39.528000000000       0.000000000000       8.944900000000
       146    1       42.822000000000       5.705350000000       8.944900000000
       147    2       44.469000000000       0.950887863100      10.455675720200
       148    2       41.175000000000       6.656237863100      10.455675720200
       149    2       39.528000000000       3.803562863100      10.455675720200
       150    1       44.469000000000       2.852675000000       8.944900000000
       151    2       44.469000000000       0.950887863100       7.434124279800
       152    1       41.175000000000       8.558025000000       8.944900000000
       153    2       42.822000000000       9.508912863100      10.455675720200
       154    2       41.175000000000       6.656237863100       7.434124279800
       155    2       39.528000000000       3.803562863100       7.434124279800
       156    2       42.822000000000       9.508912863100       7.434124279800
       157    2       42.822000000000       3.803562863100      10.455675720200
       158    2       39.528000000000       9.508912863100      10.455675720200
       159    2       42.822000000000       3.803562863100       7.434124279800
       160    2       39.528000000000       9.508912863100       7.434124279800
       161    2       41.175000000000       0.950887863100      10.455675720200
       162    2       44.469000000000       6.656237863100      10.455675720200
       163    1       42.822000000000       0.000000000000       8.944900000000
       164    1       39.528000000000       5.705350000000       8.944900000000
       165    1       41.175000000000       2.852675000000       8.944900000000
       166    1       44.469000000000       8.558025000000       8.944900000000
       167    2       41.175000000000       0.950887863100       7.434124279800
       168    2       44.469000000000       6.656237863100       7.434124279800
       169    1       46.116000000000       0.000000000000       8.944900000000
       170    1       49.410000000000       5.705350000000       8.944900000000
       171    2       51.057000000000       0.950887863100      10.455675720200
       172    2       47.763000000000       6.656237863100      10.455675720200
       173    2       46.116000000000       3.803562863100      10.455675720200
       174    1       51.057000000000       2.852675000000       8.944900000000
       175    2       51.057000000000       0.950887863100       7.434124279800
       176    1       47.763000000000       8.558025000000       8.944900000000
       177    2       49.410000000000       9.508912863100      10.455675720200
       178    2       47.763000000000       6.656237863100       7.434124279800
       179    2       46.116000000000       3.803562863100       7.434124279800
       180    2       49.410000000000       9.508912863100       7.434124279800
       181    2       49.410000000000       3.803562863100      10.455675720200
       182    2       46.116000000000       9.508912863100      10.455675720200
       183    2       49.410000000000       3.803562863100       7.434124279800
       184    2       46.116000000000       9.508912863100       7.434124279800
       185    2       47.763000000000       0.950887863100      10.455675720200
       186    2       51.057000000000       6.656237863100      10.455675720200
       187    1       49.410000000000       0.000000000000       8.944900000000
       188    1       46.116000000000       5.705350000000       8.944900000000
       189    1       47.763000000000       2.852675000000       8.944900000000
       190    1       51.057000000000       8.558025000000       8.944900000000
       191    2       47.763000000000       0.950887863100       7.434124279800
       192    2       51.057000000000       6.656237863100       7.434124279800
       193    1       52.704000000000       0.000000000000       8.944900000000
       194    1       55.998000000000       5.705350000000       8.944900000000
       195    2       57.645000000000       0.950887863100      10.455675720200
       196    2       54.351000000000       6.656237863100      10.455675720200
       197    2       52.704000000000       3.803562863100      10.455675720200
       198    1       57.645000000000       2.852675000000       8.944900000000
       199    2       57.645000000000       0.950887863100       7.434124279800
       200    1       54.351000000000       8.558025000000       8.944900000000
       201    2       55.998000000000       9.508912863100      10.455675720200
       202    2       54.351000000000       6.656237863100       7.434124279800
       203    2       52.704000000000       3.803562863100       7.434124279800
       204    2       55.998000000000       9.508912863100       7.434124279800
       205    2       55.998000000000       3.803562863100      10.455675720200
       206    2       52.704000000000       9.508912863100      10.455675720200
       207    2       55.998000000000       3.803562863100       7.434124279800
       208    2       52.704000000000       9.508912863100       7.434124279800
       209    2       54.351000000000       0.950887863100      10.455675720200
       210    2       57.645000000000       6.656237863100      10.455675720200
       211    1       55.998000000000       0.000000000000       8.944900000000
       212    1       52.704000000000       5.705350000000       8.944900000000
       213    1       54.351000000000       2.852675000000       8.944900000000
       214    1       57.645000000000       8.558025000000       8.944900000000
       215    2       54.351000000000       0.950887863100       7.434124279800
       216    2       57.645000000000       6.656237863100       7.434124279800
       217    1       59.292000000000       0.000000000000       8.944900000000
       218    1       62.586000000000       5.705350000000       8.944900000000
       219    2       64.233000000000       0.950887863100      10.455675720200
       220    2       60.939000000000       6.656237863100      10.455675720200
       221    2       59.292000000000       3.803562863100      10.455675720200
       222    1       64.233000000000       2.852675000000       8.944900000000
       223    2       64.233000000000       0.950887863100       7.434124279800
       224    1       60.939000000000       8.558025000000       8.944900000000
       225    2       62.586000000000       9.508912863100      10.455675720200
       226    2       60.939000000000       6.656237863100       7.434124279800
       227    2       59.292000000000       3.803562863100       7.434124279800
       228    2       62.586000000000       9.508912863100       7.434124279800
       229    2       62.586000000000       3.803562863100      10.455675720200
       230    2       59.292000000000       9.508912863100      10.455675720200
       231    2       62.586000000000       3.803562863100       7.434124279800
       232    2       59.292000000000       9.508912863100       7.434124279800
       233    2       60.939000000000       0.950887863100      10.455675720200
       234    2       64.233000000000       6.656237863100      10.455675720200
       235    1       62.586000000000       0.000000000000       8.944900000000
       236    1       59.292000000000       5.705350000000       8.944900000000
       237    1       60.939000000000       2.852675000000       8.944900000000
       238    1       64.233000000000       8.558025000000       8.944900000000
       239    2       60.939000000000       0.950887863100       7.434124279800
       240    2       64.233000000000       6.656237863100       7.434124279800
       241    1       65.880000000000       0.000000000000       8.944900000000
       242    1       69.174000000000       5.705350000000       8.944900000000
       243    2       70.821000000000       0.950887863100      10.455675720200
       244    2       67.527000000000       6.656237863100      10.455675720200
       245    2       65.880000000000       3.803562863100      10.455675720200
       246    1       70.821000000000       2.852675000000       8.944900000000
       247    2       70.821000000000       0.950887863100       7.434124279800
       248    1       67.527000000000       8.558025000000       8.944900000000
       249    2       69.174000000000       9.508912863100      10.455675720200
       250    2       67.527000000000       6.656237863100       7.434124279800
       251    2       65.880000000000       3.803562863100       7.434124279800
       252    2       69.174000000000       9.508912863100       7.434124279800
       253    2       69.174000000000       3.803562863100      10.455675720200
       254    2       65.880000000000       9.508912863100      10.455675720200
       255    2       69.174000000000       3.803562863100       7.434124279800
       256    2       65.880000000000       9.508912863100       7.434124279800
       257    2       67.527000000000       0.950887863100      10.455675720200
       258    2       70.821000000000       6.656237863100      10.455675720200
       259    1       69.174000000000       0.000000000000       8.944900000000
       260    1       65.880000000000       5.705350000000       8.944900000000
       261    1       67.527000000000       2.852675000000       8.944900000000
       262    1       70.821000000000       8.558025000000       8.944900000000
       263    2       67.527000000000       0.950887863100       7.434124279800
       264    2       70.821000000000       6.656237863100       7.434124279800
       265    1       72.468000000000       0.000000000000       8.944900000000
       266    1       75.762000000000       5.705350000000       8.944900000000
       267    2       77.409000000000       0.950887863100      10.455675720200
       268    2       74.115000000000       6.656237863100      10.455675720200
       269    2       72.468000000000       3.803562863100      10.455675720200
       270    1       77.409000000000       2.852675000000       8.944900000000
       271    2       77.409000000000       0.950887863100       7.434124279800
       272    1       74.115000000000       8.558025000000       8.944900000000
       273    2       75.762000000000       9.508912863100      10.455675720200
       274    2       74.115000000000       6.656237863100       7.434124279800
       275    2       72.468000000000       3.803562863100       7.434124279800
       276    2       75.762000000000       9.508912863100       7.434124279800
       277    2       75.762000000000       3.803562863100      10.455675720200
       278    2       72.468000000000       9.508912863100      10.455675720200
       279    2       75.762000000000       3.803562863100       7.434124279800
       280    2       72.468000000000       9.508912863100       7.434124279800
       281    2       74.115000000000       0.950887863100      10.455675720200
       282    2       77.409000000000       6.656237863100      10.455675720200
       283    1       75.762000000000       0.000000000000       8.944900000000
       284    1       72.468000000000       5.705350000000       8.944900000000
       285    1       74.115000000000       2.852675000000       8.944900000000
       286    1       77.409000000000       8.558025000000       8.944900000000
       287    2       74.115000000000       0.950887863100       7.434124279800
       288    2       77.409000000000       6.656237863100       7.434124279800
       289    1       79.056000000000       0.000000000000       8.944900000000
       290    1       82.350000000000       5.705350000000       8.944900000000
       291    2       83.997000000000       0.950887863100      10.455675720200
       292    2       80.703000000000       6.656237863100      10.455675720200
       293    2       79.056000000000       3.803562863100      10.455675720200
       294    1       83.997000000000       2.852675000000       8.944900000000
       295    2       83.997000000000       0.950887863100       7.434124279800
       296    1       80.703000000000       8.558025000000       8.944900000000
       297    2       82.350000000000       9.508912863100      10.455675720200
       298    2       80.703000000000       6.656237863100       7.434124279800
       299    2       79.056000000000       3.803562863100       7.434124279800
       300    2       82.350000000000       9.508912863100       7.434124279800
       301    2       82.350000000000       3.803562863100      10.455675720200
       302    2       79.056000000000       9.508912863100      10.455675720200
       303    2       82.350000000000       3.803562863100       7.434124279800
       304    2       79.056000000000       9.508912863100       7.434124279800
       305    2       80.703000000000       0.950887863100      10.455675720200
       306    2       83.997000000000       6.656237863100      10.455675720200
       307    1       82.350000000000       0.000000000000       8.944900000000
       308    1       79.056000000000       5.705350000000       8.944900000000
       309    1       80.703000000000       2.852675000000       8.944900000000
       310    1       83.997000000000       8.558025000000       8.944900000000
       311    2       80.703000000000       0.950887863100       7.434124279800
       312    2       83.997000000000       6.656237863100       7.434124279800
       313    1       85.644000000000       0.000000000000       8.944900000000
       314    1       88.938000000000       5.705350000000       8.944900000000
       315    2       90.585000000000       0.950887863100      10.455675720200
       316    2       87.291000000000       6.656237863100      10.455675720200
       317    2       85.644000000000       3.803562863100      10.455675720200
       318    1       90.585000000000       2.852675000000       8.944900000000
       319    2       90.585000000000       0.950887863100       7.434124279800
       320    1       87.291000000000       8.558025000000       8.944900000000
       321    2       88.938000000000       9.508912863100      10.455675720200
       322    2       87.291000000000       6.656237863100       7.434124279800
       323    2       85.644000000000       3.803562863100       7.434124279800
       324    2       88.938000000000       9.508912863100       7.434124279800
       325    2       88.938000000000       3.803562863100      10.455675720200
       326    2       85.644000000000       9.508912863100      10.455675720200
       327    2       88.938000000000       3.803562863100       7.434124279800
       328    2       85.644000000000       9.508912863100       7.434124279800
       329    2       87.291000000000       0.950887863100      10.455675720200
       330    2       90.585000000000       6.656237863100      10.455675720200
       331    1       88.938000000000       0.000000000000       8.944900000000
       332    1       85.644000000000       5.705350000000       8.944900000000
       333    1       87.291000000000       2.852675000000       8.944900000000
       334    1       90.585000000000       8.558025000000       8.944900000000
       335    2       87.291000000000       0.950887863100       7.434124279800
       336    2       90.585000000000       6.656237863100       7.434124279800
       337    1       92.232000000000       0.000000000000       8.944900000000
       338    1       95.526000000000       5.705350000000       8.944900000000
       339    2       97.173000000000       0.950887863100      10.455675720200
       340    2       93.879000000000       6.656237863100      10.455675720200
       341    2       92.232000000000       3.803562863100      10.455675720200
       342    1       97.173000000000       2.852675000000       8.944900000000
       343    2       97.173000000000       0.950887863100       7.434124279800
       344    1       93.879000000000       8.558025000000       8.944900000000
       345    2       95.526000000000       9.508912863100      10.455675720200
       346    2       93.879000000000       6.656237863100       7.434124279800
       347    2       92.232000000000       3.803562863100       7.434124279800
       348    2       95.526000000000       9.508912863100       7.434124279800
       349    2       95.526000000000       3.803562863100      10.455675720200
       350    2       92.232000000000       9.508912863100      10.455675720200
       351    2       95.526000000000       3.803562863100       7.434124279800
       352    2       92.232000000000       9.508912863100       7.434124279800
       353    2       93.879000000000       0.950887863100      10.455675720200
       354    2       97.173000000000       6.656237863100      10.455675720200
       355    1       95.526000000000       0.000000000000       8.944900000000
       356    1       92.232000000000       5.705350000000       8.944900000000
       357    1       93.879000000000       2.852675000000       8.944900000000
       358    1       97.173000000000       8.558025000000       8.944900000000
       359    2       93.879000000000       0.950887863100       7.434124279800
       360    2       97.173000000000       6.656237863100       7.434124279800
       361    1        0.000000000000      11.410700000000       8.944900000000
       362    1        3.294000000000      17.116050000000       8.944900000000
       363    2        4.941000000000      12.361587863100      10.455675720200
       364    2        1.647000000000      18.066937863100      10.455675720200
       365    2        0.000000000000      15.214262863100      10.455675720200
       366    1        4.941000000000      14.263375000000       8.944900000000
       367    2        4.941000000000      12.361587863100       7.434124279800
       368    1        1.647000000000      19.968725000000       8.944900000000
       369    2        3.294000000000      20.919612863100      10.455675720200
       370    2        1.647000000000      18.066937863100       7.434124279800