 # Te16 Fe8
  
        2688  atoms
           2  atom types
 
      0.000000000000      99.943200000000  xlo xhi
      0.000000000000      98.917600000000  ylo yhi
      0.000000000000      18.113100000000  zlo zhi
 
Masses
 
            1   127.60000000            # Te
            2   55.84500000             # Fe
 
Atoms # atomic
 
         1    1        1.784700000000       1.030387545100       7.451330851800
         2    1        5.354100000000       7.212737545100       7.451330851800
         3    1        1.784700000000       1.030387545100      10.661769148200
         4    1        5.354100000000       1.030387545100       7.451330851800
         5    1        5.354100000000       7.212737545100      10.661769148200
         6    1        1.784700000000       7.212737545100       7.451330851800
         7    1        3.569400000000       4.121562545100       7.451330851800
         8    1        0.000000000000      10.303912545100       7.451330851800
         9    1        3.569400000000       4.121562545100      10.661769148200
        10    1        0.000000000000      10.303912545100      10.661769148200
        11    1        5.354100000000       1.030387545100      10.661769148200
        12    1        1.784700000000       7.212737545100      10.661769148200
        13    2        1.784700000000       3.091175000000       9.056550000000
        14    2        5.354100000000       9.273525000000       9.056550000000
        15    2        5.354100000000       3.091175000000       9.056550000000
        16    2        1.784700000000       9.273525000000       9.056550000000
        17    1        0.000000000000       4.121562545100       7.451330851800
        18    1        3.569400000000      10.303912545100       7.451330851800
        19    1        0.000000000000       4.121562545100      10.661769148200
        20    1        3.569400000000      10.303912545100      10.661769148200
        21    2        0.000000000000       0.000000000000       9.056550000000
        22    2        3.569400000000       6.182350000000       9.056550000000
        23    2        3.569400000000       0.000000000000       9.056550000000
        24    2        0.000000000000       6.182350000000       9.056550000000
        25    1        8.923500000000       1.030387545100       7.451330851800
        26    1       12.492900000000       7.212737545100       7.451330851800
        27    1        8.923500000000       1.030387545100      10.661769148200
        28    1       12.492900000000       1.030387545100       7.451330851800
        29    1       12.492900000000       7.212737545100      10.661769148200
        30    1        8.923500000000       7.212737545100       7.451330851800
        31    1       10.708200000000       4.121562545100       7.451330851800
        32    1        7.138800000000      10.303912545100       7.451330851800
        33    1       10.708200000000       4.121562545100      10.661769148200
        34    1        7.138800000000      10.303912545100      10.661769148200
        35    1       12.492900000000       1.030387545100      10.661769148200
        36    1        8.923500000000       7.212737545100      10.661769148200
        37    2        8.923500000000       3.091175000000       9.056550000000
        38    2       12.492900000000       9.273525000000       9.056550000000
        39    2       12.492900000000       3.091175000000       9.056550000000
        40    2        8.923500000000       9.273525000000       9.056550000000
        41    1        7.138800000000       4.121562545100       7.451330851800
        42    1       10.708200000000      10.303912545100       7.451330851800
        43    1        7.138800000000       4.121562545100      10.661769148200
        44    1       10.708200000000      10.303912545100      10.661769148200
        45    2        7.138800000000       0.000000000000       9.056550000000
        46    2       10.708200000000       6.182350000000       9.056550000000
        47    2       10.708200000000       0.000000000000       9.056550000000
        48    2        7.138800000000       6.182350000000       9.056550000000
        49    1       16.062300000000       1.030387545100       7.451330851800
        50    1       19.631700000000       7.212737545100       7.451330851800
        51    1       16.062300000000       1.030387545100      10.661769148200
        52    1       19.631700000000       1.030387545100       7.451330851800
        53    1       19.631700000000       7.212737545100      10.661769148200
        54    1       16.062300000000       7.212737545100       7.451330851800
        55    1       17.847000000000       4.121562545100       7.451330851800
        56    1       14.277600000000      10.303912545100       7.451330851800
        57    1       17.847000000000       4.121562545100      10.661769148200
        58    1       14.277600000000      10.303912545100      10.661769148200
        59    1       19.631700000000       1.030387545100      10.661769148200
        60    1       16.062300000000       7.212737545100      10.661769148200
        61    2       16.062300000000       3.091175000000       9.056550000000
        62    2       19.631700000000       9.273525000000       9.056550000000
        63    2       19.631700000000       3.091175000000       9.056550000000
        64    2       16.062300000000       9.273525000000       9.056550000000
        65    1       14.277600000000       4.121562545100       7.451330851800
        66    1       17.847000000000      10.303912545100       7.451330851800
        67    1       14.277600000000       4.121562545100      10.661769148200
        68    1       17.847000000000      10.303912545100      10.661769148200
        69    2       14.277600000000       0.000000000000       9.056550000000
        70    2       17.847000000000       6.182350000000       9.056550000000
        71    2       17.847000000000       0.000000000000       9.056550000000
        72    2       14.277600000000       6.182350000000       9.056550000000
        73    1       23.201100000000       1.030387545100       7.451330851800
        74    1       26.770500000000       7.212737545100       7.451330851800
        75    1       23.201100000000       1.030387545100      10.661769148200
        76    1       26.770500000000       1.030387545100       7.451330851800
        77    1       26.770500000000       7.212737545100      10.661769148200
        78    1       23.201100000000       7.212737545100       7.451330851800
        79    1       24.985800000000       4.121562545100       7.451330851800
        80    1       21.416400000000      10.303912545100       7.451330851800
        81    1       24.985800000000       4.121562545100      10.661769148200
        82    1       21.416400000000      10.303912545100      10.661769148200
        83    1       26.770500000000       1.030387545100      10.661769148200
        84    1       23.201100000000       7.212737545100      10.661769148200
        85    2       23.201100000000       3.091175000000       9.056550000000
        86    2       26.770500000000       9.273525000000       9.056550000000
        87    2       26.770500000000       3.091175000000       9.056550000000
        88    2       23.201100000000       9.273525000000       9.056550000000
        89    1       21.416400000000       4.121562545100       7.451330851800
        90    1       24.985800000000      10.303912545100       7.451330851800
        91    1       21.416400000000       4.121562545100      10.661769148200
        92    1       24.985800000000      10.303912545100      10.661769148200
        93    2       21.416400000000       0.000000000000       9.056550000000
        94    2       24.985800000000       6.182350000000       9.056550000000
        95    2       24.985800000000       0.000000000000       9.056550000000
        96    2       21.416400000000       6.182350000000       9.056550000000
        97    1       30.339900000000       1.030387545100       7.451330851800
        98    1       33.909300000000       7.212737545100       7.451330851800
        99    1       30.339900000000       1.030387545100      10.661769148200
       100    1       33.909300000000       1.030387545100       7.451330851800
       101    1       33.909300000000       7.212737545100      10.661769148200
       102    1       30.339900000000       7.212737545100       7.451330851800
       103    1       32.124600000000       4.121562545100       7.451330851800
       104    1       28.555200000000      10.303912545100       7.451330851800
       105    1       32.124600000000       4.121562545100      10.661769148200
       106    1       28.555200000000      10.303912545100      10.661769148200
       107    1       33.909300000000       1.030387545100      10.661769148200
       108    1       30.339900000000       7.212737545100      10.661769148200
       109    2       30.339900000000       3.091175000000       9.056550000000
       110    2       33.909300000000       9.273525000000       9.056550000000
       111    2       33.909300000000       3.091175000000       9.056550000000
       112    2       30.339900000000       9.273525000000       9.056550000000
       113    1       28.555200000000       4.121562545100       7.451330851800
       114    1       32.124600000000      10.303912545100       7.451330851800
       115    1       28.555200000000       4.121562545100      10.661769148200
       116    1       32.124600000000      10.303912545100      10.661769148200
       117    2       28.555200000000       0.000000000000       9.056550000000
       118    2       32.124600000000       6.182350000000       9.056550000000
       119    2       32.124600000000       0.000000000000       9.056550000000
       120    2       28.555200000000       6.182350000000       9.056550000000
       121    1       37.478700000000       1.030387545100       7.451330851800
       122    1       41.048100000000       7.212737545100       7.451330851800
       123    1       37.478700000000       1.030387545100      10.661769148200
       124    1       41.048100000000       1.030387545100       7.451330851800
       125    1       41.048100000000       7.212737545100      10.661769148200
       126    1       37.478700000000       7.212737545100       7.451330851800
       127    1       39.263400000000       4.121562545100       7.451330851800
       128    1       35.694000000000      10.303912545100       7.451330851800
       129    1       39.263400000000       4.121562545100      10.661769148200
       130    1       35.694000000000      10.303912545100      10.661769148200
       131    1       41.048100000000       1.030387545100      10.661769148200
       132    1       37.478700000000       7.212737545100      10.661769148200
       133    2       37.478700000000       3.091175000000       9.056550000000
       134    2       41.048100000000       9.273525000000       9.056550000000
       135    2       41.048100000000       3.091175000000       9.056550000000
       136    2       37.478700000000       9.273525000000       9.056550000000
       137    1       35.694000000000       4.121562545100       7.451330851800
       138    1       39.263400000000      10.303912545100       7.451330851800
       139    1       35.694000000000       4.121562545100      10.661769148200
       140    1       39.263400000000      10.303912545100      10.661769148200
       141    2       35.694000000000       0.000000000000       9.056550000000
       142    2       39.263400000000       6.182350000000       9.056550000000
       143    2       39.263400000000       0.000000000000       9.056550000000
       144    2       35.694000000000       6.182350000000       9.056550000000
       145    1       44.617500000000       1.030387545100       7.451330851800
       146    1       48.186900000000       7.212737545100       7.451330851800
       147    1       44.617500000000       1.030387545100      10.661769148200
       148    1       48.186900000000       1.030387545100       7.451330851800
       149    1       48.186900000000       7.212737545100      10.661769148200
       150    1       44.617500000000       7.212737545100       7.451330851800
       151    1       46.402200000000       4.121562545100       7.451330851800
       152    1       42.832800000000      10.303912545100       7.451330851800
       153    1       46.402200000000       4.121562545100      10.661769148200
       154    1       42.832800000000      10.303912545100      10.661769148200
       155    1       48.186900000000       1.030387545100      10.661769148200
       156    1       44.617500000000       7.212737545100      10.661769148200
       157    2       44.617500000000       3.091175000000       9.056550000000
       158    2       48.186900000000       9.273525000000       9.056550000000
       159    2       48.186900000000       3.091175000000       9.056550000000
       160    2       44.617500000000       9.273525000000       9.056550000000
       161    1       42.832800000000       4.121562545100       7.451330851800
       162    1       46.402200000000      10.303912545100       7.451330851800
       163    1       42.832800000000       4.121562545100      10.661769148200
       164    1       46.402200000000      10.303912545100      10.661769148200
       165    2       42.832800000000       0.000000000000       9.056550000000
       166    2       46.402200000000       6.182350000000       9.056550000000
       167    2       46.402200000000       0.000000000000       9.056550000000
       168    2       42.832800000000       6.182350000000       9.056550000000
       169    1       51.756300000000       1.030387545100       7.451330851800
       170    1       55.325700000000       7.212737545100       7.451330851800
       171    1       51.756300000000       1.030387545100      10.661769148200
       172    1       55.325700000000       1.030387545100       7.451330851800
       173    1       55.325700000000       7.212737545100      10.661769148200
       174    1       51.756300000000       7.212737545100       7.451330851800
       175    1       53.541000000000       4.121562545100       7.451330851800
       176    1       49.971600000000      10.303912545100       7.451330851800
       177    1       53.541000000000       4.121562545100      10.661769148200
       178    1       49.971600000000      10.303912545100      10.661769148200
       179    1       55.325700000000       1.030387545100      10.661769148200
       180    1       51.756300000000       7.212737545100      10.661769148200
       181    2       51.756300000000       3.091175000000       9.056550000000
       182    2       55.325700000000       9.273525000000       9.056550000000
       183    2       55.325700000000       3.091175000000       9.056550000000
       184    2       51.756300000000       9.273525000000       9.056550000000
       185    1       49.971600000000       4.121562545100       7.451330851800
       186    1       53.541000000000      10.303912545100       7.451330851800
       187    1       49.971600000000       4.121562545100      10.661769148200
       188    1       53.541000000000      10.303912545100      10.661769148200
       189    2       49.971600000000       0.000000000000       9.056550000000
       190    2       53.541000000000       6.182350000000       9.056550000000
       191    2       53.541000000000       0.000000000000       9.056550000000
       192    2       49.971600000000       6.182350000000       9.056550000000
       193    1       58.895100000000       1.030387545100       7.451330851800
       194    1       62.464500000000       7.212737545100       7.451330851800
       195    1       58.895100000000       1.030387545100      10.661769148200
       196    1       62.464500000000       1.030387545100       7.451330851800
       197    1       62.464500000000       7.212737545100      10.661769148200
       198    1       58.895100000000       7.212737545100       7.451330851800
       199    1       60.679800000000       4.121562545100       7.451330851800
       200    1       57.110400000000      10.303912545100       7.451330851800
       201    1       60.679800000000       4.121562545100      10.661769148200
       202    1       57.110400000000      10.303912545100      10.661769148200
       203    1       62.464500000000       1.030387545100      10.661769148200
       204    1       58.895100000000       7.212737545100      10.661769148200
       205    2       58.895100000000       3.091175000000       9.056550000000
       206    2       62.464500000000       9.273525000000       9.056550000000
       207    2       62.464500000000       3.091175000000       9.056550000000
       208    2       58.895100000000       9.273525000000       9.056550000000
       209    1       57.110400000000       4.121562545100       7.451330851800
       210    1       60.679800000000      10.303912545100       7.451330851800
       211    1       57.110400000000       4.121562545100      10.661769148200
       212    1       60.679800000000      10.303912545100      10.661769148200
       213    2       57.110400000000       0.000000000000       9.056550000000
       214    2       60.679800000000       6.182350000000       9.056550000000
       215    2       60.679800000000       0.000000000000       9.056550000000
       216    2       57.110400000000       6.182350000000       9.056550000000
       217    1       66.033900000000       1.030387545100       7.451330851800
       218    1       69.603300000000       7.212737545100       7.451330851800
       219    1       66.033900000000       1.030387545100      10.661769148200
       220    1       69.603300000000       1.030387545100       7.451330851800
       221    1       69.603300000000       7.212737545100      10.661769148200
       222    1       66.033900000000       7.212737545100       7.451330851800
       223    1       67.818600000000       4.121562545100       7.451330851800
       224    1       64.249200000000      10.303912545100       7.451330851800
       225    1       67.818600000000       4.121562545100      10.661769148200
       226    1       64.249200000000      10.303912545100      10.661769148200
       227    1       69.603300000000       1.030387545100      10.661769148200
       228    1       66.033900000000       7.212737545100      10.661769148200
       229    2       66.033900000000       3.091175000000       9.056550000000
       230    2       69.603300000000       9.273525000000       9.056550000000
       231    2       69.603300000000       3.091175000000       9.056550000000
       232    2       66.033900000000       9.273525000000       9.056550000000
       233    1       64.249200000000       4.121562545100       7.451330851800
       234    1       67.818600000000      10.303912545100       7.451330851800
       235    1       64.249200000000       4.121562545100      10.661769148200
       236    1       67.818600000000      10.303912545100      10.661769148200
       237    2       64.249200000000       0.000000000000       9.056550000000
       238    2       67.818600000000       6.182350000000       9.056550000000
       239    2       67.818600000000       0.000000000000       9.056550000000
       240    2       64.249200000000       6.182350000000       9.056550000000
       241    1       73.172700000000       1.030387545100       7.451330851800
       242    1       76.742100000000       7.212737545100       7.451330851800
       243    1       73.172700000000       1.030387545100      10.661769148200
       244    1       76.742100000000       1.030387545100       7.451330851800
       245    1       76.742100000000       7.212737545100      10.661769148200
       246    1       73.172700000000       7.212737545100       7.451330851800
       247    1       74.957400000000       4.121562545100       7.451330851800
       248    1       71.388000000000      10.303912545100       7.451330851800
       249    1       74.957400000000       4.121562545100      10.661769148200
       250    1       71.388000000000      10.303912545100      10.661769148200
       251    1       76.742100000000       1.030387545100      10.661769148200
       252    1       73.172700000000       7.212737545100      10.661769148200
       253    2       73.172700000000       3.091175000000       9.056550000000
       254    2       76.742100000000       9.273525000000       9.056550000000
       255    2       76.742100000000       3.091175000000       9.056550000000
       256    2       73.172700000000       9.273525000000       9.056550000000
       257    1       71.388000000000       4.121562545100       7.451330851800
       258    1       74.957400000000      10.303912545100       7.451330851800
       259    1       71.388000000000       4.121562545100      10.661769148200
       260    1       74.957400000000      10.303912545100      10.661769148200
       261    2       71.388000000000       0.000000000000       9.056550000000
       262    2       74.957400000000       6.182350000000       9.056550000000
       263    2       74.957400000000       0.000000000000       9.056550000000
       264    2       71.388000000000       6.182350000000       9.056550000000
       265    1       80.311500000000       1.030387545100       7.451330851800
       266    1       83.880900000000       7.212737545100       7.451330851800
       267    1       80.311500000000       1.030387545100      10.661769148200
       268    1       83.880900000000       1.030387545100       7.451330851800
       269    1       83.880900000000       7.212737545100      10.661769148200
       270    1       80.311500000000       7.212737545100       7.451330851800
       271    1       82.096200000000       4.121562545100       7.451330851800
       272    1       78.526800000000      10.303912545100       7.451330851800
       273    1       82.096200000000       4.121562545100      10.661769148200
       274    1       78.526800000000      10.303912545100      10.661769148200
       275    1       83.880900000000       1.030387545100      10.661769148200
       276    1       80.311500000000       7.212737545100      10.661769148200
       277    2       80.311500000000       3.091175000000       9.056550000000
       278    2       83.880900000000       9.273525000000       9.056550000000
       279    2       83.880900000000       3.091175000000       9.056550000000
       280    2       80.311500000000       9.273525000000       9.056550000000
       281    1       78.526800000000       4.121562545100       7.451330851800
       282    1       82.096200000000      10.303912545100       7.451330851800
       283    1       78.526800000000       4.121562545100      10.661769148200
       284    1       82.096200000000      10.303912545100      10.661769148200
       285    2       78.526800000000       0.000000000000       9.056550000000
       286    2       82.096200000000       6.182350000000       9.056550000000
       287    2       82.096200000000       0.000000000000       9.056550000000
       288    2       78.526800000000       6.182350000000       9.056550000000
       289    1       87.450300000000       1.030387545100       7.451330851800
       290    1       91.019700000000       7.212737545100       7.451330851800
       291    1       87.450300000000       1.030387545100      10.661769148200
       292    1       91.019700000000       1.030387545100       7.451330851800
       293    1       91.019700000000       7.212737545100      10.661769148200
       294    1       87.450300000000       7.212737545100       7.451330851800
       295    1       89.235000000000       4.121562545100       7.451330851800
       296    1       85.665600000000      10.303912545100       7.451330851800
       297    1       89.235000000000       4.121562545100      10.661769148200
       298    1       85.665600000000      10.303912545100      10.661769148200
       299    1       91.019700000000       1.030387545100      10.661769148200
       300    1       87.450300000000       7.212737545100      10.661769148200
       301    2       87.450300000000       3.091175000000       9.056550000000
       302    2       91.019700000000       9.273525000000       9.056550000000
       303    2       91.019700000000       3.091175000000       9.056550000000
       304    2       87.450300000000       9.273525000000       9.056550000000
       305    1       85.665600000000       4.121562545100       7.451330851800
       306    1       89.235000000000      10.303912545100       7.451330851800
       307    1       85.665600000000       4.121562545100      10.661769148200
       308    1       89.235000000000      10.303912545100      10.661769148200
       309    2       85.665600000000       0.000000000000       9.056550000000
       310    2       89.235000000000       6.182350000000       9.056550000000
       311    2       89.235000000000       0.000000000000       9.056550000000
       312    2       85.665600000000       6.182350000000       9.056550000000
       313    1       94.589100000000       1.030387545100       7.451330851800
       314    1       98.158500000000       7.212737545100       7.451330851800
       315    1       94.589100000000       1.030387545100      10.661769148200
       316    1       98.158500000000       1.030387545100       7.451330851800
       317    1       98.158500000000       7.212737545100      10.661769148200
       318    1       94.589100000000       7.212737545100       7.451330851800
       319    1       96.373800000000       4.121562545100       7.451330851800
       320    1       92.804400000000      10.303912545100       7.451330851800
       321    1       96.373800000000       4.121562545100      10.661769148200
       322    1       92.804400000000      10.303912545100      10.661769148200
       323    1       98.158500000000       1.030387545100      10.661769148200
       324    1       94.589100000000       7.212737545100      10.661769148200
       325    2       94.589100000000       3.091175000000       9.056550000000
       326    2       98.158500000000       9.273525000000       9.056550000000
       327    2       98.158500000000       3.091175000000       9.056550000000
       328    2       94.589100000000       9.273525000000       9.056550000000
       329    1       92.804400000000       4.121562545100       7.451330851800
       330    1       96.373800000000      10.303912545100       7.451330851800
       331    1       92.804400000000       4.121562545100      10.661769148200
       332    1       96.373800000000      10.303912545100      10.661769148200
       333    2       92.804400000000       0.000000000000       9.056550000000
       334    2       96.373800000000       6.182350000000       9.056550000000
       335    2       96.373800000000       0.000000000000       9.056550000000
       336    2       92.804400000000       6.182350000000       9.056550000000
       337    1        1.784700000000      13.395087545100       7.451330851800
       338    1        5.354100000000      19.577437545100       7.451330851800
       339    1        1.784700000000      13.395087545100      10.661769148200
       340    1        5.354100000000      13.395087545100       7.451330851800
       341    1        5.354100000000      19.577437545100      10.661769148200
       342    1        1.784700000000      19.577437545100       7.451330851800
       343    1        3.569400000000      16.486262545100       7.451330851800
       344    1        0.000000000000      22.668612545100       7.451330851800
       345    1        3.569400000000      16.486262545100      10.661769148200
       346    1        0.000000000000      22.668612545100      10.661769148200
       347    1        5.354100000000      13.395087545100      10.661769148200
       348    1        1.784700000000      19.577437545100      10.661769148200
       349    2        1.784700000000      15.455875000000       9.056550000000
       350    2        5.354100000000      21.638225000000       9.056550000000
       351    2        5.354100000000      15.455875000000       9.056550000000
       352    2        1.784700000000      21.638225000000       9.056550000000
       353    1        0.000000000000      16.486262545100       7.451330851800
       354    1        3.569400000000      22.668612545100       7.451330851800
       355    1        0.000000000000      16.486262545100      10.661769148200
       356    1        3.569400000000      22.668612545100      10.661769148200
       357    2        0.000000000000      12.364700000000       9.056550000000
       358    2        3.569400000000      18.547050000000       9.056550000000
       359    2        3.569400000000      12.364700000000       9.056550000000
       360    2        0.000000000000      18.547050000000       9.056550000000
       361    1        8.923500000000      13.395087545100       7.451330851800
       362    1       12.492900000000      19.577437545100       7.451330851800
       363    1        8.923500000000      13.395087545100      10.661769148200
       364    1       12.492900000000      13.395087545100       7.451330851800
       365    1       12.492900000000      19.577437545100      10.661769148200
       366    1        8.923500000000      19.577437545100       7.451330851800
       367    1       10.708200000000      16.486262545100       7.451330851800
       368    1        7.138800000000      22.668612545100       7.451330851800
       369    1       10.708200000000      16.486262545100      10.661769148200
       370    1        7.138800000000      22.668612545100      10.661769148200