 # Mn8 O16
  
        5016  atoms
           2  atom types
 
      0.000000000000     101.359300000000  xlo xhi
      0.000000000000     101.640000000000  ylo yhi
      0.000000000000      17.239900000000  zlo zhi
 
Masses
 
            1   54.93804500             # Mn
            2   15.99900000             # O
 
Atoms # atomic
 
         1    1        4.001025000000       2.310000000000       8.619950000000
         2    1        1.333675000000       6.930000000000       8.619950000000
         3    2        1.333675000000       0.769996920000       7.483030314700
         4    2        4.001025000000       5.389996920000       7.483030314700
         5    1        0.000000000000       0.000000000000       8.619950000000
         6    1        2.667350000000       4.620000000000       8.619950000000
         7    1        2.667350000000       0.000000000000       8.619950000000
         8    1        0.000000000000       4.620000000000       8.619950000000
         9    2        1.333675000000       0.769996920000       9.756869685300
        10    2        4.001025000000       5.389996920000       9.756869685300
        11    2        0.000000000000       3.079996920000       9.756869685300
        12    2        2.667350000000       7.699996920000       9.756869685300
        13    2        0.000000000000       3.079996920000       7.483030314700
        14    2        2.667350000000       7.699996920000       7.483030314700
        15    2        4.001025000000       0.769996920000       9.756869685300
        16    2        1.333675000000       5.389996920000       9.756869685300
        17    2        2.667350000000       3.079996920000       7.483030314700
        18    2        2.667350000000       3.079996920000       9.756869685300
        19    2        0.000000000000       7.699996920000       7.483030314700
        20    2        0.000000000000       7.699996920000       9.756869685300
        21    1        1.333675000000       2.310000000000       8.619950000000
        22    1        4.001025000000       6.930000000000       8.619950000000
        23    2        4.001025000000       0.769996920000       7.483030314700
        24    2        1.333675000000       5.389996920000       7.483030314700
        25    1        9.335725000000       2.310000000000       8.619950000000
        26    1        6.668375000000       6.930000000000       8.619950000000
        27    2        6.668375000000       0.769996920000       7.483030314700
        28    2        9.335725000000       5.389996920000       7.483030314700
        29    1        5.334700000000       0.000000000000       8.619950000000
        30    1        8.002050000000       4.620000000000       8.619950000000
        31    1        8.002050000000       0.000000000000       8.619950000000
        32    1        5.334700000000       4.620000000000       8.619950000000
        33    2        6.668375000000       0.769996920000       9.756869685300
        34    2        9.335725000000       5.389996920000       9.756869685300
        35    2        5.334700000000       3.079996920000       9.756869685300
        36    2        8.002050000000       7.699996920000       9.756869685300
        37    2        5.334700000000       3.079996920000       7.483030314700
        38    2        8.002050000000       7.699996920000       7.483030314700
        39    2        9.335725000000       0.769996920000       9.756869685300
        40    2        6.668375000000       5.389996920000       9.756869685300
        41    2        8.002050000000       3.079996920000       7.483030314700
        42    2        8.002050000000       3.079996920000       9.756869685300
        43    2        5.334700000000       7.699996920000       7.483030314700
        44    2        5.334700000000       7.699996920000       9.756869685300
        45    1        6.668375000000       2.310000000000       8.619950000000
        46    1        9.335725000000       6.930000000000       8.619950000000
        47    2        9.335725000000       0.769996920000       7.483030314700
        48    2        6.668375000000       5.389996920000       7.483030314700
        49    1       14.670425000000       2.310000000000       8.619950000000
        50    1       12.003075000000       6.930000000000       8.619950000000
        51    2       12.003075000000       0.769996920000       7.483030314700
        52    2       14.670425000000       5.389996920000       7.483030314700
        53    1       10.669400000000       0.000000000000       8.619950000000
        54    1       13.336750000000       4.620000000000       8.619950000000
        55    1       13.336750000000       0.000000000000       8.619950000000
        56    1       10.669400000000       4.620000000000       8.619950000000
        57    2       12.003075000000       0.769996920000       9.756869685300
        58    2       14.670425000000       5.389996920000       9.756869685300
        59    2       10.669400000000       3.079996920000       9.756869685300
        60    2       13.336750000000       7.699996920000       9.756869685300
        61    2       10.669400000000       3.079996920000       7.483030314700
        62    2       13.336750000000       7.699996920000       7.483030314700
        63    2       14.670425000000       0.769996920000       9.756869685300
        64    2       12.003075000000       5.389996920000       9.756869685300
        65    2       13.336750000000       3.079996920000       7.483030314700
        66    2       13.336750000000       3.079996920000       9.756869685300
        67    2       10.669400000000       7.699996920000       7.483030314700
        68    2       10.669400000000       7.699996920000       9.756869685300
        69    1       12.003075000000       2.310000000000       8.619950000000
        70    1       14.670425000000       6.930000000000       8.619950000000
        71    2       14.670425000000       0.769996920000       7.483030314700
        72    2       12.003075000000       5.389996920000       7.483030314700
        73    1       20.005125000000       2.310000000000       8.619950000000
        74    1       17.337775000000       6.930000000000       8.619950000000
        75    2       17.337775000000       0.769996920000       7.483030314700
        76    2       20.005125000000       5.389996920000       7.483030314700
        77    1       16.004100000000       0.000000000000       8.619950000000
        78    1       18.671450000000       4.620000000000       8.619950000000
        79    1       18.671450000000       0.000000000000       8.619950000000
        80    1       16.004100000000       4.620000000000       8.619950000000
        81    2       17.337775000000       0.769996920000       9.756869685300
        82    2       20.005125000000       5.389996920000       9.756869685300
        83    2       16.004100000000       3.079996920000       9.756869685300
        84    2       18.671450000000       7.699996920000       9.756869685300
        85    2       16.004100000000       3.079996920000       7.483030314700
        86    2       18.671450000000       7.699996920000       7.483030314700
        87    2       20.005125000000       0.769996920000       9.756869685300
        88    2       17.337775000000       5.389996920000       9.756869685300
        89    2       18.671450000000       3.079996920000       7.483030314700
        90    2       18.671450000000       3.079996920000       9.756869685300
        91    2       16.004100000000       7.699996920000       7.483030314700
        92    2       16.004100000000       7.699996920000       9.756869685300
        93    1       17.337775000000       2.310000000000       8.619950000000
        94    1       20.005125000000       6.930000000000       8.619950000000
        95    2       20.005125000000       0.769996920000       7.483030314700
        96    2       17.337775000000       5.389996920000       7.483030314700
        97    1       25.339825000000       2.310000000000       8.619950000000
        98    1       22.672475000000       6.930000000000       8.619950000000
        99    2       22.672475000000       0.769996920000       7.483030314700
       100    2       25.339825000000       5.389996920000       7.483030314700
       101    1       21.338800000000       0.000000000000       8.619950000000
       102    1       24.006150000000       4.620000000000       8.619950000000
       103    1       24.006150000000       0.000000000000       8.619950000000
       104    1       21.338800000000       4.620000000000       8.619950000000
       105    2       22.672475000000       0.769996920000       9.756869685300
       106    2       25.339825000000       5.389996920000       9.756869685300
       107    2       21.338800000000       3.079996920000       9.756869685300
       108    2       24.006150000000       7.699996920000       9.756869685300
       109    2       21.338800000000       3.079996920000       7.483030314700
       110    2       24.006150000000       7.699996920000       7.483030314700
       111    2       25.339825000000       0.769996920000       9.756869685300
       112    2       22.672475000000       5.389996920000       9.756869685300
       113    2       24.006150000000       3.079996920000       7.483030314700
       114    2       24.006150000000       3.079996920000       9.756869685300
       115    2       21.338800000000       7.699996920000       7.483030314700
       116    2       21.338800000000       7.699996920000       9.756869685300
       117    1       22.672475000000       2.310000000000       8.619950000000
       118    1       25.339825000000       6.930000000000       8.619950000000
       119    2       25.339825000000       0.769996920000       7.483030314700
       120    2       22.672475000000       5.389996920000       7.483030314700
       121    1       30.674525000000       2.310000000000       8.619950000000
       122    1       28.007175000000       6.930000000000       8.619950000000
       123    2       28.007175000000       0.769996920000       7.483030314700
       124    2       30.674525000000       5.389996920000       7.483030314700
       125    1       26.673500000000       0.000000000000       8.619950000000
       126    1       29.340850000000       4.620000000000       8.619950000000
       127    1       29.340850000000       0.000000000000       8.619950000000
       128    1       26.673500000000       4.620000000000       8.619950000000
       129    2       28.007175000000       0.769996920000       9.756869685300
       130    2       30.674525000000       5.389996920000       9.756869685300
       131    2       26.673500000000       3.079996920000       9.756869685300
       132    2       29.340850000000       7.699996920000       9.756869685300
       133    2       26.673500000000       3.079996920000       7.483030314700
       134    2       29.340850000000       7.699996920000       7.483030314700
       135    2       30.674525000000       0.769996920000       9.756869685300
       136    2       28.007175000000       5.389996920000       9.756869685300
       137    2       29.340850000000       3.079996920000       7.483030314700
       138    2       29.340850000000       3.079996920000       9.756869685300
       139    2       26.673500000000       7.699996920000       7.483030314700
       140    2       26.673500000000       7.699996920000       9.756869685300
       141    1       28.007175000000       2.310000000000       8.619950000000
       142    1       30.674525000000       6.930000000000       8.619950000000
       143    2       30.674525000000       0.769996920000       7.483030314700
       144    2       28.007175000000       5.389996920000       7.483030314700
       145    1       36.009225000000       2.310000000000       8.619950000000
       146    1       33.341875000000       6.930000000000       8.619950000000
       147    2       33.341875000000       0.769996920000       7.483030314700
       148    2       36.009225000000       5.389996920000       7.483030314700
       149    1       32.008200000000       0.000000000000       8.619950000000
       150    1       34.675550000000       4.620000000000       8.619950000000
       151    1       34.675550000000       0.000000000000       8.619950000000
       152    1       32.008200000000       4.620000000000       8.619950000000
       153    2       33.341875000000       0.769996920000       9.756869685300
       154    2       36.009225000000       5.389996920000       9.756869685300
       155    2       32.008200000000       3.079996920000       9.756869685300
       156    2       34.675550000000       7.699996920000       9.756869685300
       157    2       32.008200000000       3.079996920000       7.483030314700
       158    2       34.675550000000       7.699996920000       7.483030314700
       159    2       36.009225000000       0.769996920000       9.756869685300
       160    2       33.341875000000       5.389996920000       9.756869685300
       161    2       34.675550000000       3.079996920000       7.483030314700
       162    2       34.675550000000       3.079996920000       9.756869685300
       163    2       32.008200000000       7.699996920000       7.483030314700
       164    2       32.008200000000       7.699996920000       9.756869685300
       165    1       33.341875000000       2.310000000000       8.619950000000
       166    1       36.009225000000       6.930000000000       8.619950000000
       167    2       36.009225000000       0.769996920000       7.483030314700
       168    2       33.341875000000       5.389996920000       7.483030314700
       169    1       41.343925000000       2.310000000000       8.619950000000
       170    1       38.676575000000       6.930000000000       8.619950000000
       171    2       38.676575000000       0.769996920000       7.483030314700
       172    2       41.343925000000       5.389996920000       7.483030314700
       173    1       37.342900000000       0.000000000000       8.619950000000
       174    1       40.010250000000       4.620000000000       8.619950000000
       175    1       40.010250000000       0.000000000000       8.619950000000
       176    1       37.342900000000       4.620000000000       8.619950000000
       177    2       38.676575000000       0.769996920000       9.756869685300
       178    2       41.343925000000       5.389996920000       9.756869685300
       179    2       37.342900000000       3.079996920000       9.756869685300
       180    2       40.010250000000       7.699996920000       9.756869685300
       181    2       37.342900000000       3.079996920000       7.483030314700
       182    2       40.010250000000       7.699996920000       7.483030314700
       183    2       41.343925000000       0.769996920000       9.756869685300
       184    2       38.676575000000       5.389996920000       9.756869685300
       185    2       40.010250000000       3.079996920000       7.483030314700
       186    2       40.010250000000       3.079996920000       9.756869685300
       187    2       37.342900000000       7.699996920000       7.483030314700
       188    2       37.342900000000       7.699996920000       9.756869685300
       189    1       38.676575000000       2.310000000000       8.619950000000
       190    1       41.343925000000       6.930000000000       8.619950000000
       191    2       41.343925000000       0.769996920000       7.483030314700
       192    2       38.676575000000       5.389996920000       7.483030314700
       193    1       46.678625000000       2.310000000000       8.619950000000
       194    1       44.011275000000       6.930000000000       8.619950000000
       195    2       44.011275000000       0.769996920000       7.483030314700
       196    2       46.678625000000       5.389996920000       7.483030314700
       197    1       42.677600000000       0.000000000000       8.619950000000
       198    1       45.344950000000       4.620000000000       8.619950000000
       199    1       45.344950000000       0.000000000000       8.619950000000
       200    1       42.677600000000       4.620000000000       8.619950000000
       201    2       44.011275000000       0.769996920000       9.756869685300
       202    2       46.678625000000       5.389996920000       9.756869685300
       203    2       42.677600000000       3.079996920000       9.756869685300
       204    2       45.344950000000       7.699996920000       9.756869685300
       205    2       42.677600000000       3.079996920000       7.483030314700
       206    2       45.344950000000       7.699996920000       7.483030314700
       207    2       46.678625000000       0.769996920000       9.756869685300
       208    2       44.011275000000       5.389996920000       9.756869685300
       209    2       45.344950000000       3.079996920000       7.483030314700
       210    2       45.344950000000       3.079996920000       9.756869685300
       211    2       42.677600000000       7.699996920000       7.483030314700
       212    2       42.677600000000       7.699996920000       9.756869685300
       213    1       44.011275000000       2.310000000000       8.619950000000
       214    1       46.678625000000       6.930000000000       8.619950000000
       215    2       46.678625000000       0.769996920000       7.483030314700
       216    2       44.011275000000       5.389996920000       7.483030314700
       217    1       52.013325000000       2.310000000000       8.619950000000
       218    1       49.345975000000       6.930000000000       8.619950000000
       219    2       49.345975000000       0.769996920000       7.483030314700
       220    2       52.013325000000       5.389996920000       7.483030314700
       221    1       48.012300000000       0.000000000000       8.619950000000
       222    1       50.679650000000       4.620000000000       8.619950000000
       223    1       50.679650000000       0.000000000000       8.619950000000
       224    1       48.012300000000       4.620000000000       8.619950000000
       225    2       49.345975000000       0.769996920000       9.756869685300
       226    2       52.013325000000       5.389996920000       9.756869685300
       227    2       48.012300000000       3.079996920000       9.756869685300
       228    2       50.679650000000       7.699996920000       9.756869685300
       229    2       48.012300000000       3.079996920000       7.483030314700
       230    2       50.679650000000       7.699996920000       7.483030314700
       231    2       52.013325000000       0.769996920000       9.756869685300
       232    2       49.345975000000       5.389996920000       9.756869685300
       233    2       50.679650000000       3.079996920000       7.483030314700
       234    2       50.679650000000       3.079996920000       9.756869685300
       235    2       48.012300000000       7.699996920000       7.483030314700
       236    2       48.012300000000       7.699996920000       9.756869685300
       237    1       49.345975000000       2.310000000000       8.619950000000
       238    1       52.013325000000       6.930000000000       8.619950000000
       239    2       52.013325000000       0.769996920000       7.483030314700
       240    2       49.345975000000       5.389996920000       7.483030314700
       241    1       57.348025000000       2.310000000000       8.619950000000
       242    1       54.680675000000       6.930000000000       8.619950000000
       243    2       54.680675000000       0.769996920000       7.483030314700
       244    2       57.348025000000       5.389996920000       7.483030314700
       245    1       53.347000000000       0.000000000000       8.619950000000
       246    1       56.014350000000       4.620000000000       8.619950000000
       247    1       56.014350000000       0.000000000000       8.619950000000
       248    1       53.347000000000       4.620000000000       8.619950000000
       249    2       54.680675000000       0.769996920000       9.756869685300
       250    2       57.348025000000       5.389996920000       9.756869685300
       251    2       53.347000000000       3.079996920000       9.756869685300
       252    2       56.014350000000       7.699996920000       9.756869685300
       253    2       53.347000000000       3.079996920000       7.483030314700
       254    2       56.014350000000       7.699996920000       7.483030314700
       255    2       57.348025000000       0.769996920000       9.756869685300
       256    2       54.680675000000       5.389996920000       9.756869685300
       257    2       56.014350000000       3.079996920000       7.483030314700
       258    2       56.014350000000       3.079996920000       9.756869685300
       259    2       53.347000000000       7.699996920000       7.483030314700
       260    2       53.347000000000       7.699996920000       9.756869685300
       261    1       54.680675000000       2.310000000000       8.619950000000
       262    1       57.348025000000       6.930000000000       8.619950000000
       263    2       57.348025000000       0.769996920000       7.483030314700
       264    2       54.680675000000       5.389996920000       7.483030314700
       265    1       62.682725000000       2.310000000000       8.619950000000
       266    1       60.015375000000       6.930000000000       8.619950000000
       267    2       60.015375000000       0.769996920000       7.483030314700
       268    2       62.682725000000       5.389996920000       7.483030314700
       269    1       58.681700000000       0.000000000000       8.619950000000
       270    1       61.349050000000       4.620000000000       8.619950000000
       271    1       61.349050000000       0.000000000000       8.619950000000
       272    1       58.681700000000       4.620000000000       8.619950000000
       273    2       60.015375000000       0.769996920000       9.756869685300
       274    2       62.682725000000       5.389996920000       9.756869685300
       275    2       58.681700000000       3.079996920000       9.756869685300
       276    2       61.349050000000       7.699996920000       9.756869685300
       277    2       58.681700000000       3.079996920000       7.483030314700
       278    2       61.349050000000       7.699996920000       7.483030314700
       279    2       62.682725000000       0.769996920000       9.756869685300
       280    2       60.015375000000       5.389996920000       9.756869685300
       281    2       61.349050000000       3.079996920000       7.483030314700
       282    2       61.349050000000       3.079996920000       9.756869685300
       283    2       58.681700000000       7.699996920000       7.483030314700
       284    2       58.681700000000       7.699996920000       9.756869685300
       285    1       60.015375000000       2.310000000000       8.619950000000
       286    1       62.682725000000       6.930000000000       8.619950000000
       287    2       62.682725000000       0.769996920000       7.483030314700
       288    2       60.015375000000       5.389996920000       7.483030314700
       289    1       68.017425000000       2.310000000000       8.619950000000
       290    1       65.350075000000       6.930000000000       8.619950000000
       291    2       65.350075000000       0.769996920000       7.483030314700
       292    2       68.017425000000       5.389996920000       7.483030314700
       293    1       64.016400000000       0.000000000000       8.619950000000
       294    1       66.683750000000       4.620000000000       8.619950000000
       295    1       66.683750000000       0.000000000000       8.619950000000
       296    1       64.016400000000       4.620000000000       8.619950000000
       297    2       65.350075000000       0.769996920000       9.756869685300
       298    2       68.017425000000       5.389996920000       9.756869685300
       299    2       64.016400000000       3.079996920000       9.756869685300
       300    2       66.683750000000       7.699996920000       9.756869685300
       301    2       64.016400000000       3.079996920000       7.483030314700
       302    2       66.683750000000       7.699996920000       7.483030314700
       303    2       68.017425000000       0.769996920000       9.756869685300
       304    2       65.350075000000       5.389996920000       9.756869685300
       305    2       66.683750000000       3.079996920000       7.483030314700
       306    2       66.683750000000       3.079996920000       9.756869685300
       307    2       64.016400000000       7.699996920000       7.483030314700
       308    2       64.016400000000       7.699996920000       9.756869685300
       309    1       65.350075000000       2.310000000000       8.619950000000
       310    1       68.017425000000       6.930000000000       8.619950000000
       311    2       68.017425000000       0.769996920000       7.483030314700
       312    2       65.350075000000       5.389996920000       7.483030314700
       313    1       73.352125000000       2.310000000000       8.619950000000
       314    1       70.684775000000       6.930000000000       8.619950000000
       315    2       70.684775000000       0.769996920000       7.483030314700
       316    2       73.352125000000       5.389996920000       7.483030314700
       317    1       69.351100000000       0.000000000000       8.619950000000
       318    1       72.018450000000       4.620000000000       8.619950000000
       319    1       72.018450000000       0.000000000000       8.619950000000
       320    1       69.351100000000       4.620000000000       8.619950000000
       321    2       70.684775000000       0.769996920000       9.756869685300
       322    2       73.352125000000       5.389996920000       9.756869685300
       323    2       69.351100000000       3.079996920000       9.756869685300
       324    2       72.018450000000       7.699996920000       9.756869685300
       325    2       69.351100000000       3.079996920000       7.483030314700
       326    2       72.018450000000       7.699996920000       7.483030314700
       327    2       73.352125000000       0.769996920000       9.756869685300
       328    2       70.684775000000       5.389996920000       9.756869685300
       329    2       72.018450000000       3.079996920000       7.483030314700
       330    2       72.018450000000       3.079996920000       9.756869685300
       331    2       69.351100000000       7.699996920000       7.483030314700
       332    2       69.351100000000       7.699996920000       9.756869685300
       333    1       70.684775000000       2.310000000000       8.619950000000
       334    1       73.352125000000       6.930000000000       8.619950000000
       335    2       73.352125000000       0.769996920000       7.483030314700
       336    2       70.684775000000       5.389996920000       7.483030314700
       337    1       78.686825000000       2.310000000000       8.619950000000
       338    1       76.019475000000       6.930000000000       8.619950000000
       339    2       76.019475000000       0.769996920000       7.483030314700
       340    2       78.686825000000       5.389996920000       7.483030314700
       341    1       74.685800000000       0.000000000000       8.619950000000
       342    1       77.353150000000       4.620000000000       8.619950000000
       343    1       77.353150000000       0.000000000000       8.619950000000
       344    1       74.685800000000       4.620000000000       8.619950000000
       345    2       76.019475000000       0.769996920000       9.756869685300
       346    2       78.686825000000       5.389996920000       9.756869685300
       347    2       74.685800000000       3.079996920000       9.756869685300
       348    2       77.353150000000       7.699996920000       9.756869685300
       349    2       74.685800000000       3.079996920000       7.483030314700
       350    2       77.353150000000       7.699996920000       7.483030314700
       351    2       78.686825000000       0.769996920000       9.756869685300
       352    2       76.019475000000       5.389996920000       9.756869685300
       353    2       77.353150000000       3.079996920000       7.483030314700
       354    2       77.353150000000       3.079996920000       9.756869685300
       355    2       74.685800000000       7.699996920000       7.483030314700
       356    2       74.685800000000       7.699996920000       9.756869685300
       357    1       76.019475000000       2.310000000000       8.619950000000
       358    1       78.686825000000       6.930000000000       8.619950000000
       359    2       78.686825000000       0.769996920000       7.483030314700
       360    2       76.019475000000       5.389996920000       7.483030314700
       361    1       84.021525000000       2.310000000000       8.619950000000
       362    1       81.354175000000       6.930000000000       8.619950000000
       363    2       81.354175000000       0.769996920000       7.483030314700
       364    2       84.021525000000       5.389996920000       7.483030314700
       365    1       80.020500000000       0.000000000000       8.619950000000
       366    1       82.687850000000       4.620000000000       8.619950000000
       367    1       82.687850000000       0.000000000000       8.619950000000
       368    1       80.020500000000       4.620000000000       8.619950000000
       369    2       81.354175000000       0.769996920000       9.756869685300
       370    2       84.021525000000       5.389996920000       9.756869685300