 # Te16 Mo8
  
        2688  atoms
           2  atom types
 
      0.000000000000      99.327200000000  xlo xhi
      0.000000000000      98.308000000000  ylo yhi
      0.000000000000      18.610200000000  zlo zhi
 
Masses
 
            1   127.60000000            # Te
            2   95.96000000             # Mo
 
Atoms # atomic
 
         1    1        3.547400000000       4.096162570500      11.110196349000
         2    1        0.000000000000      10.240412570500      11.110196349000
         3    1        5.321100000000       1.024037570500       7.500003651000
         4    2        1.773700000000       3.072125000000       9.305100000000
         5    1        1.773700000000       7.168287570500       7.500003651000
         6    2        5.321100000000       9.216375000000       9.305100000000
         7    2        3.547400000000       0.000000000000       9.305100000000
         8    2        0.000000000000       6.144250000000       9.305100000000
         9    2        5.321100000000       3.072125000000       9.305100000000
        10    2        1.773700000000       9.216375000000       9.305100000000
        11    1        0.000000000000       4.096162570500       7.500003651000
        12    1        3.547400000000      10.240412570500       7.500003651000
        13    1        5.321100000000       1.024037570500      11.110196349000
        14    1        1.773700000000       7.168287570500      11.110196349000
        15    1        0.000000000000       4.096162570500      11.110196349000
        16    1        3.547400000000      10.240412570500      11.110196349000
        17    2        0.000000000000       0.000000000000       9.305100000000
        18    2        3.547400000000       6.144250000000       9.305100000000
        19    1        1.773700000000       1.024037570500       7.500003651000
        20    1        5.321100000000       7.168287570500       7.500003651000
        21    1        1.773700000000       1.024037570500      11.110196349000
        22    1        5.321100000000       7.168287570500      11.110196349000
        23    1        3.547400000000       4.096162570500       7.500003651000
        24    1        0.000000000000      10.240412570500       7.500003651000
        25    1       10.642200000000       4.096162570500      11.110196349000
        26    1        7.094800000000      10.240412570500      11.110196349000
        27    1       12.415900000000       1.024037570500       7.500003651000
        28    2        8.868500000000       3.072125000000       9.305100000000
        29    1        8.868500000000       7.168287570500       7.500003651000
        30    2       12.415900000000       9.216375000000       9.305100000000
        31    2       10.642200000000       0.000000000000       9.305100000000
        32    2        7.094800000000       6.144250000000       9.305100000000
        33    2       12.415900000000       3.072125000000       9.305100000000
        34    2        8.868500000000       9.216375000000       9.305100000000
        35    1        7.094800000000       4.096162570500       7.500003651000
        36    1       10.642200000000      10.240412570500       7.500003651000
        37    1       12.415900000000       1.024037570500      11.110196349000
        38    1        8.868500000000       7.168287570500      11.110196349000
        39    1        7.094800000000       4.096162570500      11.110196349000
        40    1       10.642200000000      10.240412570500      11.110196349000
        41    2        7.094800000000       0.000000000000       9.305100000000
        42    2       10.642200000000       6.144250000000       9.305100000000
        43    1        8.868500000000       1.024037570500       7.500003651000
        44    1       12.415900000000       7.168287570500       7.500003651000
        45    1        8.868500000000       1.024037570500      11.110196349000
        46    1       12.415900000000       7.168287570500      11.110196349000
        47    1       10.642200000000       4.096162570500       7.500003651000
        48    1        7.094800000000      10.240412570500       7.500003651000
        49    1       17.737000000000       4.096162570500      11.110196349000
        50    1       14.189600000000      10.240412570500      11.110196349000
        51    1       19.510700000000       1.024037570500       7.500003651000
        52    2       15.963300000000       3.072125000000       9.305100000000
        53    1       15.963300000000       7.168287570500       7.500003651000
        54    2       19.510700000000       9.216375000000       9.305100000000
        55    2       17.737000000000       0.000000000000       9.305100000000
        56    2       14.189600000000       6.144250000000       9.305100000000
        57    2       19.510700000000       3.072125000000       9.305100000000
        58    2       15.963300000000       9.216375000000       9.305100000000
        59    1       14.189600000000       4.096162570500       7.500003651000
        60    1       17.737000000000      10.240412570500       7.500003651000
        61    1       19.510700000000       1.024037570500      11.110196349000
        62    1       15.963300000000       7.168287570500      11.110196349000
        63    1       14.189600000000       4.096162570500      11.110196349000
        64    1       17.737000000000      10.240412570500      11.110196349000
        65    2       14.189600000000       0.000000000000       9.305100000000
        66    2       17.737000000000       6.144250000000       9.305100000000
        67    1       15.963300000000       1.024037570500       7.500003651000
        68    1       19.510700000000       7.168287570500       7.500003651000
        69    1       15.963300000000       1.024037570500      11.110196349000
        70    1       19.510700000000       7.168287570500      11.110196349000
        71    1       17.737000000000       4.096162570500       7.500003651000
        72    1       14.189600000000      10.240412570500       7.500003651000
        73    1       24.831800000000       4.096162570500      11.110196349000
        74    1       21.284400000000      10.240412570500      11.110196349000
        75    1       26.605500000000       1.024037570500       7.500003651000
        76    2       23.058100000000       3.072125000000       9.305100000000
        77    1       23.058100000000       7.168287570500       7.500003651000
        78    2       26.605500000000       9.216375000000       9.305100000000
        79    2       24.831800000000       0.000000000000       9.305100000000
        80    2       21.284400000000       6.144250000000       9.305100000000
        81    2       26.605500000000       3.072125000000       9.305100000000
        82    2       23.058100000000       9.216375000000       9.305100000000
        83    1       21.284400000000       4.096162570500       7.500003651000
        84    1       24.831800000000      10.240412570500       7.500003651000
        85    1       26.605500000000       1.024037570500      11.110196349000
        86    1       23.058100000000       7.168287570500      11.110196349000
        87    1       21.284400000000       4.096162570500      11.110196349000
        88    1       24.831800000000      10.240412570500      11.110196349000
        89    2       21.284400000000       0.000000000000       9.305100000000
        90    2       24.831800000000       6.144250000000       9.305100000000
        91    1       23.058100000000       1.024037570500       7.500003651000
        92    1       26.605500000000       7.168287570500       7.500003651000
        93    1       23.058100000000       1.024037570500      11.110196349000
        94    1       26.605500000000       7.168287570500      11.110196349000
        95    1       24.831800000000       4.096162570500       7.500003651000
        96    1       21.284400000000      10.240412570500       7.500003651000
        97    1       31.926600000000       4.096162570500      11.110196349000
        98    1       28.379200000000      10.240412570500      11.110196349000
        99    1       33.700300000000       1.024037570500       7.500003651000
       100    2       30.152900000000       3.072125000000       9.305100000000
       101    1       30.152900000000       7.168287570500       7.500003651000
       102    2       33.700300000000       9.216375000000       9.305100000000
       103    2       31.926600000000       0.000000000000       9.305100000000
       104    2       28.379200000000       6.144250000000       9.305100000000
       105    2       33.700300000000       3.072125000000       9.305100000000
       106    2       30.152900000000       9.216375000000       9.305100000000
       107    1       28.379200000000       4.096162570500       7.500003651000
       108    1       31.926600000000      10.240412570500       7.500003651000
       109    1       33.700300000000       1.024037570500      11.110196349000
       110    1       30.152900000000       7.168287570500      11.110196349000
       111    1       28.379200000000       4.096162570500      11.110196349000
       112    1       31.926600000000      10.240412570500      11.110196349000
       113    2       28.379200000000       0.000000000000       9.305100000000
       114    2       31.926600000000       6.144250000000       9.305100000000
       115    1       30.152900000000       1.024037570500       7.500003651000
       116    1       33.700300000000       7.168287570500       7.500003651000
       117    1       30.152900000000       1.024037570500      11.110196349000
       118    1       33.700300000000       7.168287570500      11.110196349000
       119    1       31.926600000000       4.096162570500       7.500003651000
       120    1       28.379200000000      10.240412570500       7.500003651000
       121    1       39.021400000000       4.096162570500      11.110196349000
       122    1       35.474000000000      10.240412570500      11.110196349000
       123    1       40.795100000000       1.024037570500       7.500003651000
       124    2       37.247700000000       3.072125000000       9.305100000000
       125    1       37.247700000000       7.168287570500       7.500003651000
       126    2       40.795100000000       9.216375000000       9.305100000000
       127    2       39.021400000000       0.000000000000       9.305100000000
       128    2       35.474000000000       6.144250000000       9.305100000000
       129    2       40.795100000000       3.072125000000       9.305100000000
       130    2       37.247700000000       9.216375000000       9.305100000000
       131    1       35.474000000000       4.096162570500       7.500003651000
       132    1       39.021400000000      10.240412570500       7.500003651000
       133    1       40.795100000000       1.024037570500      11.110196349000
       134    1       37.247700000000       7.168287570500      11.110196349000
       135    1       35.474000000000       4.096162570500      11.110196349000
       136    1       39.021400000000      10.240412570500      11.110196349000
       137    2       35.474000000000       0.000000000000       9.305100000000
       138    2       39.021400000000       6.144250000000       9.305100000000
       139    1       37.247700000000       1.024037570500       7.500003651000
       140    1       40.795100000000       7.168287570500       7.500003651000
       141    1       37.247700000000       1.024037570500      11.110196349000
       142    1       40.795100000000       7.168287570500      11.110196349000
       143    1       39.021400000000       4.096162570500       7.500003651000
       144    1       35.474000000000      10.240412570500       7.500003651000
       145    1       46.116200000000       4.096162570500      11.110196349000
       146    1       42.568800000000      10.240412570500      11.110196349000
       147    1       47.889900000000       1.024037570500       7.500003651000
       148    2       44.342500000000       3.072125000000       9.305100000000
       149    1       44.342500000000       7.168287570500       7.500003651000
       150    2       47.889900000000       9.216375000000       9.305100000000
       151    2       46.116200000000       0.000000000000       9.305100000000
       152    2       42.568800000000       6.144250000000       9.305100000000
       153    2       47.889900000000       3.072125000000       9.305100000000
       154    2       44.342500000000       9.216375000000       9.305100000000
       155    1       42.568800000000       4.096162570500       7.500003651000
       156    1       46.116200000000      10.240412570500       7.500003651000
       157    1       47.889900000000       1.024037570500      11.110196349000
       158    1       44.342500000000       7.168287570500      11.110196349000
       159    1       42.568800000000       4.096162570500      11.110196349000
       160    1       46.116200000000      10.240412570500      11.110196349000
       161    2       42.568800000000       0.000000000000       9.305100000000
       162    2       46.116200000000       6.144250000000       9.305100000000
       163    1       44.342500000000       1.024037570500       7.500003651000
       164    1       47.889900000000       7.168287570500       7.500003651000
       165    1       44.342500000000       1.024037570500      11.110196349000
       166    1       47.889900000000       7.168287570500      11.110196349000
       167    1       46.116200000000       4.096162570500       7.500003651000
       168    1       42.568800000000      10.240412570500       7.500003651000
       169    1       53.211000000000       4.096162570500      11.110196349000
       170    1       49.663600000000      10.240412570500      11.110196349000
       171    1       54.984700000000       1.024037570500       7.500003651000
       172    2       51.437300000000       3.072125000000       9.305100000000
       173    1       51.437300000000       7.168287570500       7.500003651000
       174    2       54.984700000000       9.216375000000       9.305100000000
       175    2       53.211000000000       0.000000000000       9.305100000000
       176    2       49.663600000000       6.144250000000       9.305100000000
       177    2       54.984700000000       3.072125000000       9.305100000000
       178    2       51.437300000000       9.216375000000       9.305100000000
       179    1       49.663600000000       4.096162570500       7.500003651000
       180    1       53.211000000000      10.240412570500       7.500003651000
       181    1       54.984700000000       1.024037570500      11.110196349000
       182    1       51.437300000000       7.168287570500      11.110196349000
       183    1       49.663600000000       4.096162570500      11.110196349000
       184    1       53.211000000000      10.240412570500      11.110196349000
       185    2       49.663600000000       0.000000000000       9.305100000000
       186    2       53.211000000000       6.144250000000       9.305100000000
       187    1       51.437300000000       1.024037570500       7.500003651000
       188    1       54.984700000000       7.168287570500       7.500003651000
       189    1       51.437300000000       1.024037570500      11.110196349000
       190    1       54.984700000000       7.168287570500      11.110196349000
       191    1       53.211000000000       4.096162570500       7.500003651000
       192    1       49.663600000000      10.240412570500       7.500003651000
       193    1       60.305800000000       4.096162570500      11.110196349000
       194    1       56.758400000000      10.240412570500      11.110196349000
       195    1       62.079500000000       1.024037570500       7.500003651000
       196    2       58.532100000000       3.072125000000       9.305100000000
       197    1       58.532100000000       7.168287570500       7.500003651000
       198    2       62.079500000000       9.216375000000       9.305100000000
       199    2       60.305800000000       0.000000000000       9.305100000000
       200    2       56.758400000000       6.144250000000       9.305100000000
       201    2       62.079500000000       3.072125000000       9.305100000000
       202    2       58.532100000000       9.216375000000       9.305100000000
       203    1       56.758400000000       4.096162570500       7.500003651000
       204    1       60.305800000000      10.240412570500       7.500003651000
       205    1       62.079500000000       1.024037570500      11.110196349000
       206    1       58.532100000000       7.168287570500      11.110196349000
       207    1       56.758400000000       4.096162570500      11.110196349000
       208    1       60.305800000000      10.240412570500      11.110196349000
       209    2       56.758400000000       0.000000000000       9.305100000000
       210    2       60.305800000000       6.144250000000       9.305100000000
       211    1       58.532100000000       1.024037570500       7.500003651000
       212    1       62.079500000000       7.168287570500       7.500003651000
       213    1       58.532100000000       1.024037570500      11.110196349000
       214    1       62.079500000000       7.168287570500      11.110196349000
       215    1       60.305800000000       4.096162570500       7.500003651000
       216    1       56.758400000000      10.240412570500       7.500003651000
       217    1       67.400600000000       4.096162570500      11.110196349000
       218    1       63.853200000000      10.240412570500      11.110196349000
       219    1       69.174300000000       1.024037570500       7.500003651000
       220    2       65.626900000000       3.072125000000       9.305100000000
       221    1       65.626900000000       7.168287570500       7.500003651000
       222    2       69.174300000000       9.216375000000       9.305100000000
       223    2       67.400600000000       0.000000000000       9.305100000000
       224    2       63.853200000000       6.144250000000       9.305100000000
       225    2       69.174300000000       3.072125000000       9.305100000000
       226    2       65.626900000000       9.216375000000       9.305100000000
       227    1       63.853200000000       4.096162570500       7.500003651000
       228    1       67.400600000000      10.240412570500       7.500003651000
       229    1       69.174300000000       1.024037570500      11.110196349000
       230    1       65.626900000000       7.168287570500      11.110196349000
       231    1       63.853200000000       4.096162570500      11.110196349000
       232    1       67.400600000000      10.240412570500      11.110196349000
       233    2       63.853200000000       0.000000000000       9.305100000000
       234    2       67.400600000000       6.144250000000       9.305100000000
       235    1       65.626900000000       1.024037570500       7.500003651000
       236    1       69.174300000000       7.168287570500       7.500003651000
       237    1       65.626900000000       1.024037570500      11.110196349000
       238    1       69.174300000000       7.168287570500      11.110196349000
       239    1       67.400600000000       4.096162570500       7.500003651000
       240    1       63.853200000000      10.240412570500       7.500003651000
       241    1       74.495400000000       4.096162570500      11.110196349000
       242    1       70.948000000000      10.240412570500      11.110196349000
       243    1       76.269100000000       1.024037570500       7.500003651000
       244    2       72.721700000000       3.072125000000       9.305100000000
       245    1       72.721700000000       7.168287570500       7.500003651000
       246    2       76.269100000000       9.216375000000       9.305100000000
       247    2       74.495400000000       0.000000000000       9.305100000000
       248    2       70.948000000000       6.144250000000       9.305100000000
       249    2       76.269100000000       3.072125000000       9.305100000000
       250    2       72.721700000000       9.216375000000       9.305100000000
       251    1       70.948000000000       4.096162570500       7.500003651000
       252    1       74.495400000000      10.240412570500       7.500003651000
       253    1       76.269100000000       1.024037570500      11.110196349000
       254    1       72.721700000000       7.168287570500      11.110196349000
       255    1       70.948000000000       4.096162570500      11.110196349000
       256    1       74.495400000000      10.240412570500      11.110196349000
       257    2       70.948000000000       0.000000000000       9.305100000000
       258    2       74.495400000000       6.144250000000       9.305100000000
       259    1       72.721700000000       1.024037570500       7.500003651000
       260    1       76.269100000000       7.168287570500       7.500003651000
       261    1       72.721700000000       1.024037570500      11.110196349000
       262    1       76.269100000000       7.168287570500      11.110196349000
       263    1       74.495400000000       4.096162570500       7.500003651000
       264    1       70.948000000000      10.240412570500       7.500003651000
       265    1       81.590200000000       4.096162570500      11.110196349000
       266    1       78.042800000000      10.240412570500      11.110196349000
       267    1       83.363900000000       1.024037570500       7.500003651000
       268    2       79.816500000000       3.072125000000       9.305100000000
       269    1       79.816500000000       7.168287570500       7.500003651000
       270    2       83.363900000000       9.216375000000       9.305100000000
       271    2       81.590200000000       0.000000000000       9.305100000000
       272    2       78.042800000000       6.144250000000       9.305100000000
       273    2       83.363900000000       3.072125000000       9.305100000000
       274    2       79.816500000000       9.216375000000       9.305100000000
       275    1       78.042800000000       4.096162570500       7.500003651000
       276    1       81.590200000000      10.240412570500       7.500003651000
       277    1       83.363900000000       1.024037570500      11.110196349000
       278    1       79.816500000000       7.168287570500      11.110196349000
       279    1       78.042800000000       4.096162570500      11.110196349000
       280    1       81.590200000000      10.240412570500      11.110196349000
       281    2       78.042800000000       0.000000000000       9.305100000000
       282    2       81.590200000000       6.144250000000       9.305100000000
       283    1       79.816500000000       1.024037570500       7.500003651000
       284    1       83.363900000000       7.168287570500       7.500003651000
       285    1       79.816500000000       1.024037570500      11.110196349000
       286    1       83.363900000000       7.168287570500      11.110196349000
       287    1       81.590200000000       4.096162570500       7.500003651000
       288    1       78.042800000000      10.240412570500       7.500003651000
       289    1       88.685000000000       4.096162570500      11.110196349000
       290    1       85.137600000000      10.240412570500      11.110196349000
       291    1       90.458700000000       1.024037570500       7.500003651000
       292    2       86.911300000000       3.072125000000       9.305100000000
       293    1       86.911300000000       7.168287570500       7.500003651000
       294    2       90.458700000000       9.216375000000       9.305100000000
       295    2       88.685000000000       0.000000000000       9.305100000000
       296    2       85.137600000000       6.144250000000       9.305100000000
       297    2       90.458700000000       3.072125000000       9.305100000000
       298    2       86.911300000000       9.216375000000       9.305100000000
       299    1       85.137600000000       4.096162570500       7.500003651000
       300    1       88.685000000000      10.240412570500       7.500003651000
       301    1       90.458700000000       1.024037570500      11.110196349000
       302    1       86.911300000000       7.168287570500      11.110196349000
       303    1       85.137600000000       4.096162570500      11.110196349000
       304    1       88.685000000000      10.240412570500      11.110196349000
       305    2       85.137600000000       0.000000000000       9.305100000000
       306    2       88.685000000000       6.144250000000       9.305100000000
       307    1       86.911300000000       1.024037570500       7.500003651000
       308    1       90.458700000000       7.168287570500       7.500003651000
       309    1       86.911300000000       1.024037570500      11.110196349000
       310    1       90.458700000000       7.168287570500      11.110196349000
       311    1       88.685000000000       4.096162570500       7.500003651000
       312    1       85.137600000000      10.240412570500       7.500003651000
       313    1       95.779800000000       4.096162570500      11.110196349000
       314    1       92.232400000000      10.240412570500      11.110196349000
       315    1       97.553500000000       1.024037570500       7.500003651000
       316    2       94.006100000000       3.072125000000       9.305100000000
       317    1       94.006100000000       7.168287570500       7.500003651000
       318    2       97.553500000000       9.216375000000       9.305100000000
       319    2       95.779800000000       0.000000000000       9.305100000000
       320    2       92.232400000000       6.144250000000       9.305100000000
       321    2       97.553500000000       3.072125000000       9.305100000000
       322    2       94.006100000000       9.216375000000       9.305100000000
       323    1       92.232400000000       4.096162570500       7.500003651000
       324    1       95.779800000000      10.240412570500       7.500003651000
       325    1       97.553500000000       1.024037570500      11.110196349000
       326    1       94.006100000000       7.168287570500      11.110196349000
       327    1       92.232400000000       4.096162570500      11.110196349000
       328    1       95.779800000000      10.240412570500      11.110196349000
       329    2       92.232400000000       0.000000000000       9.305100000000
       330    2       95.779800000000       6.144250000000       9.305100000000
       331    1       94.006100000000       1.024037570500       7.500003651000
       332    1       97.553500000000       7.168287570500       7.500003651000
       333    1       94.006100000000       1.024037570500      11.110196349000
       334    1       97.553500000000       7.168287570500      11.110196349000
       335    1       95.779800000000       4.096162570500       7.500003651000
       336    1       92.232400000000      10.240412570500       7.500003651000
       337    1        3.547400000000      16.384662570500      11.110196349000
       338    1        0.000000000000      22.528912570500      11.110196349000
       339    1        5.321100000000      13.312537570500       7.500003651000
       340    2        1.773700000000      15.360625000000       9.305100000000
       341    1        1.773700000000      19.456787570500       7.500003651000
       342    2        5.321100000000      21.504875000000       9.305100000000
       343    2        3.547400000000      12.288500000000       9.305100000000
       344    2        0.000000000000      18.432750000000       9.305100000000
       345    2        5.321100000000      15.360625000000       9.305100000000
       346    2        1.773700000000      21.504875000000       9.305100000000
       347    1        0.000000000000      16.384662570500       7.500003651000
       348    1        3.547400000000      22.528912570500       7.500003651000
       349    1        5.321100000000      13.312537570500      11.110196349000
       350    1        1.773700000000      19.456787570500      11.110196349000
       351    1        0.000000000000      16.384662570500      11.110196349000
       352    1        3.547400000000      22.528912570500      11.110196349000
       353    2        0.000000000000      12.288500000000       9.305100000000
       354    2        3.547400000000      18.432750000000       9.305100000000
       355    1        1.773700000000      13.312537570500       7.500003651000
       356    1        5.321100000000      19.456787570500       7.500003651000
       357    1        1.773700000000      13.312537570500      11.110196349000
       358    1        5.321100000000      19.456787570500      11.110196349000
       359    1        3.547400000000      16.384662570500       7.500003651000
       360    1        0.000000000000      22.528912570500       7.500003651000
       361    1       10.642200000000      16.384662570500      11.110196349000
       362    1        7.094800000000      22.528912570500      11.110196349000
       363    1       12.415900000000      13.312537570500       7.500003651000
       364    2        8.868500000000      15.360625000000       9.305100000000
       365    1        8.868500000000      19.456787570500       7.500003651000
       366    2       12.415900000000      21.504875000000       9.305100000000
       367    2       10.642200000000      12.288500000000       9.305100000000
       368    2        7.094800000000      18.432750000000       9.305100000000
       369    2       12.415900000000      15.360625000000       9.305100000000
       370    2        8.868500000000      21.504875000000       9.305100000000