 # Mo8 S16
  
        3456  atoms
           2  atom types
 
      0.000000000000     101.889600000000  xlo xhi
      0.000000000000      99.269100000000  ylo yhi
      0.000000000000      18.127100000000  zlo zhi
 
Masses
 
            1   95.96000000             # Mo
            2   32.06000000             # S
 
Atoms # atomic
 
         1    1        0.000000000000       0.000000000000       9.063550000000
         2    2        4.776075000000       0.919154656700       7.499996989500
         3    2        1.592025000000       6.434104656700       7.499996989500
         4    2        1.592025000000       0.919154656700       7.499996989500
         5    1        3.184050000000       5.514950000000       9.063550000000
         6    2        4.776075000000       6.434104656700       7.499996989500
         7    2        4.776075000000       0.919154656700      10.627103010500
         8    2        1.592025000000       6.434104656700      10.627103010500
         9    1        4.776075000000       2.757475000000       9.063550000000
        10    1        1.592025000000       8.272425000000       9.063550000000
        11    2        1.592025000000       0.919154656700      10.627103010500
        12    2        4.776075000000       6.434104656700      10.627103010500
        13    1        1.592025000000       2.757475000000       9.063550000000
        14    1        4.776075000000       8.272425000000       9.063550000000
        15    2        3.184050000000       3.676629656700      10.627103010500
        16    2        0.000000000000       3.676629656700       7.499996989500
        17    2        0.000000000000       9.191579656700      10.627103010500
        18    2        3.184050000000       9.191579656700       7.499996989500
        19    2        3.184050000000       3.676629656700       7.499996989500
        20    2        6.368100000000       9.191579656700       7.499996989500
        21    2        0.000000000000       3.676629656700      10.627103010500
        22    2        3.184050000000       9.191579656700      10.627103010500
        23    1        3.184050000000       0.000000000000       9.063550000000
        24    1        0.000000000000       5.514950000000       9.063550000000
        25    1        6.368100000000       0.000000000000       9.063550000000
        26    2       11.144175000000       0.919154656700       7.499996989500
        27    2        7.960125000000       6.434104656700       7.499996989500
        28    2        7.960125000000       0.919154656700       7.499996989500
        29    1        9.552150000000       5.514950000000       9.063550000000
        30    2       11.144175000000       6.434104656700       7.499996989500
        31    2       11.144175000000       0.919154656700      10.627103010500
        32    2        7.960125000000       6.434104656700      10.627103010500
        33    1       11.144175000000       2.757475000000       9.063550000000
        34    1        7.960125000000       8.272425000000       9.063550000000
        35    2        7.960125000000       0.919154656700      10.627103010500
        36    2       11.144175000000       6.434104656700      10.627103010500
        37    1        7.960125000000       2.757475000000       9.063550000000
        38    1       11.144175000000       8.272425000000       9.063550000000
        39    2        9.552150000000       3.676629656700      10.627103010500
        40    2        6.368100000000       3.676629656700       7.499996989500
        41    2        6.368100000000       9.191579656700      10.627103010500
        42    2        9.552150000000       9.191579656700       7.499996989500
        43    2        9.552150000000       3.676629656700       7.499996989500
        44    2       12.736200000000       9.191579656700       7.499996989500
        45    2        6.368100000000       3.676629656700      10.627103010500
        46    2        9.552150000000       9.191579656700      10.627103010500
        47    1        9.552150000000       0.000000000000       9.063550000000
        48    1        6.368100000000       5.514950000000       9.063550000000
        49    1       12.736200000000       0.000000000000       9.063550000000
        50    2       17.512275000000       0.919154656700       7.499996989500
        51    2       14.328225000000       6.434104656700       7.499996989500
        52    2       14.328225000000       0.919154656700       7.499996989500
        53    1       15.920250000000       5.514950000000       9.063550000000
        54    2       17.512275000000       6.434104656700       7.499996989500
        55    2       17.512275000000       0.919154656700      10.627103010500
        56    2       14.328225000000       6.434104656700      10.627103010500
        57    1       17.512275000000       2.757475000000       9.063550000000
        58    1       14.328225000000       8.272425000000       9.063550000000
        59    2       14.328225000000       0.919154656700      10.627103010500
        60    2       17.512275000000       6.434104656700      10.627103010500
        61    1       14.328225000000       2.757475000000       9.063550000000
        62    1       17.512275000000       8.272425000000       9.063550000000
        63    2       15.920250000000       3.676629656700      10.627103010500
        64    2       12.736200000000       3.676629656700       7.499996989500
        65    2       12.736200000000       9.191579656700      10.627103010500
        66    2       15.920250000000       9.191579656700       7.499996989500
        67    2       15.920250000000       3.676629656700       7.499996989500
        68    2       19.104300000000       9.191579656700       7.499996989500
        69    2       12.736200000000       3.676629656700      10.627103010500
        70    2       15.920250000000       9.191579656700      10.627103010500
        71    1       15.920250000000       0.000000000000       9.063550000000
        72    1       12.736200000000       5.514950000000       9.063550000000
        73    1       19.104300000000       0.000000000000       9.063550000000
        74    2       23.880375000000       0.919154656700       7.499996989500
        75    2       20.696325000000       6.434104656700       7.499996989500
        76    2       20.696325000000       0.919154656700       7.499996989500
        77    1       22.288350000000       5.514950000000       9.063550000000
        78    2       23.880375000000       6.434104656700       7.499996989500
        79    2       23.880375000000       0.919154656700      10.627103010500
        80    2       20.696325000000       6.434104656700      10.627103010500
        81    1       23.880375000000       2.757475000000       9.063550000000
        82    1       20.696325000000       8.272425000000       9.063550000000
        83    2       20.696325000000       0.919154656700      10.627103010500
        84    2       23.880375000000       6.434104656700      10.627103010500
        85    1       20.696325000000       2.757475000000       9.063550000000
        86    1       23.880375000000       8.272425000000       9.063550000000
        87    2       22.288350000000       3.676629656700      10.627103010500
        88    2       19.104300000000       3.676629656700       7.499996989500
        89    2       19.104300000000       9.191579656700      10.627103010500
        90    2       22.288350000000       9.191579656700       7.499996989500
        91    2       22.288350000000       3.676629656700       7.499996989500
        92    2       25.472400000000       9.191579656700       7.499996989500
        93    2       19.104300000000       3.676629656700      10.627103010500
        94    2       22.288350000000       9.191579656700      10.627103010500
        95    1       22.288350000000       0.000000000000       9.063550000000
        96    1       19.104300000000       5.514950000000       9.063550000000
        97    1       25.472400000000       0.000000000000       9.063550000000
        98    2       30.248475000000       0.919154656700       7.499996989500
        99    2       27.064425000000       6.434104656700       7.499996989500
       100    2       27.064425000000       0.919154656700       7.499996989500
       101    1       28.656450000000       5.514950000000       9.063550000000
       102    2       30.248475000000       6.434104656700       7.499996989500
       103    2       30.248475000000       0.919154656700      10.627103010500
       104    2       27.064425000000       6.434104656700      10.627103010500
       105    1       30.248475000000       2.757475000000       9.063550000000
       106    1       27.064425000000       8.272425000000       9.063550000000
       107    2       27.064425000000       0.919154656700      10.627103010500
       108    2       30.248475000000       6.434104656700      10.627103010500
       109    1       27.064425000000       2.757475000000       9.063550000000
       110    1       30.248475000000       8.272425000000       9.063550000000
       111    2       28.656450000000       3.676629656700      10.627103010500
       112    2       25.472400000000       3.676629656700       7.499996989500
       113    2       25.472400000000       9.191579656700      10.627103010500
       114    2       28.656450000000       9.191579656700       7.499996989500
       115    2       28.656450000000       3.676629656700       7.499996989500
       116    2       31.840500000000       9.191579656700       7.499996989500
       117    2       25.472400000000       3.676629656700      10.627103010500
       118    2       28.656450000000       9.191579656700      10.627103010500
       119    1       28.656450000000       0.000000000000       9.063550000000
       120    1       25.472400000000       5.514950000000       9.063550000000
       121    1       31.840500000000       0.000000000000       9.063550000000
       122    2       36.616575000000       0.919154656700       7.499996989500
       123    2       33.432525000000       6.434104656700       7.499996989500
       124    2       33.432525000000       0.919154656700       7.499996989500
       125    1       35.024550000000       5.514950000000       9.063550000000
       126    2       36.616575000000       6.434104656700       7.499996989500
       127    2       36.616575000000       0.919154656700      10.627103010500
       128    2       33.432525000000       6.434104656700      10.627103010500
       129    1       36.616575000000       2.757475000000       9.063550000000
       130    1       33.432525000000       8.272425000000       9.063550000000
       131    2       33.432525000000       0.919154656700      10.627103010500
       132    2       36.616575000000       6.434104656700      10.627103010500
       133    1       33.432525000000       2.757475000000       9.063550000000
       134    1       36.616575000000       8.272425000000       9.063550000000
       135    2       35.024550000000       3.676629656700      10.627103010500
       136    2       31.840500000000       3.676629656700       7.499996989500
       137    2       31.840500000000       9.191579656700      10.627103010500
       138    2       35.024550000000       9.191579656700       7.499996989500
       139    2       35.024550000000       3.676629656700       7.499996989500
       140    2       38.208600000000       9.191579656700       7.499996989500
       141    2       31.840500000000       3.676629656700      10.627103010500
       142    2       35.024550000000       9.191579656700      10.627103010500
       143    1       35.024550000000       0.000000000000       9.063550000000
       144    1       31.840500000000       5.514950000000       9.063550000000
       145    1       38.208600000000       0.000000000000       9.063550000000
       146    2       42.984675000000       0.919154656700       7.499996989500
       147    2       39.800625000000       6.434104656700       7.499996989500
       148    2       39.800625000000       0.919154656700       7.499996989500
       149    1       41.392650000000       5.514950000000       9.063550000000
       150    2       42.984675000000       6.434104656700       7.499996989500
       151    2       42.984675000000       0.919154656700      10.627103010500
       152    2       39.800625000000       6.434104656700      10.627103010500
       153    1       42.984675000000       2.757475000000       9.063550000000
       154    1       39.800625000000       8.272425000000       9.063550000000
       155    2       39.800625000000       0.919154656700      10.627103010500
       156    2       42.984675000000       6.434104656700      10.627103010500
       157    1       39.800625000000       2.757475000000       9.063550000000
       158    1       42.984675000000       8.272425000000       9.063550000000
       159    2       41.392650000000       3.676629656700      10.627103010500
       160    2       38.208600000000       3.676629656700       7.499996989500
       161    2       38.208600000000       9.191579656700      10.627103010500
       162    2       41.392650000000       9.191579656700       7.499996989500
       163    2       41.392650000000       3.676629656700       7.499996989500
       164    2       44.576700000000       9.191579656700       7.499996989500
       165    2       38.208600000000       3.676629656700      10.627103010500
       166    2       41.392650000000       9.191579656700      10.627103010500
       167    1       41.392650000000       0.000000000000       9.063550000000
       168    1       38.208600000000       5.514950000000       9.063550000000
       169    1       44.576700000000       0.000000000000       9.063550000000
       170    2       49.352775000000       0.919154656700       7.499996989500
       171    2       46.168725000000       6.434104656700       7.499996989500
       172    2       46.168725000000       0.919154656700       7.499996989500
       173    1       47.760750000000       5.514950000000       9.063550000000
       174    2       49.352775000000       6.434104656700       7.499996989500
       175    2       49.352775000000       0.919154656700      10.627103010500
       176    2       46.168725000000       6.434104656700      10.627103010500
       177    1       49.352775000000       2.757475000000       9.063550000000
       178    1       46.168725000000       8.272425000000       9.063550000000
       179    2       46.168725000000       0.919154656700      10.627103010500
       180    2       49.352775000000       6.434104656700      10.627103010500
       181    1       46.168725000000       2.757475000000       9.063550000000
       182    1       49.352775000000       8.272425000000       9.063550000000
       183    2       47.760750000000       3.676629656700      10.627103010500
       184    2       44.576700000000       3.676629656700       7.499996989500
       185    2       44.576700000000       9.191579656700      10.627103010500
       186    2       47.760750000000       9.191579656700       7.499996989500
       187    2       47.760750000000       3.676629656700       7.499996989500
       188    2       50.944800000000       9.191579656700       7.499996989500
       189    2       44.576700000000       3.676629656700      10.627103010500
       190    2       47.760750000000       9.191579656700      10.627103010500
       191    1       47.760750000000       0.000000000000       9.063550000000
       192    1       44.576700000000       5.514950000000       9.063550000000
       193    1       50.944800000000       0.000000000000       9.063550000000
       194    2       55.720875000000       0.919154656700       7.499996989500
       195    2       52.536825000000       6.434104656700       7.499996989500
       196    2       52.536825000000       0.919154656700       7.499996989500
       197    1       54.128850000000       5.514950000000       9.063550000000
       198    2       55.720875000000       6.434104656700       7.499996989500
       199    2       55.720875000000       0.919154656700      10.627103010500
       200    2       52.536825000000       6.434104656700      10.627103010500
       201    1       55.720875000000       2.757475000000       9.063550000000
       202    1       52.536825000000       8.272425000000       9.063550000000
       203    2       52.536825000000       0.919154656700      10.627103010500
       204    2       55.720875000000       6.434104656700      10.627103010500
       205    1       52.536825000000       2.757475000000       9.063550000000
       206    1       55.720875000000       8.272425000000       9.063550000000
       207    2       54.128850000000       3.676629656700      10.627103010500
       208    2       50.944800000000       3.676629656700       7.499996989500
       209    2       50.944800000000       9.191579656700      10.627103010500
       210    2       54.128850000000       9.191579656700       7.499996989500
       211    2       54.128850000000       3.676629656700       7.499996989500
       212    2       57.312900000000       9.191579656700       7.499996989500
       213    2       50.944800000000       3.676629656700      10.627103010500
       214    2       54.128850000000       9.191579656700      10.627103010500
       215    1       54.128850000000       0.000000000000       9.063550000000
       216    1       50.944800000000       5.514950000000       9.063550000000
       217    1       57.312900000000       0.000000000000       9.063550000000
       218    2       62.088975000000       0.919154656700       7.499996989500
       219    2       58.904925000000       6.434104656700       7.499996989500
       220    2       58.904925000000       0.919154656700       7.499996989500
       221    1       60.496950000000       5.514950000000       9.063550000000
       222    2       62.088975000000       6.434104656700       7.499996989500
       223    2       62.088975000000       0.919154656700      10.627103010500
       224    2       58.904925000000       6.434104656700      10.627103010500
       225    1       62.088975000000       2.757475000000       9.063550000000
       226    1       58.904925000000       8.272425000000       9.063550000000
       227    2       58.904925000000       0.919154656700      10.627103010500
       228    2       62.088975000000       6.434104656700      10.627103010500
       229    1       58.904925000000       2.757475000000       9.063550000000
       230    1       62.088975000000       8.272425000000       9.063550000000
       231    2       60.496950000000       3.676629656700      10.627103010500
       232    2       57.312900000000       3.676629656700       7.499996989500
       233    2       57.312900000000       9.191579656700      10.627103010500
       234    2       60.496950000000       9.191579656700       7.499996989500
       235    2       60.496950000000       3.676629656700       7.499996989500
       236    2       63.681000000000       9.191579656700       7.499996989500
       237    2       57.312900000000       3.676629656700      10.627103010500
       238    2       60.496950000000       9.191579656700      10.627103010500
       239    1       60.496950000000       0.000000000000       9.063550000000
       240    1       57.312900000000       5.514950000000       9.063550000000
       241    1       63.681000000000       0.000000000000       9.063550000000
       242    2       68.457075000000       0.919154656700       7.499996989500
       243    2       65.273025000000       6.434104656700       7.499996989500
       244    2       65.273025000000       0.919154656700       7.499996989500
       245    1       66.865050000000       5.514950000000       9.063550000000
       246    2       68.457075000000       6.434104656700       7.499996989500
       247    2       68.457075000000       0.919154656700      10.627103010500
       248    2       65.273025000000       6.434104656700      10.627103010500
       249    1       68.457075000000       2.757475000000       9.063550000000
       250    1       65.273025000000       8.272425000000       9.063550000000
       251    2       65.273025000000       0.919154656700      10.627103010500
       252    2       68.457075000000       6.434104656700      10.627103010500
       253    1       65.273025000000       2.757475000000       9.063550000000
       254    1       68.457075000000       8.272425000000       9.063550000000
       255    2       66.865050000000       3.676629656700      10.627103010500
       256    2       63.681000000000       3.676629656700       7.499996989500
       257    2       63.681000000000       9.191579656700      10.627103010500
       258    2       66.865050000000       9.191579656700       7.499996989500
       259    2       66.865050000000       3.676629656700       7.499996989500
       260    2       70.049100000000       9.191579656700       7.499996989500
       261    2       63.681000000000       3.676629656700      10.627103010500
       262    2       66.865050000000       9.191579656700      10.627103010500
       263    1       66.865050000000       0.000000000000       9.063550000000
       264    1       63.681000000000       5.514950000000       9.063550000000
       265    1       70.049100000000       0.000000000000       9.063550000000
       266    2       74.825175000000       0.919154656700       7.499996989500
       267    2       71.641125000000       6.434104656700       7.499996989500
       268    2       71.641125000000       0.919154656700       7.499996989500
       269    1       73.233150000000       5.514950000000       9.063550000000
       270    2       74.825175000000       6.434104656700       7.499996989500
       271    2       74.825175000000       0.919154656700      10.627103010500
       272    2       71.641125000000       6.434104656700      10.627103010500
       273    1       74.825175000000       2.757475000000       9.063550000000
       274    1       71.641125000000       8.272425000000       9.063550000000
       275    2       71.641125000000       0.919154656700      10.627103010500
       276    2       74.825175000000       6.434104656700      10.627103010500
       277    1       71.641125000000       2.757475000000       9.063550000000
       278    1       74.825175000000       8.272425000000       9.063550000000
       279    2       73.233150000000       3.676629656700      10.627103010500
       280    2       70.049100000000       3.676629656700       7.499996989500
       281    2       70.049100000000       9.191579656700      10.627103010500
       282    2       73.233150000000       9.191579656700       7.499996989500
       283    2       73.233150000000       3.676629656700       7.499996989500
       284    2       76.417200000000       9.191579656700       7.499996989500
       285    2       70.049100000000       3.676629656700      10.627103010500
       286    2       73.233150000000       9.191579656700      10.627103010500
       287    1       73.233150000000       0.000000000000       9.063550000000
       288    1       70.049100000000       5.514950000000       9.063550000000
       289    1       76.417200000000       0.000000000000       9.063550000000
       290    2       81.193275000000       0.919154656700       7.499996989500
       291    2       78.009225000000       6.434104656700       7.499996989500
       292    2       78.009225000000       0.919154656700       7.499996989500
       293    1       79.601250000000       5.514950000000       9.063550000000
       294    2       81.193275000000       6.434104656700       7.499996989500
       295    2       81.193275000000       0.919154656700      10.627103010500
       296    2       78.009225000000       6.434104656700      10.627103010500
       297    1       81.193275000000       2.757475000000       9.063550000000
       298    1       78.009225000000       8.272425000000       9.063550000000
       299    2       78.009225000000       0.919154656700      10.627103010500
       300    2       81.193275000000       6.434104656700      10.627103010500
       301    1       78.009225000000       2.757475000000       9.063550000000
       302    1       81.193275000000       8.272425000000       9.063550000000
       303    2       79.601250000000       3.676629656700      10.627103010500
       304    2       76.417200000000       3.676629656700       7.499996989500
       305    2       76.417200000000       9.191579656700      10.627103010500
       306    2       79.601250000000       9.191579656700       7.499996989500
       307    2       79.601250000000       3.676629656700       7.499996989500
       308    2       82.785300000000       9.191579656700       7.499996989500
       309    2       76.417200000000       3.676629656700      10.627103010500
       310    2       79.601250000000       9.191579656700      10.627103010500
       311    1       79.601250000000       0.000000000000       9.063550000000
       312    1       76.417200000000       5.514950000000       9.063550000000
       313    1       82.785300000000       0.000000000000       9.063550000000
       314    2       87.561375000000       0.919154656700       7.499996989500
       315    2       84.377325000000       6.434104656700       7.499996989500
       316    2       84.377325000000       0.919154656700       7.499996989500
       317    1       85.969350000000       5.514950000000       9.063550000000
       318    2       87.561375000000       6.434104656700       7.499996989500
       319    2       87.561375000000       0.919154656700      10.627103010500
       320    2       84.377325000000       6.434104656700      10.627103010500
       321    1       87.561375000000       2.757475000000       9.063550000000
       322    1       84.377325000000       8.272425000000       9.063550000000
       323    2       84.377325000000       0.919154656700      10.627103010500
       324    2       87.561375000000       6.434104656700      10.627103010500
       325    1       84.377325000000       2.757475000000       9.063550000000
       326    1       87.561375000000       8.272425000000       9.063550000000
       327    2       85.969350000000       3.676629656700      10.627103010500
       328    2       82.785300000000       3.676629656700       7.499996989500
       329    2       82.785300000000       9.191579656700      10.627103010500
       330    2       85.969350000000       9.191579656700       7.499996989500
       331    2       85.969350000000       3.676629656700       7.499996989500
       332    2       89.153400000000       9.191579656700       7.499996989500
       333    2       82.785300000000       3.676629656700      10.627103010500
       334    2       85.969350000000       9.191579656700      10.627103010500
       335    1       85.969350000000       0.000000000000       9.063550000000
       336    1       82.785300000000       5.514950000000       9.063550000000
       337    1       89.153400000000       0.000000000000       9.063550000000
       338    2       93.929475000000       0.919154656700       7.499996989500
       339    2       90.745425000000       6.434104656700       7.499996989500
       340    2       90.745425000000       0.919154656700       7.499996989500
       341    1       92.337450000000       5.514950000000       9.063550000000
       342    2       93.929475000000       6.434104656700       7.499996989500
       343    2       93.929475000000       0.919154656700      10.627103010500
       344    2       90.745425000000       6.434104656700      10.627103010500
       345    1       93.929475000000       2.757475000000       9.063550000000
       346    1       90.745425000000       8.272425000000       9.063550000000
       347    2       90.745425000000       0.919154656700      10.627103010500
       348    2       93.929475000000       6.434104656700      10.627103010500
       349    1       90.745425000000       2.757475000000       9.063550000000
       350    1       93.929475000000       8.272425000000       9.063550000000
       351    2       92.337450000000       3.676629656700      10.627103010500
       352    2       89.153400000000       3.676629656700       7.499996989500
       353    2       89.153400000000       9.191579656700      10.627103010500
       354    2       92.337450000000       9.191579656700       7.499996989500
       355    2       92.337450000000       3.676629656700       7.499996989500
       356    2       95.521500000000       9.191579656700       7.499996989500
       357    2       89.153400000000       3.676629656700      10.627103010500
       358    2       92.337450000000       9.191579656700      10.627103010500
       359    1       92.337450000000       0.000000000000       9.063550000000
       360    1       89.153400000000       5.514950000000       9.063550000000
       361    1       95.521500000000       0.000000000000       9.063550000000
       362    2      100.297575000000       0.919154656700       7.499996989500
       363    2       97.113525000000       6.434104656700       7.499996989500
       364    2       97.113525000000       0.919154656700       7.499996989500
       365    1       98.705550000000       5.514950000000       9.063550000000
       366    2      100.297575000000       6.434104656700       7.499996989500
       367    2      100.297575000000       0.919154656700      10.627103010500
       368    2       97.113525000000       6.434104656700      10.627103010500
       369    1      100.297575000000       2.757475000000       9.063550000000
       370    1       97.113525000000       8.272425000000       9.063550000000