 # S16 Nb8
  
        3240  atoms
           2  atom types
 
      0.000000000000     100.333500000000  xlo xhi
      0.000000000000     104.269500000000  ylo yhi
      0.000000000000      18.124400000000  zlo zhi
 
Masses
 
            1   32.06000000             # S
            2   92.90638000             # Nb
 
Atoms # charge
 
         1    1   0.000000        0.000000000000       3.861829471500       7.501707284400
         2    1   0.000000        0.000000000000       3.861829471500      10.622692715600
         3    1   0.000000        3.344450000000       9.654579471500       7.501707284400
         4    2   0.000000        0.000000000000       0.000000000000       9.062200000000
         5    1   0.000000        1.672225000000       0.965454471500       7.501707284400
         6    1   0.000000        3.344450000000       9.654579471500      10.622692715600
         7    1   0.000000        5.016675000000       6.758204471500       7.501707284400
         8    2   0.000000        3.344450000000       5.792750000000       9.062200000000
         9    1   0.000000        1.672225000000       0.965454471500      10.622692715600
        10    2   0.000000        5.016675000000       2.896375000000       9.062200000000
        11    2   0.000000        1.672225000000       8.689125000000       9.062200000000
        12    1   0.000000        5.016675000000       6.758204471500      10.622692715600
        13    1   0.000000        5.016675000000       0.965454471500       7.501707284400
        14    1   0.000000        1.672225000000       6.758204471500       7.501707284400
        15    2   0.000000        1.672225000000       2.896375000000       9.062200000000
        16    1   0.000000        5.016675000000       0.965454471500      10.622692715600
        17    1   0.000000        1.672225000000       6.758204471500      10.622692715600
        18    2   0.000000        5.016675000000       8.689125000000       9.062200000000
        19    2   0.000000        3.344450000000       0.000000000000       9.062200000000
        20    2   0.000000        0.000000000000       5.792750000000       9.062200000000
        21    1   0.000000        3.344450000000       3.861829471500      10.622692715600
        22    1   0.000000        0.000000000000       9.654579471500      10.622692715600
        23    1   0.000000        3.344450000000       3.861829471500       7.501707284400
        24    1   0.000000        0.000000000000       9.654579471500       7.501707284400
        25    1   0.000000        6.688900000000       3.861829471500       7.501707284400
        26    1   0.000000        6.688900000000       3.861829471500      10.622692715600
        27    1   0.000000       10.033350000000       9.654579471500       7.501707284400
        28    2   0.000000        6.688900000000       0.000000000000       9.062200000000
        29    1   0.000000        8.361125000000       0.965454471500       7.501707284400
        30    1   0.000000       10.033350000000       9.654579471500      10.622692715600
        31    1   0.000000       11.705575000000       6.758204471500       7.501707284400
        32    2   0.000000       10.033350000000       5.792750000000       9.062200000000
        33    1   0.000000        8.361125000000       0.965454471500      10.622692715600
        34    2   0.000000       11.705575000000       2.896375000000       9.062200000000
        35    2   0.000000        8.361125000000       8.689125000000       9.062200000000
        36    1   0.000000       11.705575000000       6.758204471500      10.622692715600
        37    1   0.000000       11.705575000000       0.965454471500       7.501707284400
        38    1   0.000000        8.361125000000       6.758204471500       7.501707284400
        39    2   0.000000        8.361125000000       2.896375000000       9.062200000000
        40    1   0.000000       11.705575000000       0.965454471500      10.622692715600
        41    1   0.000000        8.361125000000       6.758204471500      10.622692715600
        42    2   0.000000       11.705575000000       8.689125000000       9.062200000000
        43    2   0.000000       10.033350000000       0.000000000000       9.062200000000
        44    2   0.000000        6.688900000000       5.792750000000       9.062200000000
        45    1   0.000000       10.033350000000       3.861829471500      10.622692715600
        46    1   0.000000        6.688900000000       9.654579471500      10.622692715600
        47    1   0.000000       10.033350000000       3.861829471500       7.501707284400
        48    1   0.000000        6.688900000000       9.654579471500       7.501707284400
        49    1   0.000000       13.377800000000       3.861829471500       7.501707284400
        50    1   0.000000       13.377800000000       3.861829471500      10.622692715600
        51    1   0.000000       16.722250000000       9.654579471500       7.501707284400
        52    2   0.000000       13.377800000000       0.000000000000       9.062200000000
        53    1   0.000000       15.050025000000       0.965454471500       7.501707284400
        54    1   0.000000       16.722250000000       9.654579471500      10.622692715600
        55    1   0.000000       18.394475000000       6.758204471500       7.501707284400
        56    2   0.000000       16.722250000000       5.792750000000       9.062200000000
        57    1   0.000000       15.050025000000       0.965454471500      10.622692715600
        58    2   0.000000       18.394475000000       2.896375000000       9.062200000000
        59    2   0.000000       15.050025000000       8.689125000000       9.062200000000
        60    1   0.000000       18.394475000000       6.758204471500      10.622692715600
        61    1   0.000000       18.394475000000       0.965454471500       7.501707284400
        62    1   0.000000       15.050025000000       6.758204471500       7.501707284400
        63    2   0.000000       15.050025000000       2.896375000000       9.062200000000
        64    1   0.000000       18.394475000000       0.965454471500      10.622692715600
        65    1   0.000000       15.050025000000       6.758204471500      10.622692715600
        66    2   0.000000       18.394475000000       8.689125000000       9.062200000000
        67    2   0.000000       16.722250000000       0.000000000000       9.062200000000
        68    2   0.000000       13.377800000000       5.792750000000       9.062200000000
        69    1   0.000000       16.722250000000       3.861829471500      10.622692715600
        70    1   0.000000       13.377800000000       9.654579471500      10.622692715600
        71    1   0.000000       16.722250000000       3.861829471500       7.501707284400
        72    1   0.000000       13.377800000000       9.654579471500       7.501707284400
        73    1   0.000000       20.066700000000       3.861829471500       7.501707284400
        74    1   0.000000       20.066700000000       3.861829471500      10.622692715600
        75    1   0.000000       23.411150000000       9.654579471500       7.501707284400
        76    2   0.000000       20.066700000000       0.000000000000       9.062200000000
        77    1   0.000000       21.738925000000       0.965454471500       7.501707284400
        78    1   0.000000       23.411150000000       9.654579471500      10.622692715600
        79    1   0.000000       25.083375000000       6.758204471500       7.501707284400
        80    2   0.000000       23.411150000000       5.792750000000       9.062200000000
        81    1   0.000000       21.738925000000       0.965454471500      10.622692715600
        82    2   0.000000       25.083375000000       2.896375000000       9.062200000000
        83    2   0.000000       21.738925000000       8.689125000000       9.062200000000
        84    1   0.000000       25.083375000000       6.758204471500      10.622692715600
        85    1   0.000000       25.083375000000       0.965454471500       7.501707284400
        86    1   0.000000       21.738925000000       6.758204471500       7.501707284400
        87    2   0.000000       21.738925000000       2.896375000000       9.062200000000
        88    1   0.000000       25.083375000000       0.965454471500      10.622692715600
        89    1   0.000000       21.738925000000       6.758204471500      10.622692715600
        90    2   0.000000       25.083375000000       8.689125000000       9.062200000000
        91    2   0.000000       23.411150000000       0.000000000000       9.062200000000
        92    2   0.000000       20.066700000000       5.792750000000       9.062200000000
        93    1   0.000000       23.411150000000       3.861829471500      10.622692715600
        94    1   0.000000       20.066700000000       9.654579471500      10.622692715600
        95    1   0.000000       23.411150000000       3.861829471500       7.501707284400
        96    1   0.000000       20.066700000000       9.654579471500       7.501707284400
        97    1   0.000000       26.755600000000       3.861829471500       7.501707284400
        98    1   0.000000       26.755600000000       3.861829471500      10.622692715600
        99    1   0.000000       30.100050000000       9.654579471500       7.501707284400
       100    2   0.000000       26.755600000000       0.000000000000       9.062200000000
       101    1   0.000000       28.427825000000       0.965454471500       7.501707284400
       102    1   0.000000       30.100050000000       9.654579471500      10.622692715600
       103    1   0.000000       31.772275000000       6.758204471500       7.501707284400
       104    2   0.000000       30.100050000000       5.792750000000       9.062200000000
       105    1   0.000000       28.427825000000       0.965454471500      10.622692715600
       106    2   0.000000       31.772275000000       2.896375000000       9.062200000000
       107    2   0.000000       28.427825000000       8.689125000000       9.062200000000
       108    1   0.000000       31.772275000000       6.758204471500      10.622692715600
       109    1   0.000000       31.772275000000       0.965454471500       7.501707284400
       110    1   0.000000       28.427825000000       6.758204471500       7.501707284400
       111    2   0.000000       28.427825000000       2.896375000000       9.062200000000
       112    1   0.000000       31.772275000000       0.965454471500      10.622692715600
       113    1   0.000000       28.427825000000       6.758204471500      10.622692715600
       114    2   0.000000       31.772275000000       8.689125000000       9.062200000000
       115    2   0.000000       30.100050000000       0.000000000000       9.062200000000
       116    2   0.000000       26.755600000000       5.792750000000       9.062200000000
       117    1   0.000000       30.100050000000       3.861829471500      10.622692715600
       118    1   0.000000       26.755600000000       9.654579471500      10.622692715600
       119    1   0.000000       30.100050000000       3.861829471500       7.501707284400
       120    1   0.000000       26.755600000000       9.654579471500       7.501707284400
       121    1   0.000000       33.444500000000       3.861829471500       7.501707284400
       122    1   0.000000       33.444500000000       3.861829471500      10.622692715600
       123    1   0.000000       36.788950000000       9.654579471500       7.501707284400
       124    2   0.000000       33.444500000000       0.000000000000       9.062200000000
       125    1   0.000000       35.116725000000       0.965454471500       7.501707284400
       126    1   0.000000       36.788950000000       9.654579471500      10.622692715600
       127    1   0.000000       38.461175000000       6.758204471500       7.501707284400
       128    2   0.000000       36.788950000000       5.792750000000       9.062200000000
       129    1   0.000000       35.116725000000       0.965454471500      10.622692715600
       130    2   0.000000       38.461175000000       2.896375000000       9.062200000000
       131    2   0.000000       35.116725000000       8.689125000000       9.062200000000
       132    1   0.000000       38.461175000000       6.758204471500      10.622692715600
       133    1   0.000000       38.461175000000       0.965454471500       7.501707284400
       134    1   0.000000       35.116725000000       6.758204471500       7.501707284400
       135    2   0.000000       35.116725000000       2.896375000000       9.062200000000
       136    1   0.000000       38.461175000000       0.965454471500      10.622692715600
       137    1   0.000000       35.116725000000       6.758204471500      10.622692715600
       138    2   0.000000       38.461175000000       8.689125000000       9.062200000000
       139    2   0.000000       36.788950000000       0.000000000000       9.062200000000
       140    2   0.000000       33.444500000000       5.792750000000       9.062200000000
       141    1   0.000000       36.788950000000       3.861829471500      10.622692715600
       142    1   0.000000       33.444500000000       9.654579471500      10.622692715600
       143    1   0.000000       36.788950000000       3.861829471500       7.501707284400
       144    1   0.000000       33.444500000000       9.654579471500       7.501707284400
       145    1   0.000000       40.133400000000       3.861829471500       7.501707284400
       146    1   0.000000       40.133400000000       3.861829471500      10.622692715600
       147    1   0.000000       43.477850000000       9.654579471500       7.501707284400
       148    2   0.000000       40.133400000000       0.000000000000       9.062200000000
       149    1   0.000000       41.805625000000       0.965454471500       7.501707284400
       150    1   0.000000       43.477850000000       9.654579471500      10.622692715600
       151    1   0.000000       45.150075000000       6.758204471500       7.501707284400
       152    2   0.000000       43.477850000000       5.792750000000       9.062200000000
       153    1   0.000000       41.805625000000       0.965454471500      10.622692715600
       154    2   0.000000       45.150075000000       2.896375000000       9.062200000000
       155    2   0.000000       41.805625000000       8.689125000000       9.062200000000
       156    1   0.000000       45.150075000000       6.758204471500      10.622692715600
       157    1   0.000000       45.150075000000       0.965454471500       7.501707284400
       158    1   0.000000       41.805625000000       6.758204471500       7.501707284400
       159    2   0.000000       41.805625000000       2.896375000000       9.062200000000
       160    1   0.000000       45.150075000000       0.965454471500      10.622692715600
       161    1   0.000000       41.805625000000       6.758204471500      10.622692715600
       162    2   0.000000       45.150075000000       8.689125000000       9.062200000000
       163    2   0.000000       43.477850000000       0.000000000000       9.062200000000
       164    2   0.000000       40.133400000000       5.792750000000       9.062200000000
       165    1   0.000000       43.477850000000       3.861829471500      10.622692715600
       166    1   0.000000       40.133400000000       9.654579471500      10.622692715600
       167    1   0.000000       43.477850000000       3.861829471500       7.501707284400
       168    1   0.000000       40.133400000000       9.654579471500       7.501707284400
       169    1   0.000000       46.822300000000       3.861829471500       7.501707284400
       170    1   0.000000       46.822300000000       3.861829471500      10.622692715600
       171    1   0.000000       50.166750000000       9.654579471500       7.501707284400
       172    2   0.000000       46.822300000000       0.000000000000       9.062200000000
       173    1   0.000000       48.494525000000       0.965454471500       7.501707284400
       174    1   0.000000       50.166750000000       9.654579471500      10.622692715600
       175    1   0.000000       51.838975000000       6.758204471500       7.501707284400
       176    2   0.000000       50.166750000000       5.792750000000       9.062200000000
       177    1   0.000000       48.494525000000       0.965454471500      10.622692715600
       178    2   0.000000       51.838975000000       2.896375000000       9.062200000000
       179    2   0.000000       48.494525000000       8.689125000000       9.062200000000
       180    1   0.000000       51.838975000000       6.758204471500      10.622692715600
       181    1   0.000000       51.838975000000       0.965454471500       7.501707284400
       182    1   0.000000       48.494525000000       6.758204471500       7.501707284400
       183    2   0.000000       48.494525000000       2.896375000000       9.062200000000
       184    1   0.000000       51.838975000000       0.965454471500      10.622692715600
       185    1   0.000000       48.494525000000       6.758204471500      10.622692715600
       186    2   0.000000       51.838975000000       8.689125000000       9.062200000000
       187    2   0.000000       50.166750000000       0.000000000000       9.062200000000
       188    2   0.000000       46.822300000000       5.792750000000       9.062200000000
       189    1   0.000000       50.166750000000       3.861829471500      10.622692715600
       190    1   0.000000       46.822300000000       9.654579471500      10.622692715600
       191    1   0.000000       50.166750000000       3.861829471500       7.501707284400
       192    1   0.000000       46.822300000000       9.654579471500       7.501707284400
       193    1   0.000000       53.511200000000       3.861829471500       7.501707284400
       194    1   0.000000       53.511200000000       3.861829471500      10.622692715600
       195    1   0.000000       56.855650000000       9.654579471500       7.501707284400
       196    2   0.000000       53.511200000000       0.000000000000       9.062200000000
       197    1   0.000000       55.183425000000       0.965454471500       7.501707284400
       198    1   0.000000       56.855650000000       9.654579471500      10.622692715600
       199    1   0.000000       58.527875000000       6.758204471500       7.501707284400
       200    2   0.000000       56.855650000000       5.792750000000       9.062200000000
       201    1   0.000000       55.183425000000       0.965454471500      10.622692715600
       202    2   0.000000       58.527875000000       2.896375000000       9.062200000000
       203    2   0.000000       55.183425000000       8.689125000000       9.062200000000
       204    1   0.000000       58.527875000000       6.758204471500      10.622692715600
       205    1   0.000000       58.527875000000       0.965454471500       7.501707284400
       206    1   0.000000       55.183425000000       6.758204471500       7.501707284400
       207    2   0.000000       55.183425000000       2.896375000000       9.062200000000
       208    1   0.000000       58.527875000000       0.965454471500      10.622692715600
       209    1   0.000000       55.183425000000       6.758204471500      10.622692715600
       210    2   0.000000       58.527875000000       8.689125000000       9.062200000000
       211    2   0.000000       56.855650000000       0.000000000000       9.062200000000
       212    2   0.000000       53.511200000000       5.792750000000       9.062200000000
       213    1   0.000000       56.855650000000       3.861829471500      10.622692715600
       214    1   0.000000       53.511200000000       9.654579471500      10.622692715600
       215    1   0.000000       56.855650000000       3.861829471500       7.501707284400
       216    1   0.000000       53.511200000000       9.654579471500       7.501707284400
       217    1   0.000000       60.200100000000       3.861829471500       7.501707284400
       218    1   0.000000       60.200100000000       3.861829471500      10.622692715600
       219    1   0.000000       63.544550000000       9.654579471500       7.501707284400
       220    2   0.000000       60.200100000000       0.000000000000       9.062200000000
       221    1   0.000000       61.872325000000       0.965454471500       7.501707284400
       222    1   0.000000       63.544550000000       9.654579471500      10.622692715600
       223    1   0.000000       65.216775000000       6.758204471500       7.501707284400
       224    2   0.000000       63.544550000000       5.792750000000       9.062200000000
       225    1   0.000000       61.872325000000       0.965454471500      10.622692715600
       226    2   0.000000       65.216775000000       2.896375000000       9.062200000000
       227    2   0.000000       61.872325000000       8.689125000000       9.062200000000
       228    1   0.000000       65.216775000000       6.758204471500      10.622692715600
       229    1   0.000000       65.216775000000       0.965454471500       7.501707284400
       230    1   0.000000       61.872325000000       6.758204471500       7.501707284400
       231    2   0.000000       61.872325000000       2.896375000000       9.062200000000
       232    1   0.000000       65.216775000000       0.965454471500      10.622692715600
       233    1   0.000000       61.872325000000       6.758204471500      10.622692715600
       234    2   0.000000       65.216775000000       8.689125000000       9.062200000000
       235    2   0.000000       63.544550000000       0.000000000000       9.062200000000
       236    2   0.000000       60.200100000000       5.792750000000       9.062200000000
       237    1   0.000000       63.544550000000       3.861829471500      10.622692715600
       238    1   0.000000       60.200100000000       9.654579471500      10.622692715600
       239    1   0.000000       63.544550000000       3.861829471500       7.501707284400
       240    1   0.000000       60.200100000000       9.654579471500       7.501707284400
       241    1   0.000000       66.889000000000       3.861829471500       7.501707284400
       242    1   0.000000       66.889000000000       3.861829471500      10.622692715600
       243    1   0.000000       70.233450000000       9.654579471500       7.501707284400
       244    2   0.000000       66.889000000000       0.000000000000       9.062200000000
       245    1   0.000000       68.561225000000       0.965454471500       7.501707284400
       246    1   0.000000       70.233450000000       9.654579471500      10.622692715600
       247    1   0.000000       71.905675000000       6.758204471500       7.501707284400
       248    2   0.000000       70.233450000000       5.792750000000       9.062200000000
       249    1   0.000000       68.561225000000       0.965454471500      10.622692715600
       250    2   0.000000       71.905675000000       2.896375000000       9.062200000000
       251    2   0.000000       68.561225000000       8.689125000000       9.062200000000
       252    1   0.000000       71.905675000000       6.758204471500      10.622692715600
       253    1   0.000000       71.905675000000       0.965454471500       7.501707284400
       254    1   0.000000       68.561225000000       6.758204471500       7.501707284400
       255    2   0.000000       68.561225000000       2.896375000000       9.062200000000
       256    1   0.000000       71.905675000000       0.965454471500      10.622692715600
       257    1   0.000000       68.561225000000       6.758204471500      10.622692715600
       258    2   0.000000       71.905675000000       8.689125000000       9.062200000000
       259    2   0.000000       70.233450000000       0.000000000000       9.062200000000
       260    2   0.000000       66.889000000000       5.792750000000       9.062200000000
       261    1   0.000000       70.233450000000       3.861829471500      10.622692715600
       262    1   0.000000       66.889000000000       9.654579471500      10.622692715600
       263    1   0.000000       70.233450000000       3.861829471500       7.501707284400
       264    1   0.000000       66.889000000000       9.654579471500       7.501707284400
       265    1   0.000000       73.577900000000       3.861829471500       7.501707284400
       266    1   0.000000       73.577900000000       3.861829471500      10.622692715600
       267    1   0.000000       76.922350000000       9.654579471500       7.501707284400
       268    2   0.000000       73.577900000000       0.000000000000       9.062200000000
       269    1   0.000000       75.250125000000       0.965454471500       7.501707284400
       270    1   0.000000       76.922350000000       9.654579471500      10.622692715600
       271    1   0.000000       78.594575000000       6.758204471500       7.501707284400
       272    2   0.000000       76.922350000000       5.792750000000       9.062200000000
       273    1   0.000000       75.250125000000       0.965454471500      10.622692715600
       274    2   0.000000       78.594575000000       2.896375000000       9.062200000000
       275    2   0.000000       75.250125000000       8.689125000000       9.062200000000
       276    1   0.000000       78.594575000000       6.758204471500      10.622692715600
       277    1   0.000000       78.594575000000       0.965454471500       7.501707284400
       278    1   0.000000       75.250125000000       6.758204471500       7.501707284400
       279    2   0.000000       75.250125000000       2.896375000000       9.062200000000
       280    1   0.000000       78.594575000000       0.965454471500      10.622692715600
       281    1   0.000000       75.250125000000       6.758204471500      10.622692715600
       282    2   0.000000       78.594575000000       8.689125000000       9.062200000000
       283    2   0.000000       76.922350000000       0.000000000000       9.062200000000
       284    2   0.000000       73.577900000000       5.792750000000       9.062200000000
       285    1   0.000000       76.922350000000       3.861829471500      10.622692715600
       286    1   0.000000       73.577900000000       9.654579471500      10.622692715600
       287    1   0.000000       76.922350000000       3.861829471500       7.501707284400
       288    1   0.000000       73.577900000000       9.654579471500       7.501707284400
       289    1   0.000000       80.266800000000       3.861829471500       7.501707284400
       290    1   0.000000       80.266800000000       3.861829471500      10.622692715600
       291    1   0.000000       83.611250000000       9.654579471500       7.501707284400
       292    2   0.000000       80.266800000000       0.000000000000       9.062200000000
       293    1   0.000000       81.939025000000       0.965454471500       7.501707284400
       294    1   0.000000       83.611250000000       9.654579471500      10.622692715600
       295    1   0.000000       85.283475000000       6.758204471500       7.501707284400
       296    2   0.000000       83.611250000000       5.792750000000       9.062200000000
       297    1   0.000000       81.939025000000       0.965454471500      10.622692715600
       298    2   0.000000       85.283475000000       2.896375000000       9.062200000000
       299    2   0.000000       81.939025000000       8.689125000000       9.062200000000
       300    1   0.000000       85.283475000000       6.758204471500      10.622692715600
       301    1   0.000000       85.283475000000       0.965454471500       7.501707284400
       302    1   0.000000       81.939025000000       6.758204471500       7.501707284400
       303    2   0.000000       81.939025000000       2.896375000000       9.062200000000
       304    1   0.000000       85.283475000000       0.965454471500      10.622692715600
       305    1   0.000000       81.939025000000       6.758204471500      10.622692715600
       306    2   0.000000       85.283475000000       8.689125000000       9.062200000000
       307    2   0.000000       83.611250000000       0.000000000000       9.062200000000
       308    2   0.000000       80.266800000000       5.792750000000       9.062200000000
       309    1   0.000000       83.611250000000       3.861829471500      10.622692715600
       310    1   0.000000       80.266800000000       9.654579471500      10.622692715600
       311    1   0.000000       83.611250000000       3.861829471500       7.501707284400
       312    1   0.000000       80.266800000000       9.654579471500       7.501707284400
       313    1   0.000000       86.955700000000       3.861829471500       7.501707284400
       314    1   0.000000       86.955700000000       3.861829471500      10.622692715600
       315    1   0.000000       90.300150000000       9.654579471500       7.501707284400
       316    2   0.000000       86.955700000000       0.000000000000       9.062200000000
       317    1   0.000000       88.627925000000       0.965454471500       7.501707284400
       318    1   0.000000       90.300150000000       9.654579471500      10.622692715600
       319    1   0.000000       91.972375000000       6.758204471500       7.501707284400
       320    2   0.000000       90.300150000000       5.792750000000       9.062200000000
       321    1   0.000000       88.627925000000       0.965454471500      10.622692715600
       322    2   0.000000       91.972375000000       2.896375000000       9.062200000000
       323    2   0.000000       88.627925000000       8.689125000000       9.062200000000
       324    1   0.000000       91.972375000000       6.758204471500      10.622692715600
       325    1   0.000000       91.972375000000       0.965454471500       7.501707284400
       326    1   0.000000       88.627925000000       6.758204471500       7.501707284400