 # Te16 Ni8
  
        2496  atoms
           2  atom types
 
      0.000000000000      96.580900000000  xlo xhi
      0.000000000000     102.943200000000  ylo yhi
      0.000000000000      17.971100000000  zlo zhi
 
Masses
 
            1   127.60000000            # Te
            2   58.69340000             # Ni
 
Atoms # charge
 
         1    1   0.000000        7.429300000000       4.289295710700       7.524571454400
         2    1   0.000000        5.571975000000       1.072320710700      10.446528545600
         3    1   0.000000        3.714650000000       4.289295710700       7.524571454400
         4    1   0.000000        3.714650000000      10.723245710700       7.524571454400
         5    1   0.000000        1.857325000000       7.506270710700      10.446528545600
         6    2   0.000000        3.714650000000       0.000000000000       8.985550000000
         7    1   0.000000        0.000000000000      10.723245710700       7.524571454400
         8    2   0.000000        7.429300000000       6.433950000000       8.985550000000
         9    2   0.000000        7.429300000000       0.000000000000       8.985550000000
        10    2   0.000000        3.714650000000       6.433950000000       8.985550000000
        11    1   0.000000        0.000000000000       4.289295710700      10.446528545600
        12    1   0.000000        3.714650000000      10.723245710700      10.446528545600
        13    1   0.000000        5.571975000000       1.072320710700       7.524571454400
        14    1   0.000000        1.857325000000       7.506270710700       7.524571454400
        15    1   0.000000        1.857325000000       1.072320710700       7.524571454400
        16    1   0.000000        5.571975000000       7.506270710700       7.524571454400
        17    2   0.000000        5.571975000000       3.216975000000       8.985550000000
        18    2   0.000000        1.857325000000       3.216975000000       8.985550000000
        19    2   0.000000        1.857325000000       9.650925000000       8.985550000000
        20    2   0.000000        5.571975000000       9.650925000000       8.985550000000
        21    1   0.000000        1.857325000000       1.072320710700      10.446528545600
        22    1   0.000000        5.571975000000       7.506270710700      10.446528545600
        23    1   0.000000        3.714650000000       4.289295710700      10.446528545600
        24    1   0.000000        0.000000000000      10.723245710700      10.446528545600
        25    1   0.000000       14.858600000000       4.289295710700       7.524571454400
        26    1   0.000000       13.001275000000       1.072320710700      10.446528545600
        27    1   0.000000       11.143950000000       4.289295710700       7.524571454400
        28    1   0.000000       11.143950000000      10.723245710700       7.524571454400
        29    1   0.000000        9.286625000000       7.506270710700      10.446528545600
        30    2   0.000000       11.143950000000       0.000000000000       8.985550000000
        31    1   0.000000        7.429300000000      10.723245710700       7.524571454400
        32    2   0.000000       14.858600000000       6.433950000000       8.985550000000
        33    2   0.000000       14.858600000000       0.000000000000       8.985550000000
        34    2   0.000000       11.143950000000       6.433950000000       8.985550000000
        35    1   0.000000        7.429300000000       4.289295710700      10.446528545600
        36    1   0.000000       11.143950000000      10.723245710700      10.446528545600
        37    1   0.000000       13.001275000000       1.072320710700       7.524571454400
        38    1   0.000000        9.286625000000       7.506270710700       7.524571454400
        39    1   0.000000        9.286625000000       1.072320710700       7.524571454400
        40    1   0.000000       13.001275000000       7.506270710700       7.524571454400
        41    2   0.000000       13.001275000000       3.216975000000       8.985550000000
        42    2   0.000000        9.286625000000       3.216975000000       8.985550000000
        43    2   0.000000        9.286625000000       9.650925000000       8.985550000000
        44    2   0.000000       13.001275000000       9.650925000000       8.985550000000
        45    1   0.000000        9.286625000000       1.072320710700      10.446528545600
        46    1   0.000000       13.001275000000       7.506270710700      10.446528545600
        47    1   0.000000       11.143950000000       4.289295710700      10.446528545600
        48    1   0.000000        7.429300000000      10.723245710700      10.446528545600
        49    1   0.000000       22.287900000000       4.289295710700       7.524571454400
        50    1   0.000000       20.430575000000       1.072320710700      10.446528545600
        51    1   0.000000       18.573250000000       4.289295710700       7.524571454400
        52    1   0.000000       18.573250000000      10.723245710700       7.524571454400
        53    1   0.000000       16.715925000000       7.506270710700      10.446528545600
        54    2   0.000000       18.573250000000       0.000000000000       8.985550000000
        55    1   0.000000       14.858600000000      10.723245710700       7.524571454400
        56    2   0.000000       22.287900000000       6.433950000000       8.985550000000
        57    2   0.000000       22.287900000000       0.000000000000       8.985550000000
        58    2   0.000000       18.573250000000       6.433950000000       8.985550000000
        59    1   0.000000       14.858600000000       4.289295710700      10.446528545600
        60    1   0.000000       18.573250000000      10.723245710700      10.446528545600
        61    1   0.000000       20.430575000000       1.072320710700       7.524571454400
        62    1   0.000000       16.715925000000       7.506270710700       7.524571454400
        63    1   0.000000       16.715925000000       1.072320710700       7.524571454400
        64    1   0.000000       20.430575000000       7.506270710700       7.524571454400
        65    2   0.000000       20.430575000000       3.216975000000       8.985550000000
        66    2   0.000000       16.715925000000       3.216975000000       8.985550000000
        67    2   0.000000       16.715925000000       9.650925000000       8.985550000000
        68    2   0.000000       20.430575000000       9.650925000000       8.985550000000
        69    1   0.000000       16.715925000000       1.072320710700      10.446528545600
        70    1   0.000000       20.430575000000       7.506270710700      10.446528545600
        71    1   0.000000       18.573250000000       4.289295710700      10.446528545600
        72    1   0.000000       14.858600000000      10.723245710700      10.446528545600
        73    1   0.000000       29.717200000000       4.289295710700       7.524571454400
        74    1   0.000000       27.859875000000       1.072320710700      10.446528545600
        75    1   0.000000       26.002550000000       4.289295710700       7.524571454400
        76    1   0.000000       26.002550000000      10.723245710700       7.524571454400
        77    1   0.000000       24.145225000000       7.506270710700      10.446528545600
        78    2   0.000000       26.002550000000       0.000000000000       8.985550000000
        79    1   0.000000       22.287900000000      10.723245710700       7.524571454400
        80    2   0.000000       29.717200000000       6.433950000000       8.985550000000
        81    2   0.000000       29.717200000000       0.000000000000       8.985550000000
        82    2   0.000000       26.002550000000       6.433950000000       8.985550000000
        83    1   0.000000       22.287900000000       4.289295710700      10.446528545600
        84    1   0.000000       26.002550000000      10.723245710700      10.446528545600
        85    1   0.000000       27.859875000000       1.072320710700       7.524571454400
        86    1   0.000000       24.145225000000       7.506270710700       7.524571454400
        87    1   0.000000       24.145225000000       1.072320710700       7.524571454400
        88    1   0.000000       27.859875000000       7.506270710700       7.524571454400
        89    2   0.000000       27.859875000000       3.216975000000       8.985550000000
        90    2   0.000000       24.145225000000       3.216975000000       8.985550000000
        91    2   0.000000       24.145225000000       9.650925000000       8.985550000000
        92    2   0.000000       27.859875000000       9.650925000000       8.985550000000
        93    1   0.000000       24.145225000000       1.072320710700      10.446528545600
        94    1   0.000000       27.859875000000       7.506270710700      10.446528545600
        95    1   0.000000       26.002550000000       4.289295710700      10.446528545600
        96    1   0.000000       22.287900000000      10.723245710700      10.446528545600
        97    1   0.000000       37.146500000000       4.289295710700       7.524571454400
        98    1   0.000000       35.289175000000       1.072320710700      10.446528545600
        99    1   0.000000       33.431850000000       4.289295710700       7.524571454400
       100    1   0.000000       33.431850000000      10.723245710700       7.524571454400
       101    1   0.000000       31.574525000000       7.506270710700      10.446528545600
       102    2   0.000000       33.431850000000       0.000000000000       8.985550000000
       103    1   0.000000       29.717200000000      10.723245710700       7.524571454400
       104    2   0.000000       37.146500000000       6.433950000000       8.985550000000
       105    2   0.000000       37.146500000000       0.000000000000       8.985550000000
       106    2   0.000000       33.431850000000       6.433950000000       8.985550000000
       107    1   0.000000       29.717200000000       4.289295710700      10.446528545600
       108    1   0.000000       33.431850000000      10.723245710700      10.446528545600
       109    1   0.000000       35.289175000000       1.072320710700       7.524571454400
       110    1   0.000000       31.574525000000       7.506270710700       7.524571454400
       111    1   0.000000       31.574525000000       1.072320710700       7.524571454400
       112    1   0.000000       35.289175000000       7.506270710700       7.524571454400
       113    2   0.000000       35.289175000000       3.216975000000       8.985550000000
       114    2   0.000000       31.574525000000       3.216975000000       8.985550000000
       115    2   0.000000       31.574525000000       9.650925000000       8.985550000000
       116    2   0.000000       35.289175000000       9.650925000000       8.985550000000
       117    1   0.000000       31.574525000000       1.072320710700      10.446528545600
       118    1   0.000000       35.289175000000       7.506270710700      10.446528545600
       119    1   0.000000       33.431850000000       4.289295710700      10.446528545600
       120    1   0.000000       29.717200000000      10.723245710700      10.446528545600
       121    1   0.000000       44.575800000000       4.289295710700       7.524571454400
       122    1   0.000000       42.718475000000       1.072320710700      10.446528545600
       123    1   0.000000       40.861150000000       4.289295710700       7.524571454400
       124    1   0.000000       40.861150000000      10.723245710700       7.524571454400
       125    1   0.000000       39.003825000000       7.506270710700      10.446528545600
       126    2   0.000000       40.861150000000       0.000000000000       8.985550000000
       127    1   0.000000       37.146500000000      10.723245710700       7.524571454400
       128    2   0.000000       44.575800000000       6.433950000000       8.985550000000
       129    2   0.000000       44.575800000000       0.000000000000       8.985550000000
       130    2   0.000000       40.861150000000       6.433950000000       8.985550000000
       131    1   0.000000       37.146500000000       4.289295710700      10.446528545600
       132    1   0.000000       40.861150000000      10.723245710700      10.446528545600
       133    1   0.000000       42.718475000000       1.072320710700       7.524571454400
       134    1   0.000000       39.003825000000       7.506270710700       7.524571454400
       135    1   0.000000       39.003825000000       1.072320710700       7.524571454400
       136    1   0.000000       42.718475000000       7.506270710700       7.524571454400
       137    2   0.000000       42.718475000000       3.216975000000       8.985550000000
       138    2   0.000000       39.003825000000       3.216975000000       8.985550000000
       139    2   0.000000       39.003825000000       9.650925000000       8.985550000000
       140    2   0.000000       42.718475000000       9.650925000000       8.985550000000
       141    1   0.000000       39.003825000000       1.072320710700      10.446528545600
       142    1   0.000000       42.718475000000       7.506270710700      10.446528545600
       143    1   0.000000       40.861150000000       4.289295710700      10.446528545600
       144    1   0.000000       37.146500000000      10.723245710700      10.446528545600
       145    1   0.000000       52.005100000000       4.289295710700       7.524571454400
       146    1   0.000000       50.147775000000       1.072320710700      10.446528545600
       147    1   0.000000       48.290450000000       4.289295710700       7.524571454400
       148    1   0.000000       48.290450000000      10.723245710700       7.524571454400
       149    1   0.000000       46.433125000000       7.506270710700      10.446528545600
       150    2   0.000000       48.290450000000       0.000000000000       8.985550000000
       151    1   0.000000       44.575800000000      10.723245710700       7.524571454400
       152    2   0.000000       52.005100000000       6.433950000000       8.985550000000
       153    2   0.000000       52.005100000000       0.000000000000       8.985550000000
       154    2   0.000000       48.290450000000       6.433950000000       8.985550000000
       155    1   0.000000       44.575800000000       4.289295710700      10.446528545600
       156    1   0.000000       48.290450000000      10.723245710700      10.446528545600
       157    1   0.000000       50.147775000000       1.072320710700       7.524571454400
       158    1   0.000000       46.433125000000       7.506270710700       7.524571454400
       159    1   0.000000       46.433125000000       1.072320710700       7.524571454400
       160    1   0.000000       50.147775000000       7.506270710700       7.524571454400
       161    2   0.000000       50.147775000000       3.216975000000       8.985550000000
       162    2   0.000000       46.433125000000       3.216975000000       8.985550000000
       163    2   0.000000       46.433125000000       9.650925000000       8.985550000000
       164    2   0.000000       50.147775000000       9.650925000000       8.985550000000
       165    1   0.000000       46.433125000000       1.072320710700      10.446528545600
       166    1   0.000000       50.147775000000       7.506270710700      10.446528545600
       167    1   0.000000       48.290450000000       4.289295710700      10.446528545600
       168    1   0.000000       44.575800000000      10.723245710700      10.446528545600
       169    1   0.000000       59.434400000000       4.289295710700       7.524571454400
       170    1   0.000000       57.577075000000       1.072320710700      10.446528545600
       171    1   0.000000       55.719750000000       4.289295710700       7.524571454400
       172    1   0.000000       55.719750000000      10.723245710700       7.524571454400
       173    1   0.000000       53.862425000000       7.506270710700      10.446528545600
       174    2   0.000000       55.719750000000       0.000000000000       8.985550000000
       175    1   0.000000       52.005100000000      10.723245710700       7.524571454400
       176    2   0.000000       59.434400000000       6.433950000000       8.985550000000
       177    2   0.000000       59.434400000000       0.000000000000       8.985550000000
       178    2   0.000000       55.719750000000       6.433950000000       8.985550000000
       179    1   0.000000       52.005100000000       4.289295710700      10.446528545600
       180    1   0.000000       55.719750000000      10.723245710700      10.446528545600
       181    1   0.000000       57.577075000000       1.072320710700       7.524571454400
       182    1   0.000000       53.862425000000       7.506270710700       7.524571454400
       183    1   0.000000       53.862425000000       1.072320710700       7.524571454400
       184    1   0.000000       57.577075000000       7.506270710700       7.524571454400
       185    2   0.000000       57.577075000000       3.216975000000       8.985550000000
       186    2   0.000000       53.862425000000       3.216975000000       8.985550000000
       187    2   0.000000       53.862425000000       9.650925000000       8.985550000000
       188    2   0.000000       57.577075000000       9.650925000000       8.985550000000
       189    1   0.000000       53.862425000000       1.072320710700      10.446528545600
       190    1   0.000000       57.577075000000       7.506270710700      10.446528545600
       191    1   0.000000       55.719750000000       4.289295710700      10.446528545600
       192    1   0.000000       52.005100000000      10.723245710700      10.446528545600
       193    1   0.000000       66.863700000000       4.289295710700       7.524571454400
       194    1   0.000000       65.006375000000       1.072320710700      10.446528545600
       195    1   0.000000       63.149050000000       4.289295710700       7.524571454400
       196    1   0.000000       63.149050000000      10.723245710700       7.524571454400
       197    1   0.000000       61.291725000000       7.506270710700      10.446528545600
       198    2   0.000000       63.149050000000       0.000000000000       8.985550000000
       199    1   0.000000       59.434400000000      10.723245710700       7.524571454400
       200    2   0.000000       66.863700000000       6.433950000000       8.985550000000
       201    2   0.000000       66.863700000000       0.000000000000       8.985550000000
       202    2   0.000000       63.149050000000       6.433950000000       8.985550000000
       203    1   0.000000       59.434400000000       4.289295710700      10.446528545600
       204    1   0.000000       63.149050000000      10.723245710700      10.446528545600
       205    1   0.000000       65.006375000000       1.072320710700       7.524571454400
       206    1   0.000000       61.291725000000       7.506270710700       7.524571454400
       207    1   0.000000       61.291725000000       1.072320710700       7.524571454400
       208    1   0.000000       65.006375000000       7.506270710700       7.524571454400
       209    2   0.000000       65.006375000000       3.216975000000       8.985550000000
       210    2   0.000000       61.291725000000       3.216975000000       8.985550000000
       211    2   0.000000       61.291725000000       9.650925000000       8.985550000000
       212    2   0.000000       65.006375000000       9.650925000000       8.985550000000
       213    1   0.000000       61.291725000000       1.072320710700      10.446528545600
       214    1   0.000000       65.006375000000       7.506270710700      10.446528545600
       215    1   0.000000       63.149050000000       4.289295710700      10.446528545600
       216    1   0.000000       59.434400000000      10.723245710700      10.446528545600
       217    1   0.000000       74.293000000000       4.289295710700       7.524571454400
       218    1   0.000000       72.435675000000       1.072320710700      10.446528545600
       219    1   0.000000       70.578350000000       4.289295710700       7.524571454400
       220    1   0.000000       70.578350000000      10.723245710700       7.524571454400
       221    1   0.000000       68.721025000000       7.506270710700      10.446528545600
       222    2   0.000000       70.578350000000       0.000000000000       8.985550000000
       223    1   0.000000       66.863700000000      10.723245710700       7.524571454400
       224    2   0.000000       74.293000000000       6.433950000000       8.985550000000
       225    2   0.000000       74.293000000000       0.000000000000       8.985550000000
       226    2   0.000000       70.578350000000       6.433950000000       8.985550000000
       227    1   0.000000       66.863700000000       4.289295710700      10.446528545600
       228    1   0.000000       70.578350000000      10.723245710700      10.446528545600
       229    1   0.000000       72.435675000000       1.072320710700       7.524571454400
       230    1   0.000000       68.721025000000       7.506270710700       7.524571454400
       231    1   0.000000       68.721025000000       1.072320710700       7.524571454400
       232    1   0.000000       72.435675000000       7.506270710700       7.524571454400
       233    2   0.000000       72.435675000000       3.216975000000       8.985550000000
       234    2   0.000000       68.721025000000       3.216975000000       8.985550000000
       235    2   0.000000       68.721025000000       9.650925000000       8.985550000000
       236    2   0.000000       72.435675000000       9.650925000000       8.985550000000
       237    1   0.000000       68.721025000000       1.072320710700      10.446528545600
       238    1   0.000000       72.435675000000       7.506270710700      10.446528545600
       239    1   0.000000       70.578350000000       4.289295710700      10.446528545600
       240    1   0.000000       66.863700000000      10.723245710700      10.446528545600
       241    1   0.000000       81.722300000000       4.289295710700       7.524571454400
       242    1   0.000000       79.864975000000       1.072320710700      10.446528545600
       243    1   0.000000       78.007650000000       4.289295710700       7.524571454400
       244    1   0.000000       78.007650000000      10.723245710700       7.524571454400
       245    1   0.000000       76.150325000000       7.506270710700      10.446528545600
       246    2   0.000000       78.007650000000       0.000000000000       8.985550000000
       247    1   0.000000       74.293000000000      10.723245710700       7.524571454400
       248    2   0.000000       81.722300000000       6.433950000000       8.985550000000
       249    2   0.000000       81.722300000000       0.000000000000       8.985550000000
       250    2   0.000000       78.007650000000       6.433950000000       8.985550000000
       251    1   0.000000       74.293000000000       4.289295710700      10.446528545600
       252    1   0.000000       78.007650000000      10.723245710700      10.446528545600
       253    1   0.000000       79.864975000000       1.072320710700       7.524571454400
       254    1   0.000000       76.150325000000       7.506270710700       7.524571454400
       255    1   0.000000       76.150325000000       1.072320710700       7.524571454400
       256    1   0.000000       79.864975000000       7.506270710700       7.524571454400
       257    2   0.000000       79.864975000000       3.216975000000       8.985550000000
       258    2   0.000000       76.150325000000       3.216975000000       8.985550000000
       259    2   0.000000       76.150325000000       9.650925000000       8.985550000000
       260    2   0.000000       79.864975000000       9.650925000000       8.985550000000
       261    1   0.000000       76.150325000000       1.072320710700      10.446528545600
       262    1   0.000000       79.864975000000       7.506270710700      10.446528545600
       263    1   0.000000       78.007650000000       4.289295710700      10.446528545600
       264    1   0.000000       74.293000000000      10.723245710700      10.446528545600
       265    1   0.000000       89.151600000000       4.289295710700       7.524571454400
       266    1   0.000000       87.294275000000       1.072320710700      10.446528545600
       267    1   0.000000       85.436950000000       4.289295710700       7.524571454400
       268    1   0.000000       85.436950000000      10.723245710700       7.524571454400
       269    1   0.000000       83.579625000000       7.506270710700      10.446528545600
       270    2   0.000000       85.436950000000       0.000000000000       8.985550000000
       271    1   0.000000       81.722300000000      10.723245710700       7.524571454400
       272    2   0.000000       89.151600000000       6.433950000000       8.985550000000
       273    2   0.000000       89.151600000000       0.000000000000       8.985550000000
       274    2   0.000000       85.436950000000       6.433950000000       8.985550000000
       275    1   0.000000       81.722300000000       4.289295710700      10.446528545600
       276    1   0.000000       85.436950000000      10.723245710700      10.446528545600
       277    1   0.000000       87.294275000000       1.072320710700       7.524571454400
       278    1   0.000000       83.579625000000       7.506270710700       7.524571454400
       279    1   0.000000       83.579625000000       1.072320710700       7.524571454400
       280    1   0.000000       87.294275000000       7.506270710700       7.524571454400
       281    2   0.000000       87.294275000000       3.216975000000       8.985550000000
       282    2   0.000000       83.579625000000       3.216975000000       8.985550000000
       283    2   0.000000       83.579625000000       9.650925000000       8.985550000000
       284    2   0.000000       87.294275000000       9.650925000000       8.985550000000
       285    1   0.000000       83.579625000000       1.072320710700      10.446528545600
       286    1   0.000000       87.294275000000       7.506270710700      10.446528545600
       287    1   0.000000       85.436950000000       4.289295710700      10.446528545600
       288    1   0.000000       81.722300000000      10.723245710700      10.446528545600
       289    1   0.000000       96.580900000000       4.289295710700       7.524571454400
       290    1   0.000000       94.723575000000       1.072320710700      10.446528545600
       291    1   0.000000       92.866250000000       4.289295710700       7.524571454400
       292    1   0.000000       92.866250000000      10.723245710700       7.524571454400
       293    1   0.000000       91.008925000000       7.506270710700      10.446528545600
       294    2   0.000000       92.866250000000       0.000000000000       8.985550000000
       295    1   0.000000       89.151600000000      10.723245710700       7.524571454400
       296    2   0.000000       96.580900000000       6.433950000000       8.985550000000
       297    2   0.000000       96.580900000000       0.000000000000       8.985550000000
       298    2   0.000000       92.866250000000       6.433950000000       8.985550000000
       299    1   0.000000       89.151600000000       4.289295710700      10.446528545600
       300    1   0.000000       92.866250000000      10.723245710700      10.446528545600
       301    1   0.000000       94.723575000000       1.072320710700       7.524571454400
       302    1   0.000000       91.008925000000       7.506270710700       7.524571454400
       303    1   0.000000       91.008925000000       1.072320710700       7.524571454400
       304    1   0.000000       94.723575000000       7.506270710700       7.524571454400
       305    2   0.000000       94.723575000000       3.216975000000       8.985550000000
       306    2   0.000000       91.008925000000       3.216975000000       8.985550000000
       307    2   0.000000       91.008925000000       9.650925000000       8.985550000000
       308    2   0.000000       94.723575000000       9.650925000000       8.985550000000
       309    1   0.000000       91.008925000000       1.072320710700      10.446528545600
       310    1   0.000000       94.723575000000       7.506270710700      10.446528545600
       311    1   0.000000       92.866250000000       4.289295710700      10.446528545600
       312    1   0.000000       89.151600000000      10.723245710700      10.446528545600
       313    1   0.000000        7.429300000000      17.157195710700       7.524571454400
       314    1   0.000000        5.571975000000      13.940220710700      10.446528545600
       315    1   0.000000        3.714650000000      17.157195710700       7.524571454400
       316    1   0.000000        3.714650000000      23.591145710700       7.524571454400
       317    1   0.000000        1.857325000000      20.374170710700      10.446528545600
       318    2   0.000000        3.714650000000      12.867900000000       8.985550000000
       319    1   0.000000        0.000000000000      23.591145710700       7.524571454400
       320    2   0.000000        7.429300000000      19.301850000000       8.985550000000
       321    2   0.000000        7.429300000000      12.867900000000       8.985550000000
       322    2   0.000000        3.714650000000      19.301850000000       8.985550000000
       323    1   0.000000        0.000000000000      17.157195710700      10.446528545600
       324    1   0.000000        3.714650000000      23.591145710700      10.446528545600
       325    1   0.000000        5.571975000000      13.940220710700       7.524571454400