 # Ni8 Se16
  
        2688  atoms
           2  atom types
 
      0.000000000000      98.186200000000  xlo xhi
      0.000000000000      97.178400000000  ylo yhi
      0.000000000000      17.668200000000  zlo zhi
 
Masses
 
            1   58.69340000             # Ni
            2   78.96000000             # Se
 
Atoms # atomic
 
         1    1        5.259975000000       3.036825000000       8.834100000000
         2    1        1.753325000000       9.110475000000       8.834100000000
         3    2        3.506650000000       4.049095950900       7.514709496800
         4    1        0.000000000000      12.147300000000       8.834100000000
         5    2        0.000000000000      10.122745950900       7.514709496800
         6    2        0.000000000000       4.049095950900      10.153490503200
         7    1        3.506650000000       6.073650000000       8.834100000000
         8    2        3.506650000000      10.122745950900      10.153490503200
         9    2        3.506650000000       4.049095950900      10.153490503200
        10    1        3.506650000000      12.147300000000       8.834100000000
        11    2        0.000000000000      10.122745950900      10.153490503200
        12    1        7.013300000000       6.073650000000       8.834100000000
        13    1        1.753325000000       3.036825000000       8.834100000000
        14    2        7.013300000000       4.049095950900       7.514709496800
        15    2        5.259975000000       1.012270950900      10.153490503200
        16    2        5.259975000000       1.012270950900       7.514709496800
        17    1        5.259975000000       9.110475000000       8.834100000000
        18    2        1.753325000000       7.085920950900      10.153490503200
        19    2        3.506650000000      10.122745950900       7.514709496800
        20    2        1.753325000000       7.085920950900       7.514709496800
        21    2        1.753325000000       1.012270950900       7.514709496800
        22    2        5.259975000000       7.085920950900       7.514709496800
        23    2        1.753325000000       1.012270950900      10.153490503200
        24    2        5.259975000000       7.085920950900      10.153490503200
        25    1       12.273275000000       3.036825000000       8.834100000000
        26    1        8.766625000000       9.110475000000       8.834100000000
        27    2       10.519950000000       4.049095950900       7.514709496800
        28    1        7.013300000000      12.147300000000       8.834100000000
        29    2        7.013300000000      10.122745950900       7.514709496800
        30    2        7.013300000000       4.049095950900      10.153490503200
        31    1       10.519950000000       6.073650000000       8.834100000000
        32    2       10.519950000000      10.122745950900      10.153490503200
        33    2       10.519950000000       4.049095950900      10.153490503200
        34    1       10.519950000000      12.147300000000       8.834100000000
        35    2        7.013300000000      10.122745950900      10.153490503200
        36    1       14.026600000000       6.073650000000       8.834100000000
        37    1        8.766625000000       3.036825000000       8.834100000000
        38    2       14.026600000000       4.049095950900       7.514709496800
        39    2       12.273275000000       1.012270950900      10.153490503200
        40    2       12.273275000000       1.012270950900       7.514709496800
        41    1       12.273275000000       9.110475000000       8.834100000000
        42    2        8.766625000000       7.085920950900      10.153490503200
        43    2       10.519950000000      10.122745950900       7.514709496800
        44    2        8.766625000000       7.085920950900       7.514709496800
        45    2        8.766625000000       1.012270950900       7.514709496800
        46    2       12.273275000000       7.085920950900       7.514709496800
        47    2        8.766625000000       1.012270950900      10.153490503200
        48    2       12.273275000000       7.085920950900      10.153490503200
        49    1       19.286575000000       3.036825000000       8.834100000000
        50    1       15.779925000000       9.110475000000       8.834100000000
        51    2       17.533250000000       4.049095950900       7.514709496800
        52    1       14.026600000000      12.147300000000       8.834100000000
        53    2       14.026600000000      10.122745950900       7.514709496800
        54    2       14.026600000000       4.049095950900      10.153490503200
        55    1       17.533250000000       6.073650000000       8.834100000000
        56    2       17.533250000000      10.122745950900      10.153490503200
        57    2       17.533250000000       4.049095950900      10.153490503200
        58    1       17.533250000000      12.147300000000       8.834100000000
        59    2       14.026600000000      10.122745950900      10.153490503200
        60    1       21.039900000000       6.073650000000       8.834100000000
        61    1       15.779925000000       3.036825000000       8.834100000000
        62    2       21.039900000000       4.049095950900       7.514709496800
        63    2       19.286575000000       1.012270950900      10.153490503200
        64    2       19.286575000000       1.012270950900       7.514709496800
        65    1       19.286575000000       9.110475000000       8.834100000000
        66    2       15.779925000000       7.085920950900      10.153490503200
        67    2       17.533250000000      10.122745950900       7.514709496800
        68    2       15.779925000000       7.085920950900       7.514709496800
        69    2       15.779925000000       1.012270950900       7.514709496800
        70    2       19.286575000000       7.085920950900       7.514709496800
        71    2       15.779925000000       1.012270950900      10.153490503200
        72    2       19.286575000000       7.085920950900      10.153490503200
        73    1       26.299875000000       3.036825000000       8.834100000000
        74    1       22.793225000000       9.110475000000       8.834100000000
        75    2       24.546550000000       4.049095950900       7.514709496800
        76    1       21.039900000000      12.147300000000       8.834100000000
        77    2       21.039900000000      10.122745950900       7.514709496800
        78    2       21.039900000000       4.049095950900      10.153490503200
        79    1       24.546550000000       6.073650000000       8.834100000000
        80    2       24.546550000000      10.122745950900      10.153490503200
        81    2       24.546550000000       4.049095950900      10.153490503200
        82    1       24.546550000000      12.147300000000       8.834100000000
        83    2       21.039900000000      10.122745950900      10.153490503200
        84    1       28.053200000000       6.073650000000       8.834100000000
        85    1       22.793225000000       3.036825000000       8.834100000000
        86    2       28.053200000000       4.049095950900       7.514709496800
        87    2       26.299875000000       1.012270950900      10.153490503200
        88    2       26.299875000000       1.012270950900       7.514709496800
        89    1       26.299875000000       9.110475000000       8.834100000000
        90    2       22.793225000000       7.085920950900      10.153490503200
        91    2       24.546550000000      10.122745950900       7.514709496800
        92    2       22.793225000000       7.085920950900       7.514709496800
        93    2       22.793225000000       1.012270950900       7.514709496800
        94    2       26.299875000000       7.085920950900       7.514709496800
        95    2       22.793225000000       1.012270950900      10.153490503200
        96    2       26.299875000000       7.085920950900      10.153490503200
        97    1       33.313175000000       3.036825000000       8.834100000000
        98    1       29.806525000000       9.110475000000       8.834100000000
        99    2       31.559850000000       4.049095950900       7.514709496800
       100    1       28.053200000000      12.147300000000       8.834100000000
       101    2       28.053200000000      10.122745950900       7.514709496800
       102    2       28.053200000000       4.049095950900      10.153490503200
       103    1       31.559850000000       6.073650000000       8.834100000000
       104    2       31.559850000000      10.122745950900      10.153490503200
       105    2       31.559850000000       4.049095950900      10.153490503200
       106    1       31.559850000000      12.147300000000       8.834100000000
       107    2       28.053200000000      10.122745950900      10.153490503200
       108    1       35.066500000000       6.073650000000       8.834100000000
       109    1       29.806525000000       3.036825000000       8.834100000000
       110    2       35.066500000000       4.049095950900       7.514709496800
       111    2       33.313175000000       1.012270950900      10.153490503200
       112    2       33.313175000000       1.012270950900       7.514709496800
       113    1       33.313175000000       9.110475000000       8.834100000000
       114    2       29.806525000000       7.085920950900      10.153490503200
       115    2       31.559850000000      10.122745950900       7.514709496800
       116    2       29.806525000000       7.085920950900       7.514709496800
       117    2       29.806525000000       1.012270950900       7.514709496800
       118    2       33.313175000000       7.085920950900       7.514709496800
       119    2       29.806525000000       1.012270950900      10.153490503200
       120    2       33.313175000000       7.085920950900      10.153490503200
       121    1       40.326475000000       3.036825000000       8.834100000000
       122    1       36.819825000000       9.110475000000       8.834100000000
       123    2       38.573150000000       4.049095950900       7.514709496800
       124    1       35.066500000000      12.147300000000       8.834100000000
       125    2       35.066500000000      10.122745950900       7.514709496800
       126    2       35.066500000000       4.049095950900      10.153490503200
       127    1       38.573150000000       6.073650000000       8.834100000000
       128    2       38.573150000000      10.122745950900      10.153490503200
       129    2       38.573150000000       4.049095950900      10.153490503200
       130    1       38.573150000000      12.147300000000       8.834100000000
       131    2       35.066500000000      10.122745950900      10.153490503200
       132    1       42.079800000000       6.073650000000       8.834100000000
       133    1       36.819825000000       3.036825000000       8.834100000000
       134    2       42.079800000000       4.049095950900       7.514709496800
       135    2       40.326475000000       1.012270950900      10.153490503200
       136    2       40.326475000000       1.012270950900       7.514709496800
       137    1       40.326475000000       9.110475000000       8.834100000000
       138    2       36.819825000000       7.085920950900      10.153490503200
       139    2       38.573150000000      10.122745950900       7.514709496800
       140    2       36.819825000000       7.085920950900       7.514709496800
       141    2       36.819825000000       1.012270950900       7.514709496800
       142    2       40.326475000000       7.085920950900       7.514709496800
       143    2       36.819825000000       1.012270950900      10.153490503200
       144    2       40.326475000000       7.085920950900      10.153490503200
       145    1       47.339775000000       3.036825000000       8.834100000000
       146    1       43.833125000000       9.110475000000       8.834100000000
       147    2       45.586450000000       4.049095950900       7.514709496800
       148    1       42.079800000000      12.147300000000       8.834100000000
       149    2       42.079800000000      10.122745950900       7.514709496800
       150    2       42.079800000000       4.049095950900      10.153490503200
       151    1       45.586450000000       6.073650000000       8.834100000000
       152    2       45.586450000000      10.122745950900      10.153490503200
       153    2       45.586450000000       4.049095950900      10.153490503200
       154    1       45.586450000000      12.147300000000       8.834100000000
       155    2       42.079800000000      10.122745950900      10.153490503200
       156    1       49.093100000000       6.073650000000       8.834100000000
       157    1       43.833125000000       3.036825000000       8.834100000000
       158    2       49.093100000000       4.049095950900       7.514709496800
       159    2       47.339775000000       1.012270950900      10.153490503200
       160    2       47.339775000000       1.012270950900       7.514709496800
       161    1       47.339775000000       9.110475000000       8.834100000000
       162    2       43.833125000000       7.085920950900      10.153490503200
       163    2       45.586450000000      10.122745950900       7.514709496800
       164    2       43.833125000000       7.085920950900       7.514709496800
       165    2       43.833125000000       1.012270950900       7.514709496800
       166    2       47.339775000000       7.085920950900       7.514709496800
       167    2       43.833125000000       1.012270950900      10.153490503200
       168    2       47.339775000000       7.085920950900      10.153490503200
       169    1       54.353075000000       3.036825000000       8.834100000000
       170    1       50.846425000000       9.110475000000       8.834100000000
       171    2       52.599750000000       4.049095950900       7.514709496800
       172    1       49.093100000000      12.147300000000       8.834100000000
       173    2       49.093100000000      10.122745950900       7.514709496800
       174    2       49.093100000000       4.049095950900      10.153490503200
       175    1       52.599750000000       6.073650000000       8.834100000000
       176    2       52.599750000000      10.122745950900      10.153490503200
       177    2       52.599750000000       4.049095950900      10.153490503200
       178    1       52.599750000000      12.147300000000       8.834100000000
       179    2       49.093100000000      10.122745950900      10.153490503200
       180    1       56.106400000000       6.073650000000       8.834100000000
       181    1       50.846425000000       3.036825000000       8.834100000000
       182    2       56.106400000000       4.049095950900       7.514709496800
       183    2       54.353075000000       1.012270950900      10.153490503200
       184    2       54.353075000000       1.012270950900       7.514709496800
       185    1       54.353075000000       9.110475000000       8.834100000000
       186    2       50.846425000000       7.085920950900      10.153490503200
       187    2       52.599750000000      10.122745950900       7.514709496800
       188    2       50.846425000000       7.085920950900       7.514709496800
       189    2       50.846425000000       1.012270950900       7.514709496800
       190    2       54.353075000000       7.085920950900       7.514709496800
       191    2       50.846425000000       1.012270950900      10.153490503200
       192    2       54.353075000000       7.085920950900      10.153490503200
       193    1       61.366375000000       3.036825000000       8.834100000000
       194    1       57.859725000000       9.110475000000       8.834100000000
       195    2       59.613050000000       4.049095950900       7.514709496800
       196    1       56.106400000000      12.147300000000       8.834100000000
       197    2       56.106400000000      10.122745950900       7.514709496800
       198    2       56.106400000000       4.049095950900      10.153490503200
       199    1       59.613050000000       6.073650000000       8.834100000000
       200    2       59.613050000000      10.122745950900      10.153490503200
       201    2       59.613050000000       4.049095950900      10.153490503200
       202    1       59.613050000000      12.147300000000       8.834100000000
       203    2       56.106400000000      10.122745950900      10.153490503200
       204    1       63.119700000000       6.073650000000       8.834100000000
       205    1       57.859725000000       3.036825000000       8.834100000000
       206    2       63.119700000000       4.049095950900       7.514709496800
       207    2       61.366375000000       1.012270950900      10.153490503200
       208    2       61.366375000000       1.012270950900       7.514709496800
       209    1       61.366375000000       9.110475000000       8.834100000000
       210    2       57.859725000000       7.085920950900      10.153490503200
       211    2       59.613050000000      10.122745950900       7.514709496800
       212    2       57.859725000000       7.085920950900       7.514709496800
       213    2       57.859725000000       1.012270950900       7.514709496800
       214    2       61.366375000000       7.085920950900       7.514709496800
       215    2       57.859725000000       1.012270950900      10.153490503200
       216    2       61.366375000000       7.085920950900      10.153490503200
       217    1       68.379675000000       3.036825000000       8.834100000000
       218    1       64.873025000000       9.110475000000       8.834100000000
       219    2       66.626350000000       4.049095950900       7.514709496800
       220    1       63.119700000000      12.147300000000       8.834100000000
       221    2       63.119700000000      10.122745950900       7.514709496800
       222    2       63.119700000000       4.049095950900      10.153490503200
       223    1       66.626350000000       6.073650000000       8.834100000000
       224    2       66.626350000000      10.122745950900      10.153490503200
       225    2       66.626350000000       4.049095950900      10.153490503200
       226    1       66.626350000000      12.147300000000       8.834100000000
       227    2       63.119700000000      10.122745950900      10.153490503200
       228    1       70.133000000000       6.073650000000       8.834100000000
       229    1       64.873025000000       3.036825000000       8.834100000000
       230    2       70.133000000000       4.049095950900       7.514709496800
       231    2       68.379675000000       1.012270950900      10.153490503200
       232    2       68.379675000000       1.012270950900       7.514709496800
       233    1       68.379675000000       9.110475000000       8.834100000000
       234    2       64.873025000000       7.085920950900      10.153490503200
       235    2       66.626350000000      10.122745950900       7.514709496800
       236    2       64.873025000000       7.085920950900       7.514709496800
       237    2       64.873025000000       1.012270950900       7.514709496800
       238    2       68.379675000000       7.085920950900       7.514709496800
       239    2       64.873025000000       1.012270950900      10.153490503200
       240    2       68.379675000000       7.085920950900      10.153490503200
       241    1       75.392975000000       3.036825000000       8.834100000000
       242    1       71.886325000000       9.110475000000       8.834100000000
       243    2       73.639650000000       4.049095950900       7.514709496800
       244    1       70.133000000000      12.147300000000       8.834100000000
       245    2       70.133000000000      10.122745950900       7.514709496800
       246    2       70.133000000000       4.049095950900      10.153490503200
       247    1       73.639650000000       6.073650000000       8.834100000000
       248    2       73.639650000000      10.122745950900      10.153490503200
       249    2       73.639650000000       4.049095950900      10.153490503200
       250    1       73.639650000000      12.147300000000       8.834100000000
       251    2       70.133000000000      10.122745950900      10.153490503200
       252    1       77.146300000000       6.073650000000       8.834100000000
       253    1       71.886325000000       3.036825000000       8.834100000000
       254    2       77.146300000000       4.049095950900       7.514709496800
       255    2       75.392975000000       1.012270950900      10.153490503200
       256    2       75.392975000000       1.012270950900       7.514709496800
       257    1       75.392975000000       9.110475000000       8.834100000000
       258    2       71.886325000000       7.085920950900      10.153490503200
       259    2       73.639650000000      10.122745950900       7.514709496800
       260    2       71.886325000000       7.085920950900       7.514709496800
       261    2       71.886325000000       1.012270950900       7.514709496800
       262    2       75.392975000000       7.085920950900       7.514709496800
       263    2       71.886325000000       1.012270950900      10.153490503200
       264    2       75.392975000000       7.085920950900      10.153490503200
       265    1       82.406275000000       3.036825000000       8.834100000000
       266    1       78.899625000000       9.110475000000       8.834100000000
       267    2       80.652950000000       4.049095950900       7.514709496800
       268    1       77.146300000000      12.147300000000       8.834100000000
       269    2       77.146300000000      10.122745950900       7.514709496800
       270    2       77.146300000000       4.049095950900      10.153490503200
       271    1       80.652950000000       6.073650000000       8.834100000000
       272    2       80.652950000000      10.122745950900      10.153490503200
       273    2       80.652950000000       4.049095950900      10.153490503200
       274    1       80.652950000000      12.147300000000       8.834100000000
       275    2       77.146300000000      10.122745950900      10.153490503200
       276    1       84.159600000000       6.073650000000       8.834100000000
       277    1       78.899625000000       3.036825000000       8.834100000000
       278    2       84.159600000000       4.049095950900       7.514709496800
       279    2       82.406275000000       1.012270950900      10.153490503200
       280    2       82.406275000000       1.012270950900       7.514709496800
       281    1       82.406275000000       9.110475000000       8.834100000000
       282    2       78.899625000000       7.085920950900      10.153490503200
       283    2       80.652950000000      10.122745950900       7.514709496800
       284    2       78.899625000000       7.085920950900       7.514709496800
       285    2       78.899625000000       1.012270950900       7.514709496800
       286    2       82.406275000000       7.085920950900       7.514709496800
       287    2       78.899625000000       1.012270950900      10.153490503200
       288    2       82.406275000000       7.085920950900      10.153490503200
       289    1       89.419575000000       3.036825000000       8.834100000000
       290    1       85.912925000000       9.110475000000       8.834100000000
       291    2       87.666250000000       4.049095950900       7.514709496800
       292    1       84.159600000000      12.147300000000       8.834100000000
       293    2       84.159600000000      10.122745950900       7.514709496800
       294    2       84.159600000000       4.049095950900      10.153490503200
       295    1       87.666250000000       6.073650000000       8.834100000000
       296    2       87.666250000000      10.122745950900      10.153490503200
       297    2       87.666250000000       4.049095950900      10.153490503200
       298    1       87.666250000000      12.147300000000       8.834100000000
       299    2       84.159600000000      10.122745950900      10.153490503200
       300    1       91.172900000000       6.073650000000       8.834100000000
       301    1       85.912925000000       3.036825000000       8.834100000000
       302    2       91.172900000000       4.049095950900       7.514709496800
       303    2       89.419575000000       1.012270950900      10.153490503200
       304    2       89.419575000000       1.012270950900       7.514709496800
       305    1       89.419575000000       9.110475000000       8.834100000000
       306    2       85.912925000000       7.085920950900      10.153490503200
       307    2       87.666250000000      10.122745950900       7.514709496800
       308    2       85.912925000000       7.085920950900       7.514709496800
       309    2       85.912925000000       1.012270950900       7.514709496800
       310    2       89.419575000000       7.085920950900       7.514709496800
       311    2       85.912925000000       1.012270950900      10.153490503200
       312    2       89.419575000000       7.085920950900      10.153490503200
       313    1       96.432875000000       3.036825000000       8.834100000000
       314    1       92.926225000000       9.110475000000       8.834100000000
       315    2       94.679550000000       4.049095950900       7.514709496800
       316    1       91.172900000000      12.147300000000       8.834100000000
       317    2       91.172900000000      10.122745950900       7.514709496800
       318    2       91.172900000000       4.049095950900      10.153490503200
       319    1       94.679550000000       6.073650000000       8.834100000000
       320    2       94.679550000000      10.122745950900      10.153490503200
       321    2       94.679550000000       4.049095950900      10.153490503200
       322    1       94.679550000000      12.147300000000       8.834100000000
       323    2       91.172900000000      10.122745950900      10.153490503200
       324    1       98.186200000000       6.073650000000       8.834100000000
       325    1       92.926225000000       3.036825000000       8.834100000000
       326    2       98.186200000000       4.049095950900       7.514709496800
       327    2       96.432875000000       1.012270950900      10.153490503200
       328    2       96.432875000000       1.012270950900       7.514709496800
       329    1       96.432875000000       9.110475000000       8.834100000000
       330    2       92.926225000000       7.085920950900      10.153490503200
       331    2       94.679550000000      10.122745950900       7.514709496800
       332    2       92.926225000000       7.085920950900       7.514709496800
       333    2       92.926225000000       1.012270950900       7.514709496800
       334    2       96.432875000000       7.085920950900       7.514709496800
       335    2       92.926225000000       1.012270950900      10.153490503200
       336    2       96.432875000000       7.085920950900      10.153490503200
       337    1        5.259975000000      15.184125000000       8.834100000000
       338    1        1.753325000000      21.257775000000       8.834100000000
       339    2        3.506650000000      16.196395950900       7.514709496800
       340    1        0.000000000000      24.294600000000       8.834100000000
       341    2        0.000000000000      22.270045950900       7.514709496800
       342    2        0.000000000000      16.196395950900      10.153490503200
       343    1        3.506650000000      18.220950000000       8.834100000000
       344    2        3.506650000000      22.270045950900      10.153490503200
       345    2        3.506650000000      16.196395950900      10.153490503200
       346    1        3.506650000000      24.294600000000       8.834100000000
       347    2        0.000000000000      22.270045950900      10.153490503200
       348    1        7.013300000000      18.220950000000       8.834100000000
       349    1        1.753325000000      15.184125000000       8.834100000000
       350    2        7.013300000000      16.196395950900       7.514709496800
       351    2        5.259975000000      13.159570950900      10.153490503200
       352    2        5.259975000000      13.159570950900       7.514709496800
       353    1        5.259975000000      21.257775000000       8.834100000000
       354    2        1.753325000000      19.233220950900      10.153490503200
       355    2        3.506650000000      22.270045950900       7.514709496800
       356    2        1.753325000000      19.233220950900       7.514709496800
       357    2        1.753325000000      13.159570950900       7.514709496800
       358    2        5.259975000000      19.233220950900       7.514709496800
       359    2        1.753325000000      13.159570950900      10.153490503200
       360    2        5.259975000000      19.233220950900      10.153490503200
       361    1       12.273275000000      15.184125000000       8.834100000000
       362    1        8.766625000000      21.257775000000       8.834100000000
       363    2       10.519950000000      16.196395950900       7.514709496800
       364    1        7.013300000000      24.294600000000       8.834100000000
       365    2        7.013300000000      22.270045950900       7.514709496800
       366    2        7.013300000000      16.196395950900      10.153490503200
       367    1       10.519950000000      18.220950000000       8.834100000000
       368    2       10.519950000000      22.270045950900      10.153490503200
       369    2       10.519950000000      16.196395950900      10.153490503200
       370    1       10.519950000000      24.294600000000       8.834100000000