 # S16 Ta8
  
        3240  atoms
           2  atom types
 
      0.000000000000     100.227000000000  xlo xhi
      0.000000000000     104.159700000000  ylo yhi
      0.000000000000      18.131600000000  zlo zhi
 
Masses
 
            1   32.06000000             # S
            2   180.94788000            # Ta
 
Atoms # charge
 
         1    1   0.000000        0.000000000000       3.857762808900      10.631590581200
         2    1   0.000000        3.340900000000       9.644412808900      10.631590581200
         3    1   0.000000        0.000000000000       3.857762808900       7.500009418800
         4    1   0.000000        3.340900000000       9.644412808900       7.500009418800
         5    2   0.000000        0.000000000000      11.573300000000       9.065800000000
         6    2   0.000000        3.340900000000       5.786650000000       9.065800000000
         7    1   0.000000        5.011350000000       0.964437808900       7.500009418800
         8    1   0.000000        1.670450000000       6.751087808900       7.500009418800
         9    1   0.000000        1.670450000000       0.964437808900      10.631590581200
        10    1   0.000000        3.340900000000       3.857762808900      10.631590581200
        11    1   0.000000        0.000000000000       9.644412808900      10.631590581200
        12    1   0.000000        5.011350000000       6.751087808900      10.631590581200
        13    2   0.000000        1.670450000000       2.893325000000       9.065800000000
        14    2   0.000000        5.011350000000       8.679975000000       9.065800000000
        15    1   0.000000        5.011350000000       0.964437808900      10.631590581200
        16    1   0.000000        1.670450000000       6.751087808900      10.631590581200
        17    1   0.000000        3.340900000000       3.857762808900       7.500009418800
        18    1   0.000000        0.000000000000       9.644412808900       7.500009418800
        19    2   0.000000        3.340900000000      11.573300000000       9.065800000000
        20    2   0.000000        0.000000000000       5.786650000000       9.065800000000
        21    2   0.000000        5.011350000000       2.893325000000       9.065800000000
        22    1   0.000000        1.670450000000       0.964437808900       7.500009418800
        23    2   0.000000        1.670450000000       8.679975000000       9.065800000000
        24    1   0.000000        5.011350000000       6.751087808900       7.500009418800
        25    1   0.000000        6.681800000000       3.857762808900      10.631590581200
        26    1   0.000000       10.022700000000       9.644412808900      10.631590581200
        27    1   0.000000        6.681800000000       3.857762808900       7.500009418800
        28    1   0.000000       10.022700000000       9.644412808900       7.500009418800
        29    2   0.000000        6.681800000000      11.573300000000       9.065800000000
        30    2   0.000000       10.022700000000       5.786650000000       9.065800000000
        31    1   0.000000       11.693150000000       0.964437808900       7.500009418800
        32    1   0.000000        8.352250000000       6.751087808900       7.500009418800
        33    1   0.000000        8.352250000000       0.964437808900      10.631590581200
        34    1   0.000000       10.022700000000       3.857762808900      10.631590581200
        35    1   0.000000        6.681800000000       9.644412808900      10.631590581200
        36    1   0.000000       11.693150000000       6.751087808900      10.631590581200
        37    2   0.000000        8.352250000000       2.893325000000       9.065800000000
        38    2   0.000000       11.693150000000       8.679975000000       9.065800000000
        39    1   0.000000       11.693150000000       0.964437808900      10.631590581200
        40    1   0.000000        8.352250000000       6.751087808900      10.631590581200
        41    1   0.000000       10.022700000000       3.857762808900       7.500009418800
        42    1   0.000000        6.681800000000       9.644412808900       7.500009418800
        43    2   0.000000       10.022700000000      11.573300000000       9.065800000000
        44    2   0.000000        6.681800000000       5.786650000000       9.065800000000
        45    2   0.000000       11.693150000000       2.893325000000       9.065800000000
        46    1   0.000000        8.352250000000       0.964437808900       7.500009418800
        47    2   0.000000        8.352250000000       8.679975000000       9.065800000000
        48    1   0.000000       11.693150000000       6.751087808900       7.500009418800
        49    1   0.000000       13.363600000000       3.857762808900      10.631590581200
        50    1   0.000000       16.704500000000       9.644412808900      10.631590581200
        51    1   0.000000       13.363600000000       3.857762808900       7.500009418800
        52    1   0.000000       16.704500000000       9.644412808900       7.500009418800
        53    2   0.000000       13.363600000000      11.573300000000       9.065800000000
        54    2   0.000000       16.704500000000       5.786650000000       9.065800000000
        55    1   0.000000       18.374950000000       0.964437808900       7.500009418800
        56    1   0.000000       15.034050000000       6.751087808900       7.500009418800
        57    1   0.000000       15.034050000000       0.964437808900      10.631590581200
        58    1   0.000000       16.704500000000       3.857762808900      10.631590581200
        59    1   0.000000       13.363600000000       9.644412808900      10.631590581200
        60    1   0.000000       18.374950000000       6.751087808900      10.631590581200
        61    2   0.000000       15.034050000000       2.893325000000       9.065800000000
        62    2   0.000000       18.374950000000       8.679975000000       9.065800000000
        63    1   0.000000       18.374950000000       0.964437808900      10.631590581200
        64    1   0.000000       15.034050000000       6.751087808900      10.631590581200
        65    1   0.000000       16.704500000000       3.857762808900       7.500009418800
        66    1   0.000000       13.363600000000       9.644412808900       7.500009418800
        67    2   0.000000       16.704500000000      11.573300000000       9.065800000000
        68    2   0.000000       13.363600000000       5.786650000000       9.065800000000
        69    2   0.000000       18.374950000000       2.893325000000       9.065800000000
        70    1   0.000000       15.034050000000       0.964437808900       7.500009418800
        71    2   0.000000       15.034050000000       8.679975000000       9.065800000000
        72    1   0.000000       18.374950000000       6.751087808900       7.500009418800
        73    1   0.000000       20.045400000000       3.857762808900      10.631590581200
        74    1   0.000000       23.386300000000       9.644412808900      10.631590581200
        75    1   0.000000       20.045400000000       3.857762808900       7.500009418800
        76    1   0.000000       23.386300000000       9.644412808900       7.500009418800
        77    2   0.000000       20.045400000000      11.573300000000       9.065800000000
        78    2   0.000000       23.386300000000       5.786650000000       9.065800000000
        79    1   0.000000       25.056750000000       0.964437808900       7.500009418800
        80    1   0.000000       21.715850000000       6.751087808900       7.500009418800
        81    1   0.000000       21.715850000000       0.964437808900      10.631590581200
        82    1   0.000000       23.386300000000       3.857762808900      10.631590581200
        83    1   0.000000       20.045400000000       9.644412808900      10.631590581200
        84    1   0.000000       25.056750000000       6.751087808900      10.631590581200
        85    2   0.000000       21.715850000000       2.893325000000       9.065800000000
        86    2   0.000000       25.056750000000       8.679975000000       9.065800000000
        87    1   0.000000       25.056750000000       0.964437808900      10.631590581200
        88    1   0.000000       21.715850000000       6.751087808900      10.631590581200
        89    1   0.000000       23.386300000000       3.857762808900       7.500009418800
        90    1   0.000000       20.045400000000       9.644412808900       7.500009418800
        91    2   0.000000       23.386300000000      11.573300000000       9.065800000000
        92    2   0.000000       20.045400000000       5.786650000000       9.065800000000
        93    2   0.000000       25.056750000000       2.893325000000       9.065800000000
        94    1   0.000000       21.715850000000       0.964437808900       7.500009418800
        95    2   0.000000       21.715850000000       8.679975000000       9.065800000000
        96    1   0.000000       25.056750000000       6.751087808900       7.500009418800
        97    1   0.000000       26.727200000000       3.857762808900      10.631590581200
        98    1   0.000000       30.068100000000       9.644412808900      10.631590581200
        99    1   0.000000       26.727200000000       3.857762808900       7.500009418800
       100    1   0.000000       30.068100000000       9.644412808900       7.500009418800
       101    2   0.000000       26.727200000000      11.573300000000       9.065800000000
       102    2   0.000000       30.068100000000       5.786650000000       9.065800000000
       103    1   0.000000       31.738550000000       0.964437808900       7.500009418800
       104    1   0.000000       28.397650000000       6.751087808900       7.500009418800
       105    1   0.000000       28.397650000000       0.964437808900      10.631590581200
       106    1   0.000000       30.068100000000       3.857762808900      10.631590581200
       107    1   0.000000       26.727200000000       9.644412808900      10.631590581200
       108    1   0.000000       31.738550000000       6.751087808900      10.631590581200
       109    2   0.000000       28.397650000000       2.893325000000       9.065800000000
       110    2   0.000000       31.738550000000       8.679975000000       9.065800000000
       111    1   0.000000       31.738550000000       0.964437808900      10.631590581200
       112    1   0.000000       28.397650000000       6.751087808900      10.631590581200
       113    1   0.000000       30.068100000000       3.857762808900       7.500009418800
       114    1   0.000000       26.727200000000       9.644412808900       7.500009418800
       115    2   0.000000       30.068100000000      11.573300000000       9.065800000000
       116    2   0.000000       26.727200000000       5.786650000000       9.065800000000
       117    2   0.000000       31.738550000000       2.893325000000       9.065800000000
       118    1   0.000000       28.397650000000       0.964437808900       7.500009418800
       119    2   0.000000       28.397650000000       8.679975000000       9.065800000000
       120    1   0.000000       31.738550000000       6.751087808900       7.500009418800
       121    1   0.000000       33.409000000000       3.857762808900      10.631590581200
       122    1   0.000000       36.749900000000       9.644412808900      10.631590581200
       123    1   0.000000       33.409000000000       3.857762808900       7.500009418800
       124    1   0.000000       36.749900000000       9.644412808900       7.500009418800
       125    2   0.000000       33.409000000000      11.573300000000       9.065800000000
       126    2   0.000000       36.749900000000       5.786650000000       9.065800000000
       127    1   0.000000       38.420350000000       0.964437808900       7.500009418800
       128    1   0.000000       35.079450000000       6.751087808900       7.500009418800
       129    1   0.000000       35.079450000000       0.964437808900      10.631590581200
       130    1   0.000000       36.749900000000       3.857762808900      10.631590581200
       131    1   0.000000       33.409000000000       9.644412808900      10.631590581200
       132    1   0.000000       38.420350000000       6.751087808900      10.631590581200
       133    2   0.000000       35.079450000000       2.893325000000       9.065800000000
       134    2   0.000000       38.420350000000       8.679975000000       9.065800000000
       135    1   0.000000       38.420350000000       0.964437808900      10.631590581200
       136    1   0.000000       35.079450000000       6.751087808900      10.631590581200
       137    1   0.000000       36.749900000000       3.857762808900       7.500009418800
       138    1   0.000000       33.409000000000       9.644412808900       7.500009418800
       139    2   0.000000       36.749900000000      11.573300000000       9.065800000000
       140    2   0.000000       33.409000000000       5.786650000000       9.065800000000
       141    2   0.000000       38.420350000000       2.893325000000       9.065800000000
       142    1   0.000000       35.079450000000       0.964437808900       7.500009418800
       143    2   0.000000       35.079450000000       8.679975000000       9.065800000000
       144    1   0.000000       38.420350000000       6.751087808900       7.500009418800
       145    1   0.000000       40.090800000000       3.857762808900      10.631590581200
       146    1   0.000000       43.431700000000       9.644412808900      10.631590581200
       147    1   0.000000       40.090800000000       3.857762808900       7.500009418800
       148    1   0.000000       43.431700000000       9.644412808900       7.500009418800
       149    2   0.000000       40.090800000000      11.573300000000       9.065800000000
       150    2   0.000000       43.431700000000       5.786650000000       9.065800000000
       151    1   0.000000       45.102150000000       0.964437808900       7.500009418800
       152    1   0.000000       41.761250000000       6.751087808900       7.500009418800
       153    1   0.000000       41.761250000000       0.964437808900      10.631590581200
       154    1   0.000000       43.431700000000       3.857762808900      10.631590581200
       155    1   0.000000       40.090800000000       9.644412808900      10.631590581200
       156    1   0.000000       45.102150000000       6.751087808900      10.631590581200
       157    2   0.000000       41.761250000000       2.893325000000       9.065800000000
       158    2   0.000000       45.102150000000       8.679975000000       9.065800000000
       159    1   0.000000       45.102150000000       0.964437808900      10.631590581200
       160    1   0.000000       41.761250000000       6.751087808900      10.631590581200
       161    1   0.000000       43.431700000000       3.857762808900       7.500009418800
       162    1   0.000000       40.090800000000       9.644412808900       7.500009418800
       163    2   0.000000       43.431700000000      11.573300000000       9.065800000000
       164    2   0.000000       40.090800000000       5.786650000000       9.065800000000
       165    2   0.000000       45.102150000000       2.893325000000       9.065800000000
       166    1   0.000000       41.761250000000       0.964437808900       7.500009418800
       167    2   0.000000       41.761250000000       8.679975000000       9.065800000000
       168    1   0.000000       45.102150000000       6.751087808900       7.500009418800
       169    1   0.000000       46.772600000000       3.857762808900      10.631590581200
       170    1   0.000000       50.113500000000       9.644412808900      10.631590581200
       171    1   0.000000       46.772600000000       3.857762808900       7.500009418800
       172    1   0.000000       50.113500000000       9.644412808900       7.500009418800
       173    2   0.000000       46.772600000000      11.573300000000       9.065800000000
       174    2   0.000000       50.113500000000       5.786650000000       9.065800000000
       175    1   0.000000       51.783950000000       0.964437808900       7.500009418800
       176    1   0.000000       48.443050000000       6.751087808900       7.500009418800
       177    1   0.000000       48.443050000000       0.964437808900      10.631590581200
       178    1   0.000000       50.113500000000       3.857762808900      10.631590581200
       179    1   0.000000       46.772600000000       9.644412808900      10.631590581200
       180    1   0.000000       51.783950000000       6.751087808900      10.631590581200
       181    2   0.000000       48.443050000000       2.893325000000       9.065800000000
       182    2   0.000000       51.783950000000       8.679975000000       9.065800000000
       183    1   0.000000       51.783950000000       0.964437808900      10.631590581200
       184    1   0.000000       48.443050000000       6.751087808900      10.631590581200
       185    1   0.000000       50.113500000000       3.857762808900       7.500009418800
       186    1   0.000000       46.772600000000       9.644412808900       7.500009418800
       187    2   0.000000       50.113500000000      11.573300000000       9.065800000000
       188    2   0.000000       46.772600000000       5.786650000000       9.065800000000
       189    2   0.000000       51.783950000000       2.893325000000       9.065800000000
       190    1   0.000000       48.443050000000       0.964437808900       7.500009418800
       191    2   0.000000       48.443050000000       8.679975000000       9.065800000000
       192    1   0.000000       51.783950000000       6.751087808900       7.500009418800
       193    1   0.000000       53.454400000000       3.857762808900      10.631590581200
       194    1   0.000000       56.795300000000       9.644412808900      10.631590581200
       195    1   0.000000       53.454400000000       3.857762808900       7.500009418800
       196    1   0.000000       56.795300000000       9.644412808900       7.500009418800
       197    2   0.000000       53.454400000000      11.573300000000       9.065800000000
       198    2   0.000000       56.795300000000       5.786650000000       9.065800000000
       199    1   0.000000       58.465750000000       0.964437808900       7.500009418800
       200    1   0.000000       55.124850000000       6.751087808900       7.500009418800
       201    1   0.000000       55.124850000000       0.964437808900      10.631590581200
       202    1   0.000000       56.795300000000       3.857762808900      10.631590581200
       203    1   0.000000       53.454400000000       9.644412808900      10.631590581200
       204    1   0.000000       58.465750000000       6.751087808900      10.631590581200
       205    2   0.000000       55.124850000000       2.893325000000       9.065800000000
       206    2   0.000000       58.465750000000       8.679975000000       9.065800000000
       207    1   0.000000       58.465750000000       0.964437808900      10.631590581200
       208    1   0.000000       55.124850000000       6.751087808900      10.631590581200
       209    1   0.000000       56.795300000000       3.857762808900       7.500009418800
       210    1   0.000000       53.454400000000       9.644412808900       7.500009418800
       211    2   0.000000       56.795300000000      11.573300000000       9.065800000000
       212    2   0.000000       53.454400000000       5.786650000000       9.065800000000
       213    2   0.000000       58.465750000000       2.893325000000       9.065800000000
       214    1   0.000000       55.124850000000       0.964437808900       7.500009418800
       215    2   0.000000       55.124850000000       8.679975000000       9.065800000000
       216    1   0.000000       58.465750000000       6.751087808900       7.500009418800
       217    1   0.000000       60.136200000000       3.857762808900      10.631590581200
       218    1   0.000000       63.477100000000       9.644412808900      10.631590581200
       219    1   0.000000       60.136200000000       3.857762808900       7.500009418800
       220    1   0.000000       63.477100000000       9.644412808900       7.500009418800
       221    2   0.000000       60.136200000000      11.573300000000       9.065800000000
       222    2   0.000000       63.477100000000       5.786650000000       9.065800000000
       223    1   0.000000       65.147550000000       0.964437808900       7.500009418800
       224    1   0.000000       61.806650000000       6.751087808900       7.500009418800
       225    1   0.000000       61.806650000000       0.964437808900      10.631590581200
       226    1   0.000000       63.477100000000       3.857762808900      10.631590581200
       227    1   0.000000       60.136200000000       9.644412808900      10.631590581200
       228    1   0.000000       65.147550000000       6.751087808900      10.631590581200
       229    2   0.000000       61.806650000000       2.893325000000       9.065800000000
       230    2   0.000000       65.147550000000       8.679975000000       9.065800000000
       231    1   0.000000       65.147550000000       0.964437808900      10.631590581200
       232    1   0.000000       61.806650000000       6.751087808900      10.631590581200
       233    1   0.000000       63.477100000000       3.857762808900       7.500009418800
       234    1   0.000000       60.136200000000       9.644412808900       7.500009418800
       235    2   0.000000       63.477100000000      11.573300000000       9.065800000000
       236    2   0.000000       60.136200000000       5.786650000000       9.065800000000
       237    2   0.000000       65.147550000000       2.893325000000       9.065800000000
       238    1   0.000000       61.806650000000       0.964437808900       7.500009418800
       239    2   0.000000       61.806650000000       8.679975000000       9.065800000000
       240    1   0.000000       65.147550000000       6.751087808900       7.500009418800
       241    1   0.000000       66.818000000000       3.857762808900      10.631590581200
       242    1   0.000000       70.158900000000       9.644412808900      10.631590581200
       243    1   0.000000       66.818000000000       3.857762808900       7.500009418800
       244    1   0.000000       70.158900000000       9.644412808900       7.500009418800
       245    2   0.000000       66.818000000000      11.573300000000       9.065800000000
       246    2   0.000000       70.158900000000       5.786650000000       9.065800000000
       247    1   0.000000       71.829350000000       0.964437808900       7.500009418800
       248    1   0.000000       68.488450000000       6.751087808900       7.500009418800
       249    1   0.000000       68.488450000000       0.964437808900      10.631590581200
       250    1   0.000000       70.158900000000       3.857762808900      10.631590581200
       251    1   0.000000       66.818000000000       9.644412808900      10.631590581200
       252    1   0.000000       71.829350000000       6.751087808900      10.631590581200
       253    2   0.000000       68.488450000000       2.893325000000       9.065800000000
       254    2   0.000000       71.829350000000       8.679975000000       9.065800000000
       255    1   0.000000       71.829350000000       0.964437808900      10.631590581200
       256    1   0.000000       68.488450000000       6.751087808900      10.631590581200
       257    1   0.000000       70.158900000000       3.857762808900       7.500009418800
       258    1   0.000000       66.818000000000       9.644412808900       7.500009418800
       259    2   0.000000       70.158900000000      11.573300000000       9.065800000000
       260    2   0.000000       66.818000000000       5.786650000000       9.065800000000
       261    2   0.000000       71.829350000000       2.893325000000       9.065800000000
       262    1   0.000000       68.488450000000       0.964437808900       7.500009418800
       263    2   0.000000       68.488450000000       8.679975000000       9.065800000000
       264    1   0.000000       71.829350000000       6.751087808900       7.500009418800
       265    1   0.000000       73.499800000000       3.857762808900      10.631590581200
       266    1   0.000000       76.840700000000       9.644412808900      10.631590581200
       267    1   0.000000       73.499800000000       3.857762808900       7.500009418800
       268    1   0.000000       76.840700000000       9.644412808900       7.500009418800
       269    2   0.000000       73.499800000000      11.573300000000       9.065800000000
       270    2   0.000000       76.840700000000       5.786650000000       9.065800000000
       271    1   0.000000       78.511150000000       0.964437808900       7.500009418800
       272    1   0.000000       75.170250000000       6.751087808900       7.500009418800
       273    1   0.000000       75.170250000000       0.964437808900      10.631590581200
       274    1   0.000000       76.840700000000       3.857762808900      10.631590581200
       275    1   0.000000       73.499800000000       9.644412808900      10.631590581200
       276    1   0.000000       78.511150000000       6.751087808900      10.631590581200
       277    2   0.000000       75.170250000000       2.893325000000       9.065800000000
       278    2   0.000000       78.511150000000       8.679975000000       9.065800000000
       279    1   0.000000       78.511150000000       0.964437808900      10.631590581200
       280    1   0.000000       75.170250000000       6.751087808900      10.631590581200
       281    1   0.000000       76.840700000000       3.857762808900       7.500009418800
       282    1   0.000000       73.499800000000       9.644412808900       7.500009418800
       283    2   0.000000       76.840700000000      11.573300000000       9.065800000000
       284    2   0.000000       73.499800000000       5.786650000000       9.065800000000
       285    2   0.000000       78.511150000000       2.893325000000       9.065800000000
       286    1   0.000000       75.170250000000       0.964437808900       7.500009418800
       287    2   0.000000       75.170250000000       8.679975000000       9.065800000000
       288    1   0.000000       78.511150000000       6.751087808900       7.500009418800
       289    1   0.000000       80.181600000000       3.857762808900      10.631590581200
       290    1   0.000000       83.522500000000       9.644412808900      10.631590581200
       291    1   0.000000       80.181600000000       3.857762808900       7.500009418800
       292    1   0.000000       83.522500000000       9.644412808900       7.500009418800
       293    2   0.000000       80.181600000000      11.573300000000       9.065800000000
       294    2   0.000000       83.522500000000       5.786650000000       9.065800000000
       295    1   0.000000       85.192950000000       0.964437808900       7.500009418800
       296    1   0.000000       81.852050000000       6.751087808900       7.500009418800
       297    1   0.000000       81.852050000000       0.964437808900      10.631590581200
       298    1   0.000000       83.522500000000       3.857762808900      10.631590581200
       299    1   0.000000       80.181600000000       9.644412808900      10.631590581200
       300    1   0.000000       85.192950000000       6.751087808900      10.631590581200
       301    2   0.000000       81.852050000000       2.893325000000       9.065800000000
       302    2   0.000000       85.192950000000       8.679975000000       9.065800000000
       303    1   0.000000       85.192950000000       0.964437808900      10.631590581200
       304    1   0.000000       81.852050000000       6.751087808900      10.631590581200
       305    1   0.000000       83.522500000000       3.857762808900       7.500009418800
       306    1   0.000000       80.181600000000       9.644412808900       7.500009418800
       307    2   0.000000       83.522500000000      11.573300000000       9.065800000000
       308    2   0.000000       80.181600000000       5.786650000000       9.065800000000
       309    2   0.000000       85.192950000000       2.893325000000       9.065800000000
       310    1   0.000000       81.852050000000       0.964437808900       7.500009418800
       311    2   0.000000       81.852050000000       8.679975000000       9.065800000000
       312    1   0.000000       85.192950000000       6.751087808900       7.500009418800
       313    1   0.000000       86.863400000000       3.857762808900      10.631590581200
       314    1   0.000000       90.204300000000       9.644412808900      10.631590581200
       315    1   0.000000       86.863400000000       3.857762808900       7.500009418800
       316    1   0.000000       90.204300000000       9.644412808900       7.500009418800
       317    2   0.000000       86.863400000000      11.573300000000       9.065800000000
       318    2   0.000000       90.204300000000       5.786650000000       9.065800000000
       319    1   0.000000       91.874750000000       0.964437808900       7.500009418800
       320    1   0.000000       88.533850000000       6.751087808900       7.500009418800
       321    1   0.000000       88.533850000000       0.964437808900      10.631590581200
       322    1   0.000000       90.204300000000       3.857762808900      10.631590581200
       323    1   0.000000       86.863400000000       9.644412808900      10.631590581200
       324    1   0.000000       91.874750000000       6.751087808900      10.631590581200
       325    2   0.000000       88.533850000000       2.893325000000       9.065800000000
       326    2   0.000000       91.874750000000       8.679975000000       9.065800000000