 # Te16 Ti8
  
        2496  atoms
           2  atom types
 
      0.000000000000      97.156800000000  xlo xhi
      0.000000000000     103.556800000000  ylo yhi
      0.000000000000      18.567000000000  zlo zhi
 
Masses
 
            1   127.60000000            # Te
            2   47.86700000             # Ti
 
Atoms # charge
 
         1    1   0.000000        7.473600000000       4.314862351800      11.072040543000
         2    1   0.000000        3.736800000000       4.314862351800      11.072040543000
         3    1   0.000000        7.473600000000      10.787162351800      11.072040543000
         4    2   0.000000        5.605200000000       3.236150000000       9.283500000000
         5    1   0.000000        3.736800000000      10.787162351800      11.072040543000
         6    2   0.000000        1.868400000000       3.236150000000       9.283500000000
         7    2   0.000000        1.868400000000       9.708450000000       9.283500000000
         8    2   0.000000        3.736800000000       0.000000000000       9.283500000000
         9    1   0.000000        5.605200000000       1.078712351800       7.494959457000
        10    2   0.000000        5.605200000000       9.708450000000       9.283500000000
        11    2   0.000000        7.473600000000       6.472300000000       9.283500000000
        12    1   0.000000        1.868400000000       7.551012351800       7.494959457000
        13    2   0.000000        7.473600000000       0.000000000000       9.283500000000
        14    2   0.000000        3.736800000000       6.472300000000       9.283500000000
        15    1   0.000000        3.736800000000       4.314862351800       7.494959457000
        16    1   0.000000        0.000000000000      10.787162351800       7.494959457000
        17    1   0.000000        7.473600000000       4.314862351800       7.494959457000
        18    1   0.000000        3.736800000000      10.787162351800       7.494959457000
        19    1   0.000000        1.868400000000       1.078712351800       7.494959457000
        20    1   0.000000        5.605200000000       1.078712351800      11.072040543000
        21    1   0.000000        5.605200000000       7.551012351800       7.494959457000
        22    1   0.000000        1.868400000000       7.551012351800      11.072040543000
        23    1   0.000000        1.868400000000       1.078712351800      11.072040543000
        24    1   0.000000        5.605200000000       7.551012351800      11.072040543000
        25    1   0.000000       14.947200000000       4.314862351800      11.072040543000
        26    1   0.000000       11.210400000000       4.314862351800      11.072040543000
        27    1   0.000000       14.947200000000      10.787162351800      11.072040543000
        28    2   0.000000       13.078800000000       3.236150000000       9.283500000000
        29    1   0.000000       11.210400000000      10.787162351800      11.072040543000
        30    2   0.000000        9.342000000000       3.236150000000       9.283500000000
        31    2   0.000000        9.342000000000       9.708450000000       9.283500000000
        32    2   0.000000       11.210400000000       0.000000000000       9.283500000000
        33    1   0.000000       13.078800000000       1.078712351800       7.494959457000
        34    2   0.000000       13.078800000000       9.708450000000       9.283500000000
        35    2   0.000000       14.947200000000       6.472300000000       9.283500000000
        36    1   0.000000        9.342000000000       7.551012351800       7.494959457000
        37    2   0.000000       14.947200000000       0.000000000000       9.283500000000
        38    2   0.000000       11.210400000000       6.472300000000       9.283500000000
        39    1   0.000000       11.210400000000       4.314862351800       7.494959457000
        40    1   0.000000        7.473600000000      10.787162351800       7.494959457000
        41    1   0.000000       14.947200000000       4.314862351800       7.494959457000
        42    1   0.000000       11.210400000000      10.787162351800       7.494959457000
        43    1   0.000000        9.342000000000       1.078712351800       7.494959457000
        44    1   0.000000       13.078800000000       1.078712351800      11.072040543000
        45    1   0.000000       13.078800000000       7.551012351800       7.494959457000
        46    1   0.000000        9.342000000000       7.551012351800      11.072040543000
        47    1   0.000000        9.342000000000       1.078712351800      11.072040543000
        48    1   0.000000       13.078800000000       7.551012351800      11.072040543000
        49    1   0.000000       22.420800000000       4.314862351800      11.072040543000
        50    1   0.000000       18.684000000000       4.314862351800      11.072040543000
        51    1   0.000000       22.420800000000      10.787162351800      11.072040543000
        52    2   0.000000       20.552400000000       3.236150000000       9.283500000000
        53    1   0.000000       18.684000000000      10.787162351800      11.072040543000
        54    2   0.000000       16.815600000000       3.236150000000       9.283500000000
        55    2   0.000000       16.815600000000       9.708450000000       9.283500000000
        56    2   0.000000       18.684000000000       0.000000000000       9.283500000000
        57    1   0.000000       20.552400000000       1.078712351800       7.494959457000
        58    2   0.000000       20.552400000000       9.708450000000       9.283500000000
        59    2   0.000000       22.420800000000       6.472300000000       9.283500000000
        60    1   0.000000       16.815600000000       7.551012351800       7.494959457000
        61    2   0.000000       22.420800000000       0.000000000000       9.283500000000
        62    2   0.000000       18.684000000000       6.472300000000       9.283500000000
        63    1   0.000000       18.684000000000       4.314862351800       7.494959457000
        64    1   0.000000       14.947200000000      10.787162351800       7.494959457000
        65    1   0.000000       22.420800000000       4.314862351800       7.494959457000
        66    1   0.000000       18.684000000000      10.787162351800       7.494959457000
        67    1   0.000000       16.815600000000       1.078712351800       7.494959457000
        68    1   0.000000       20.552400000000       1.078712351800      11.072040543000
        69    1   0.000000       20.552400000000       7.551012351800       7.494959457000
        70    1   0.000000       16.815600000000       7.551012351800      11.072040543000
        71    1   0.000000       16.815600000000       1.078712351800      11.072040543000
        72    1   0.000000       20.552400000000       7.551012351800      11.072040543000
        73    1   0.000000       29.894400000000       4.314862351800      11.072040543000
        74    1   0.000000       26.157600000000       4.314862351800      11.072040543000
        75    1   0.000000       29.894400000000      10.787162351800      11.072040543000
        76    2   0.000000       28.026000000000       3.236150000000       9.283500000000
        77    1   0.000000       26.157600000000      10.787162351800      11.072040543000
        78    2   0.000000       24.289200000000       3.236150000000       9.283500000000
        79    2   0.000000       24.289200000000       9.708450000000       9.283500000000
        80    2   0.000000       26.157600000000       0.000000000000       9.283500000000
        81    1   0.000000       28.026000000000       1.078712351800       7.494959457000
        82    2   0.000000       28.026000000000       9.708450000000       9.283500000000
        83    2   0.000000       29.894400000000       6.472300000000       9.283500000000
        84    1   0.000000       24.289200000000       7.551012351800       7.494959457000
        85    2   0.000000       29.894400000000       0.000000000000       9.283500000000
        86    2   0.000000       26.157600000000       6.472300000000       9.283500000000
        87    1   0.000000       26.157600000000       4.314862351800       7.494959457000
        88    1   0.000000       22.420800000000      10.787162351800       7.494959457000
        89    1   0.000000       29.894400000000       4.314862351800       7.494959457000
        90    1   0.000000       26.157600000000      10.787162351800       7.494959457000
        91    1   0.000000       24.289200000000       1.078712351800       7.494959457000
        92    1   0.000000       28.026000000000       1.078712351800      11.072040543000
        93    1   0.000000       28.026000000000       7.551012351800       7.494959457000
        94    1   0.000000       24.289200000000       7.551012351800      11.072040543000
        95    1   0.000000       24.289200000000       1.078712351800      11.072040543000
        96    1   0.000000       28.026000000000       7.551012351800      11.072040543000
        97    1   0.000000       37.368000000000       4.314862351800      11.072040543000
        98    1   0.000000       33.631200000000       4.314862351800      11.072040543000
        99    1   0.000000       37.368000000000      10.787162351800      11.072040543000
       100    2   0.000000       35.499600000000       3.236150000000       9.283500000000
       101    1   0.000000       33.631200000000      10.787162351800      11.072040543000
       102    2   0.000000       31.762800000000       3.236150000000       9.283500000000
       103    2   0.000000       31.762800000000       9.708450000000       9.283500000000
       104    2   0.000000       33.631200000000       0.000000000000       9.283500000000
       105    1   0.000000       35.499600000000       1.078712351800       7.494959457000
       106    2   0.000000       35.499600000000       9.708450000000       9.283500000000
       107    2   0.000000       37.368000000000       6.472300000000       9.283500000000
       108    1   0.000000       31.762800000000       7.551012351800       7.494959457000
       109    2   0.000000       37.368000000000       0.000000000000       9.283500000000
       110    2   0.000000       33.631200000000       6.472300000000       9.283500000000
       111    1   0.000000       33.631200000000       4.314862351800       7.494959457000
       112    1   0.000000       29.894400000000      10.787162351800       7.494959457000
       113    1   0.000000       37.368000000000       4.314862351800       7.494959457000
       114    1   0.000000       33.631200000000      10.787162351800       7.494959457000
       115    1   0.000000       31.762800000000       1.078712351800       7.494959457000
       116    1   0.000000       35.499600000000       1.078712351800      11.072040543000
       117    1   0.000000       35.499600000000       7.551012351800       7.494959457000
       118    1   0.000000       31.762800000000       7.551012351800      11.072040543000
       119    1   0.000000       31.762800000000       1.078712351800      11.072040543000
       120    1   0.000000       35.499600000000       7.551012351800      11.072040543000
       121    1   0.000000       44.841600000000       4.314862351800      11.072040543000
       122    1   0.000000       41.104800000000       4.314862351800      11.072040543000
       123    1   0.000000       44.841600000000      10.787162351800      11.072040543000
       124    2   0.000000       42.973200000000       3.236150000000       9.283500000000
       125    1   0.000000       41.104800000000      10.787162351800      11.072040543000
       126    2   0.000000       39.236400000000       3.236150000000       9.283500000000
       127    2   0.000000       39.236400000000       9.708450000000       9.283500000000
       128    2   0.000000       41.104800000000       0.000000000000       9.283500000000
       129    1   0.000000       42.973200000000       1.078712351800       7.494959457000
       130    2   0.000000       42.973200000000       9.708450000000       9.283500000000
       131    2   0.000000       44.841600000000       6.472300000000       9.283500000000
       132    1   0.000000       39.236400000000       7.551012351800       7.494959457000
       133    2   0.000000       44.841600000000       0.000000000000       9.283500000000
       134    2   0.000000       41.104800000000       6.472300000000       9.283500000000
       135    1   0.000000       41.104800000000       4.314862351800       7.494959457000
       136    1   0.000000       37.368000000000      10.787162351800       7.494959457000
       137    1   0.000000       44.841600000000       4.314862351800       7.494959457000
       138    1   0.000000       41.104800000000      10.787162351800       7.494959457000
       139    1   0.000000       39.236400000000       1.078712351800       7.494959457000
       140    1   0.000000       42.973200000000       1.078712351800      11.072040543000
       141    1   0.000000       42.973200000000       7.551012351800       7.494959457000
       142    1   0.000000       39.236400000000       7.551012351800      11.072040543000
       143    1   0.000000       39.236400000000       1.078712351800      11.072040543000
       144    1   0.000000       42.973200000000       7.551012351800      11.072040543000
       145    1   0.000000       52.315200000000       4.314862351800      11.072040543000
       146    1   0.000000       48.578400000000       4.314862351800      11.072040543000
       147    1   0.000000       52.315200000000      10.787162351800      11.072040543000
       148    2   0.000000       50.446800000000       3.236150000000       9.283500000000
       149    1   0.000000       48.578400000000      10.787162351800      11.072040543000
       150    2   0.000000       46.710000000000       3.236150000000       9.283500000000
       151    2   0.000000       46.710000000000       9.708450000000       9.283500000000
       152    2   0.000000       48.578400000000       0.000000000000       9.283500000000
       153    1   0.000000       50.446800000000       1.078712351800       7.494959457000
       154    2   0.000000       50.446800000000       9.708450000000       9.283500000000
       155    2   0.000000       52.315200000000       6.472300000000       9.283500000000
       156    1   0.000000       46.710000000000       7.551012351800       7.494959457000
       157    2   0.000000       52.315200000000       0.000000000000       9.283500000000
       158    2   0.000000       48.578400000000       6.472300000000       9.283500000000
       159    1   0.000000       48.578400000000       4.314862351800       7.494959457000
       160    1   0.000000       44.841600000000      10.787162351800       7.494959457000
       161    1   0.000000       52.315200000000       4.314862351800       7.494959457000
       162    1   0.000000       48.578400000000      10.787162351800       7.494959457000
       163    1   0.000000       46.710000000000       1.078712351800       7.494959457000
       164    1   0.000000       50.446800000000       1.078712351800      11.072040543000
       165    1   0.000000       50.446800000000       7.551012351800       7.494959457000
       166    1   0.000000       46.710000000000       7.551012351800      11.072040543000
       167    1   0.000000       46.710000000000       1.078712351800      11.072040543000
       168    1   0.000000       50.446800000000       7.551012351800      11.072040543000
       169    1   0.000000       59.788800000000       4.314862351800      11.072040543000
       170    1   0.000000       56.052000000000       4.314862351800      11.072040543000
       171    1   0.000000       59.788800000000      10.787162351800      11.072040543000
       172    2   0.000000       57.920400000000       3.236150000000       9.283500000000
       173    1   0.000000       56.052000000000      10.787162351800      11.072040543000
       174    2   0.000000       54.183600000000       3.236150000000       9.283500000000
       175    2   0.000000       54.183600000000       9.708450000000       9.283500000000
       176    2   0.000000       56.052000000000       0.000000000000       9.283500000000
       177    1   0.000000       57.920400000000       1.078712351800       7.494959457000
       178    2   0.000000       57.920400000000       9.708450000000       9.283500000000
       179    2   0.000000       59.788800000000       6.472300000000       9.283500000000
       180    1   0.000000       54.183600000000       7.551012351800       7.494959457000
       181    2   0.000000       59.788800000000       0.000000000000       9.283500000000
       182    2   0.000000       56.052000000000       6.472300000000       9.283500000000
       183    1   0.000000       56.052000000000       4.314862351800       7.494959457000
       184    1   0.000000       52.315200000000      10.787162351800       7.494959457000
       185    1   0.000000       59.788800000000       4.314862351800       7.494959457000
       186    1   0.000000       56.052000000000      10.787162351800       7.494959457000
       187    1   0.000000       54.183600000000       1.078712351800       7.494959457000
       188    1   0.000000       57.920400000000       1.078712351800      11.072040543000
       189    1   0.000000       57.920400000000       7.551012351800       7.494959457000
       190    1   0.000000       54.183600000000       7.551012351800      11.072040543000
       191    1   0.000000       54.183600000000       1.078712351800      11.072040543000
       192    1   0.000000       57.920400000000       7.551012351800      11.072040543000
       193    1   0.000000       67.262400000000       4.314862351800      11.072040543000
       194    1   0.000000       63.525600000000       4.314862351800      11.072040543000
       195    1   0.000000       67.262400000000      10.787162351800      11.072040543000
       196    2   0.000000       65.394000000000       3.236150000000       9.283500000000
       197    1   0.000000       63.525600000000      10.787162351800      11.072040543000
       198    2   0.000000       61.657200000000       3.236150000000       9.283500000000
       199    2   0.000000       61.657200000000       9.708450000000       9.283500000000
       200    2   0.000000       63.525600000000       0.000000000000       9.283500000000
       201    1   0.000000       65.394000000000       1.078712351800       7.494959457000
       202    2   0.000000       65.394000000000       9.708450000000       9.283500000000
       203    2   0.000000       67.262400000000       6.472300000000       9.283500000000
       204    1   0.000000       61.657200000000       7.551012351800       7.494959457000
       205    2   0.000000       67.262400000000       0.000000000000       9.283500000000
       206    2   0.000000       63.525600000000       6.472300000000       9.283500000000
       207    1   0.000000       63.525600000000       4.314862351800       7.494959457000
       208    1   0.000000       59.788800000000      10.787162351800       7.494959457000
       209    1   0.000000       67.262400000000       4.314862351800       7.494959457000
       210    1   0.000000       63.525600000000      10.787162351800       7.494959457000
       211    1   0.000000       61.657200000000       1.078712351800       7.494959457000
       212    1   0.000000       65.394000000000       1.078712351800      11.072040543000
       213    1   0.000000       65.394000000000       7.551012351800       7.494959457000
       214    1   0.000000       61.657200000000       7.551012351800      11.072040543000
       215    1   0.000000       61.657200000000       1.078712351800      11.072040543000
       216    1   0.000000       65.394000000000       7.551012351800      11.072040543000
       217    1   0.000000       74.736000000000       4.314862351800      11.072040543000
       218    1   0.000000       70.999200000000       4.314862351800      11.072040543000
       219    1   0.000000       74.736000000000      10.787162351800      11.072040543000
       220    2   0.000000       72.867600000000       3.236150000000       9.283500000000
       221    1   0.000000       70.999200000000      10.787162351800      11.072040543000
       222    2   0.000000       69.130800000000       3.236150000000       9.283500000000
       223    2   0.000000       69.130800000000       9.708450000000       9.283500000000
       224    2   0.000000       70.999200000000       0.000000000000       9.283500000000
       225    1   0.000000       72.867600000000       1.078712351800       7.494959457000
       226    2   0.000000       72.867600000000       9.708450000000       9.283500000000
       227    2   0.000000       74.736000000000       6.472300000000       9.283500000000
       228    1   0.000000       69.130800000000       7.551012351800       7.494959457000
       229    2   0.000000       74.736000000000       0.000000000000       9.283500000000
       230    2   0.000000       70.999200000000       6.472300000000       9.283500000000
       231    1   0.000000       70.999200000000       4.314862351800       7.494959457000
       232    1   0.000000       67.262400000000      10.787162351800       7.494959457000
       233    1   0.000000       74.736000000000       4.314862351800       7.494959457000
       234    1   0.000000       70.999200000000      10.787162351800       7.494959457000
       235    1   0.000000       69.130800000000       1.078712351800       7.494959457000
       236    1   0.000000       72.867600000000       1.078712351800      11.072040543000
       237    1   0.000000       72.867600000000       7.551012351800       7.494959457000
       238    1   0.000000       69.130800000000       7.551012351800      11.072040543000
       239    1   0.000000       69.130800000000       1.078712351800      11.072040543000
       240    1   0.000000       72.867600000000       7.551012351800      11.072040543000
       241    1   0.000000       82.209600000000       4.314862351800      11.072040543000
       242    1   0.000000       78.472800000000       4.314862351800      11.072040543000
       243    1   0.000000       82.209600000000      10.787162351800      11.072040543000
       244    2   0.000000       80.341200000000       3.236150000000       9.283500000000
       245    1   0.000000       78.472800000000      10.787162351800      11.072040543000
       246    2   0.000000       76.604400000000       3.236150000000       9.283500000000
       247    2   0.000000       76.604400000000       9.708450000000       9.283500000000
       248    2   0.000000       78.472800000000       0.000000000000       9.283500000000
       249    1   0.000000       80.341200000000       1.078712351800       7.494959457000
       250    2   0.000000       80.341200000000       9.708450000000       9.283500000000
       251    2   0.000000       82.209600000000       6.472300000000       9.283500000000
       252    1   0.000000       76.604400000000       7.551012351800       7.494959457000
       253    2   0.000000       82.209600000000       0.000000000000       9.283500000000
       254    2   0.000000       78.472800000000       6.472300000000       9.283500000000
       255    1   0.000000       78.472800000000       4.314862351800       7.494959457000
       256    1   0.000000       74.736000000000      10.787162351800       7.494959457000
       257    1   0.000000       82.209600000000       4.314862351800       7.494959457000
       258    1   0.000000       78.472800000000      10.787162351800       7.494959457000
       259    1   0.000000       76.604400000000       1.078712351800       7.494959457000
       260    1   0.000000       80.341200000000       1.078712351800      11.072040543000
       261    1   0.000000       80.341200000000       7.551012351800       7.494959457000
       262    1   0.000000       76.604400000000       7.551012351800      11.072040543000
       263    1   0.000000       76.604400000000       1.078712351800      11.072040543000
       264    1   0.000000       80.341200000000       7.551012351800      11.072040543000
       265    1   0.000000       89.683200000000       4.314862351800      11.072040543000
       266    1   0.000000       85.946400000000       4.314862351800      11.072040543000
       267    1   0.000000       89.683200000000      10.787162351800      11.072040543000
       268    2   0.000000       87.814800000000       3.236150000000       9.283500000000
       269    1   0.000000       85.946400000000      10.787162351800      11.072040543000
       270    2   0.000000       84.078000000000       3.236150000000       9.283500000000
       271    2   0.000000       84.078000000000       9.708450000000       9.283500000000
       272    2   0.000000       85.946400000000       0.000000000000       9.283500000000
       273    1   0.000000       87.814800000000       1.078712351800       7.494959457000
       274    2   0.000000       87.814800000000       9.708450000000       9.283500000000
       275    2   0.000000       89.683200000000       6.472300000000       9.283500000000
       276    1   0.000000       84.078000000000       7.551012351800       7.494959457000
       277    2   0.000000       89.683200000000       0.000000000000       9.283500000000
       278    2   0.000000       85.946400000000       6.472300000000       9.283500000000
       279    1   0.000000       85.946400000000       4.314862351800       7.494959457000
       280    1   0.000000       82.209600000000      10.787162351800       7.494959457000
       281    1   0.000000       89.683200000000       4.314862351800       7.494959457000
       282    1   0.000000       85.946400000000      10.787162351800       7.494959457000
       283    1   0.000000       84.078000000000       1.078712351800       7.494959457000
       284    1   0.000000       87.814800000000       1.078712351800      11.072040543000
       285    1   0.000000       87.814800000000       7.551012351800       7.494959457000
       286    1   0.000000       84.078000000000       7.551012351800      11.072040543000
       287    1   0.000000       84.078000000000       1.078712351800      11.072040543000
       288    1   0.000000       87.814800000000       7.551012351800      11.072040543000
       289    1   0.000000       97.156800000000       4.314862351800      11.072040543000
       290    1   0.000000       93.420000000000       4.314862351800      11.072040543000
       291    1   0.000000       97.156800000000      10.787162351800      11.072040543000
       292    2   0.000000       95.288400000000       3.236150000000       9.283500000000
       293    1   0.000000       93.420000000000      10.787162351800      11.072040543000
       294    2   0.000000       91.551600000000       3.236150000000       9.283500000000
       295    2   0.000000       91.551600000000       9.708450000000       9.283500000000
       296    2   0.000000       93.420000000000       0.000000000000       9.283500000000
       297    1   0.000000       95.288400000000       1.078712351800       7.494959457000
       298    2   0.000000       95.288400000000       9.708450000000       9.283500000000
       299    2   0.000000       97.156800000000       6.472300000000       9.283500000000
       300    1   0.000000       91.551600000000       7.551012351800       7.494959457000
       301    2   0.000000       97.156800000000       0.000000000000       9.283500000000
       302    2   0.000000       93.420000000000       6.472300000000       9.283500000000
       303    1   0.000000       93.420000000000       4.314862351800       7.494959457000
       304    1   0.000000       89.683200000000      10.787162351800       7.494959457000
       305    1   0.000000       97.156800000000       4.314862351800       7.494959457000
       306    1   0.000000       93.420000000000      10.787162351800       7.494959457000
       307    1   0.000000       91.551600000000       1.078712351800       7.494959457000
       308    1   0.000000       95.288400000000       1.078712351800      11.072040543000
       309    1   0.000000       95.288400000000       7.551012351800       7.494959457000
       310    1   0.000000       91.551600000000       7.551012351800      11.072040543000
       311    1   0.000000       91.551600000000       1.078712351800      11.072040543000
       312    1   0.000000       95.288400000000       7.551012351800      11.072040543000
       313    1   0.000000        7.473600000000      17.259462351800      11.072040543000
       314    1   0.000000        3.736800000000      17.259462351800      11.072040543000
       315    1   0.000000        7.473600000000      23.731762351800      11.072040543000
       316    2   0.000000        5.605200000000      16.180750000000       9.283500000000
       317    1   0.000000        3.736800000000      23.731762351800      11.072040543000
       318    2   0.000000        1.868400000000      16.180750000000       9.283500000000
       319    2   0.000000        1.868400000000      22.653050000000       9.283500000000
       320    2   0.000000        3.736800000000      12.944600000000       9.283500000000
       321    1   0.000000        5.605200000000      14.023312351800       7.494959457000
       322    2   0.000000        5.605200000000      22.653050000000       9.283500000000
       323    2   0.000000        7.473600000000      19.416900000000       9.283500000000
       324    1   0.000000        1.868400000000      20.495612351800       7.494959457000
       325    2   0.000000        7.473600000000      12.944600000000       9.283500000000