 # V8 Se16
  
        3240  atoms
           2  atom types
 
      0.000000000000     100.303500000000  xlo xhi
      0.000000000000     104.238000000000  ylo yhi
      0.000000000000      18.197200000000  zlo zhi
 
Masses
 
            1   50.94150000             # V
            2   78.96000000             # Se
 
Atoms # atomic
 
         1    1        5.015175000000       2.895500000000       9.098600000000
         2    1        1.671725000000       8.686500000000       9.098600000000
         3    2        5.015175000000       0.965162806000       7.496736878400
         4    1        3.343450000000       0.000000000000       9.098600000000
         5    2        1.671725000000       6.756162806000       7.496736878400
         6    2        3.343450000000       3.860662806000       7.496736878400
         7    1        6.686900000000       5.791000000000       9.098600000000
         8    2        6.686900000000       9.651662806000       7.496736878400
         9    2        3.343450000000       3.860662806000      10.700463121600
        10    2        0.000000000000       9.651662806000      10.700463121600
        11    1        0.000000000000       0.000000000000       9.098600000000
        12    1        3.343450000000       5.791000000000       9.098600000000
        13    2        1.671725000000       0.965162806000      10.700463121600
        14    2        5.015175000000       6.756162806000      10.700463121600
        15    2        1.671725000000       0.965162806000       7.496736878400
        16    2        5.015175000000       6.756162806000       7.496736878400
        17    2        6.686900000000       3.860662806000       7.496736878400
        18    2        3.343450000000       9.651662806000       7.496736878400
        19    2        5.015175000000       0.965162806000      10.700463121600
        20    2        0.000000000000       3.860662806000      10.700463121600
        21    2        1.671725000000       6.756162806000      10.700463121600
        22    1        1.671725000000       2.895500000000       9.098600000000
        23    2        3.343450000000       9.651662806000      10.700463121600
        24    1        5.015175000000       8.686500000000       9.098600000000
        25    1       11.702075000000       2.895500000000       9.098600000000
        26    1        8.358625000000       8.686500000000       9.098600000000
        27    2       11.702075000000       0.965162806000       7.496736878400
        28    1       10.030350000000       0.000000000000       9.098600000000
        29    2        8.358625000000       6.756162806000       7.496736878400
        30    2       10.030350000000       3.860662806000       7.496736878400
        31    1       13.373800000000       5.791000000000       9.098600000000
        32    2       13.373800000000       9.651662806000       7.496736878400
        33    2       10.030350000000       3.860662806000      10.700463121600
        34    2        6.686900000000       9.651662806000      10.700463121600
        35    1        6.686900000000       0.000000000000       9.098600000000
        36    1       10.030350000000       5.791000000000       9.098600000000
        37    2        8.358625000000       0.965162806000      10.700463121600
        38    2       11.702075000000       6.756162806000      10.700463121600
        39    2        8.358625000000       0.965162806000       7.496736878400
        40    2       11.702075000000       6.756162806000       7.496736878400
        41    2       13.373800000000       3.860662806000       7.496736878400
        42    2       10.030350000000       9.651662806000       7.496736878400
        43    2       11.702075000000       0.965162806000      10.700463121600
        44    2        6.686900000000       3.860662806000      10.700463121600
        45    2        8.358625000000       6.756162806000      10.700463121600
        46    1        8.358625000000       2.895500000000       9.098600000000
        47    2       10.030350000000       9.651662806000      10.700463121600
        48    1       11.702075000000       8.686500000000       9.098600000000
        49    1       18.388975000000       2.895500000000       9.098600000000
        50    1       15.045525000000       8.686500000000       9.098600000000
        51    2       18.388975000000       0.965162806000       7.496736878400
        52    1       16.717250000000       0.000000000000       9.098600000000
        53    2       15.045525000000       6.756162806000       7.496736878400
        54    2       16.717250000000       3.860662806000       7.496736878400
        55    1       20.060700000000       5.791000000000       9.098600000000
        56    2       20.060700000000       9.651662806000       7.496736878400
        57    2       16.717250000000       3.860662806000      10.700463121600
        58    2       13.373800000000       9.651662806000      10.700463121600
        59    1       13.373800000000       0.000000000000       9.098600000000
        60    1       16.717250000000       5.791000000000       9.098600000000
        61    2       15.045525000000       0.965162806000      10.700463121600
        62    2       18.388975000000       6.756162806000      10.700463121600
        63    2       15.045525000000       0.965162806000       7.496736878400
        64    2       18.388975000000       6.756162806000       7.496736878400
        65    2       20.060700000000       3.860662806000       7.496736878400
        66    2       16.717250000000       9.651662806000       7.496736878400
        67    2       18.388975000000       0.965162806000      10.700463121600
        68    2       13.373800000000       3.860662806000      10.700463121600
        69    2       15.045525000000       6.756162806000      10.700463121600
        70    1       15.045525000000       2.895500000000       9.098600000000
        71    2       16.717250000000       9.651662806000      10.700463121600
        72    1       18.388975000000       8.686500000000       9.098600000000
        73    1       25.075875000000       2.895500000000       9.098600000000
        74    1       21.732425000000       8.686500000000       9.098600000000
        75    2       25.075875000000       0.965162806000       7.496736878400
        76    1       23.404150000000       0.000000000000       9.098600000000
        77    2       21.732425000000       6.756162806000       7.496736878400
        78    2       23.404150000000       3.860662806000       7.496736878400
        79    1       26.747600000000       5.791000000000       9.098600000000
        80    2       26.747600000000       9.651662806000       7.496736878400
        81    2       23.404150000000       3.860662806000      10.700463121600
        82    2       20.060700000000       9.651662806000      10.700463121600
        83    1       20.060700000000       0.000000000000       9.098600000000
        84    1       23.404150000000       5.791000000000       9.098600000000
        85    2       21.732425000000       0.965162806000      10.700463121600
        86    2       25.075875000000       6.756162806000      10.700463121600
        87    2       21.732425000000       0.965162806000       7.496736878400
        88    2       25.075875000000       6.756162806000       7.496736878400
        89    2       26.747600000000       3.860662806000       7.496736878400
        90    2       23.404150000000       9.651662806000       7.496736878400
        91    2       25.075875000000       0.965162806000      10.700463121600
        92    2       20.060700000000       3.860662806000      10.700463121600
        93    2       21.732425000000       6.756162806000      10.700463121600
        94    1       21.732425000000       2.895500000000       9.098600000000
        95    2       23.404150000000       9.651662806000      10.700463121600
        96    1       25.075875000000       8.686500000000       9.098600000000
        97    1       31.762775000000       2.895500000000       9.098600000000
        98    1       28.419325000000       8.686500000000       9.098600000000
        99    2       31.762775000000       0.965162806000       7.496736878400
       100    1       30.091050000000       0.000000000000       9.098600000000
       101    2       28.419325000000       6.756162806000       7.496736878400
       102    2       30.091050000000       3.860662806000       7.496736878400
       103    1       33.434500000000       5.791000000000       9.098600000000
       104    2       33.434500000000       9.651662806000       7.496736878400
       105    2       30.091050000000       3.860662806000      10.700463121600
       106    2       26.747600000000       9.651662806000      10.700463121600
       107    1       26.747600000000       0.000000000000       9.098600000000
       108    1       30.091050000000       5.791000000000       9.098600000000
       109    2       28.419325000000       0.965162806000      10.700463121600
       110    2       31.762775000000       6.756162806000      10.700463121600
       111    2       28.419325000000       0.965162806000       7.496736878400
       112    2       31.762775000000       6.756162806000       7.496736878400
       113    2       33.434500000000       3.860662806000       7.496736878400
       114    2       30.091050000000       9.651662806000       7.496736878400
       115    2       31.762775000000       0.965162806000      10.700463121600
       116    2       26.747600000000       3.860662806000      10.700463121600
       117    2       28.419325000000       6.756162806000      10.700463121600
       118    1       28.419325000000       2.895500000000       9.098600000000
       119    2       30.091050000000       9.651662806000      10.700463121600
       120    1       31.762775000000       8.686500000000       9.098600000000
       121    1       38.449675000000       2.895500000000       9.098600000000
       122    1       35.106225000000       8.686500000000       9.098600000000
       123    2       38.449675000000       0.965162806000       7.496736878400
       124    1       36.777950000000       0.000000000000       9.098600000000
       125    2       35.106225000000       6.756162806000       7.496736878400
       126    2       36.777950000000       3.860662806000       7.496736878400
       127    1       40.121400000000       5.791000000000       9.098600000000
       128    2       40.121400000000       9.651662806000       7.496736878400
       129    2       36.777950000000       3.860662806000      10.700463121600
       130    2       33.434500000000       9.651662806000      10.700463121600
       131    1       33.434500000000       0.000000000000       9.098600000000
       132    1       36.777950000000       5.791000000000       9.098600000000
       133    2       35.106225000000       0.965162806000      10.700463121600
       134    2       38.449675000000       6.756162806000      10.700463121600
       135    2       35.106225000000       0.965162806000       7.496736878400
       136    2       38.449675000000       6.756162806000       7.496736878400
       137    2       40.121400000000       3.860662806000       7.496736878400
       138    2       36.777950000000       9.651662806000       7.496736878400
       139    2       38.449675000000       0.965162806000      10.700463121600
       140    2       33.434500000000       3.860662806000      10.700463121600
       141    2       35.106225000000       6.756162806000      10.700463121600
       142    1       35.106225000000       2.895500000000       9.098600000000
       143    2       36.777950000000       9.651662806000      10.700463121600
       144    1       38.449675000000       8.686500000000       9.098600000000
       145    1       45.136575000000       2.895500000000       9.098600000000
       146    1       41.793125000000       8.686500000000       9.098600000000
       147    2       45.136575000000       0.965162806000       7.496736878400
       148    1       43.464850000000       0.000000000000       9.098600000000
       149    2       41.793125000000       6.756162806000       7.496736878400
       150    2       43.464850000000       3.860662806000       7.496736878400
       151    1       46.808300000000       5.791000000000       9.098600000000
       152    2       46.808300000000       9.651662806000       7.496736878400
       153    2       43.464850000000       3.860662806000      10.700463121600
       154    2       40.121400000000       9.651662806000      10.700463121600
       155    1       40.121400000000       0.000000000000       9.098600000000
       156    1       43.464850000000       5.791000000000       9.098600000000
       157    2       41.793125000000       0.965162806000      10.700463121600
       158    2       45.136575000000       6.756162806000      10.700463121600
       159    2       41.793125000000       0.965162806000       7.496736878400
       160    2       45.136575000000       6.756162806000       7.496736878400
       161    2       46.808300000000       3.860662806000       7.496736878400
       162    2       43.464850000000       9.651662806000       7.496736878400
       163    2       45.136575000000       0.965162806000      10.700463121600
       164    2       40.121400000000       3.860662806000      10.700463121600
       165    2       41.793125000000       6.756162806000      10.700463121600
       166    1       41.793125000000       2.895500000000       9.098600000000
       167    2       43.464850000000       9.651662806000      10.700463121600
       168    1       45.136575000000       8.686500000000       9.098600000000
       169    1       51.823475000000       2.895500000000       9.098600000000
       170    1       48.480025000000       8.686500000000       9.098600000000
       171    2       51.823475000000       0.965162806000       7.496736878400
       172    1       50.151750000000       0.000000000000       9.098600000000
       173    2       48.480025000000       6.756162806000       7.496736878400
       174    2       50.151750000000       3.860662806000       7.496736878400
       175    1       53.495200000000       5.791000000000       9.098600000000
       176    2       53.495200000000       9.651662806000       7.496736878400
       177    2       50.151750000000       3.860662806000      10.700463121600
       178    2       46.808300000000       9.651662806000      10.700463121600
       179    1       46.808300000000       0.000000000000       9.098600000000
       180    1       50.151750000000       5.791000000000       9.098600000000
       181    2       48.480025000000       0.965162806000      10.700463121600
       182    2       51.823475000000       6.756162806000      10.700463121600
       183    2       48.480025000000       0.965162806000       7.496736878400
       184    2       51.823475000000       6.756162806000       7.496736878400
       185    2       53.495200000000       3.860662806000       7.496736878400
       186    2       50.151750000000       9.651662806000       7.496736878400
       187    2       51.823475000000       0.965162806000      10.700463121600
       188    2       46.808300000000       3.860662806000      10.700463121600
       189    2       48.480025000000       6.756162806000      10.700463121600
       190    1       48.480025000000       2.895500000000       9.098600000000
       191    2       50.151750000000       9.651662806000      10.700463121600
       192    1       51.823475000000       8.686500000000       9.098600000000
       193    1       58.510375000000       2.895500000000       9.098600000000
       194    1       55.166925000000       8.686500000000       9.098600000000
       195    2       58.510375000000       0.965162806000       7.496736878400
       196    1       56.838650000000       0.000000000000       9.098600000000
       197    2       55.166925000000       6.756162806000       7.496736878400
       198    2       56.838650000000       3.860662806000       7.496736878400
       199    1       60.182100000000       5.791000000000       9.098600000000
       200    2       60.182100000000       9.651662806000       7.496736878400
       201    2       56.838650000000       3.860662806000      10.700463121600
       202    2       53.495200000000       9.651662806000      10.700463121600
       203    1       53.495200000000       0.000000000000       9.098600000000
       204    1       56.838650000000       5.791000000000       9.098600000000
       205    2       55.166925000000       0.965162806000      10.700463121600
       206    2       58.510375000000       6.756162806000      10.700463121600
       207    2       55.166925000000       0.965162806000       7.496736878400
       208    2       58.510375000000       6.756162806000       7.496736878400
       209    2       60.182100000000       3.860662806000       7.496736878400
       210    2       56.838650000000       9.651662806000       7.496736878400
       211    2       58.510375000000       0.965162806000      10.700463121600
       212    2       53.495200000000       3.860662806000      10.700463121600
       213    2       55.166925000000       6.756162806000      10.700463121600
       214    1       55.166925000000       2.895500000000       9.098600000000
       215    2       56.838650000000       9.651662806000      10.700463121600
       216    1       58.510375000000       8.686500000000       9.098600000000
       217    1       65.197275000000       2.895500000000       9.098600000000
       218    1       61.853825000000       8.686500000000       9.098600000000
       219    2       65.197275000000       0.965162806000       7.496736878400
       220    1       63.525550000000       0.000000000000       9.098600000000
       221    2       61.853825000000       6.756162806000       7.496736878400
       222    2       63.525550000000       3.860662806000       7.496736878400
       223    1       66.869000000000       5.791000000000       9.098600000000
       224    2       66.869000000000       9.651662806000       7.496736878400
       225    2       63.525550000000       3.860662806000      10.700463121600
       226    2       60.182100000000       9.651662806000      10.700463121600
       227    1       60.182100000000       0.000000000000       9.098600000000
       228    1       63.525550000000       5.791000000000       9.098600000000
       229    2       61.853825000000       0.965162806000      10.700463121600
       230    2       65.197275000000       6.756162806000      10.700463121600
       231    2       61.853825000000       0.965162806000       7.496736878400
       232    2       65.197275000000       6.756162806000       7.496736878400
       233    2       66.869000000000       3.860662806000       7.496736878400
       234    2       63.525550000000       9.651662806000       7.496736878400
       235    2       65.197275000000       0.965162806000      10.700463121600
       236    2       60.182100000000       3.860662806000      10.700463121600
       237    2       61.853825000000       6.756162806000      10.700463121600
       238    1       61.853825000000       2.895500000000       9.098600000000
       239    2       63.525550000000       9.651662806000      10.700463121600
       240    1       65.197275000000       8.686500000000       9.098600000000
       241    1       71.884175000000       2.895500000000       9.098600000000
       242    1       68.540725000000       8.686500000000       9.098600000000
       243    2       71.884175000000       0.965162806000       7.496736878400
       244    1       70.212450000000       0.000000000000       9.098600000000
       245    2       68.540725000000       6.756162806000       7.496736878400
       246    2       70.212450000000       3.860662806000       7.496736878400
       247    1       73.555900000000       5.791000000000       9.098600000000
       248    2       73.555900000000       9.651662806000       7.496736878400
       249    2       70.212450000000       3.860662806000      10.700463121600
       250    2       66.869000000000       9.651662806000      10.700463121600
       251    1       66.869000000000       0.000000000000       9.098600000000
       252    1       70.212450000000       5.791000000000       9.098600000000
       253    2       68.540725000000       0.965162806000      10.700463121600
       254    2       71.884175000000       6.756162806000      10.700463121600
       255    2       68.540725000000       0.965162806000       7.496736878400
       256    2       71.884175000000       6.756162806000       7.496736878400
       257    2       73.555900000000       3.860662806000       7.496736878400
       258    2       70.212450000000       9.651662806000       7.496736878400
       259    2       71.884175000000       0.965162806000      10.700463121600
       260    2       66.869000000000       3.860662806000      10.700463121600
       261    2       68.540725000000       6.756162806000      10.700463121600
       262    1       68.540725000000       2.895500000000       9.098600000000
       263    2       70.212450000000       9.651662806000      10.700463121600
       264    1       71.884175000000       8.686500000000       9.098600000000
       265    1       78.571075000000       2.895500000000       9.098600000000
       266    1       75.227625000000       8.686500000000       9.098600000000
       267    2       78.571075000000       0.965162806000       7.496736878400
       268    1       76.899350000000       0.000000000000       9.098600000000
       269    2       75.227625000000       6.756162806000       7.496736878400
       270    2       76.899350000000       3.860662806000       7.496736878400
       271    1       80.242800000000       5.791000000000       9.098600000000
       272    2       80.242800000000       9.651662806000       7.496736878400
       273    2       76.899350000000       3.860662806000      10.700463121600
       274    2       73.555900000000       9.651662806000      10.700463121600
       275    1       73.555900000000       0.000000000000       9.098600000000
       276    1       76.899350000000       5.791000000000       9.098600000000
       277    2       75.227625000000       0.965162806000      10.700463121600
       278    2       78.571075000000       6.756162806000      10.700463121600
       279    2       75.227625000000       0.965162806000       7.496736878400
       280    2       78.571075000000       6.756162806000       7.496736878400
       281    2       80.242800000000       3.860662806000       7.496736878400
       282    2       76.899350000000       9.651662806000       7.496736878400
       283    2       78.571075000000       0.965162806000      10.700463121600
       284    2       73.555900000000       3.860662806000      10.700463121600
       285    2       75.227625000000       6.756162806000      10.700463121600
       286    1       75.227625000000       2.895500000000       9.098600000000
       287    2       76.899350000000       9.651662806000      10.700463121600
       288    1       78.571075000000       8.686500000000       9.098600000000
       289    1       85.257975000000       2.895500000000       9.098600000000
       290    1       81.914525000000       8.686500000000       9.098600000000
       291    2       85.257975000000       0.965162806000       7.496736878400
       292    1       83.586250000000       0.000000000000       9.098600000000
       293    2       81.914525000000       6.756162806000       7.496736878400
       294    2       83.586250000000       3.860662806000       7.496736878400
       295    1       86.929700000000       5.791000000000       9.098600000000
       296    2       86.929700000000       9.651662806000       7.496736878400
       297    2       83.586250000000       3.860662806000      10.700463121600
       298    2       80.242800000000       9.651662806000      10.700463121600
       299    1       80.242800000000       0.000000000000       9.098600000000
       300    1       83.586250000000       5.791000000000       9.098600000000
       301    2       81.914525000000       0.965162806000      10.700463121600
       302    2       85.257975000000       6.756162806000      10.700463121600
       303    2       81.914525000000       0.965162806000       7.496736878400
       304    2       85.257975000000       6.756162806000       7.496736878400
       305    2       86.929700000000       3.860662806000       7.496736878400
       306    2       83.586250000000       9.651662806000       7.496736878400
       307    2       85.257975000000       0.965162806000      10.700463121600
       308    2       80.242800000000       3.860662806000      10.700463121600
       309    2       81.914525000000       6.756162806000      10.700463121600
       310    1       81.914525000000       2.895500000000       9.098600000000
       311    2       83.586250000000       9.651662806000      10.700463121600
       312    1       85.257975000000       8.686500000000       9.098600000000
       313    1       91.944875000000       2.895500000000       9.098600000000
       314    1       88.601425000000       8.686500000000       9.098600000000
       315    2       91.944875000000       0.965162806000       7.496736878400
       316    1       90.273150000000       0.000000000000       9.098600000000
       317    2       88.601425000000       6.756162806000       7.496736878400
       318    2       90.273150000000       3.860662806000       7.496736878400
       319    1       93.616600000000       5.791000000000       9.098600000000
       320    2       93.616600000000       9.651662806000       7.496736878400
       321    2       90.273150000000       3.860662806000      10.700463121600
       322    2       86.929700000000       9.651662806000      10.700463121600
       323    1       86.929700000000       0.000000000000       9.098600000000
       324    1       90.273150000000       5.791000000000       9.098600000000
       325    2       88.601425000000       0.965162806000      10.700463121600
       326    2       91.944875000000       6.756162806000      10.700463121600
       327    2       88.601425000000       0.965162806000       7.496736878400
       328    2       91.944875000000       6.756162806000       7.496736878400
       329    2       93.616600000000       3.860662806000       7.496736878400
       330    2       90.273150000000       9.651662806000       7.496736878400
       331    2       91.944875000000       0.965162806000      10.700463121600
       332    2       86.929700000000       3.860662806000      10.700463121600
       333    2       88.601425000000       6.756162806000      10.700463121600
       334    1       88.601425000000       2.895500000000       9.098600000000
       335    2       90.273150000000       9.651662806000      10.700463121600
       336    1       91.944875000000       8.686500000000       9.098600000000
       337    1       98.631775000000       2.895500000000       9.098600000000
       338    1       95.288325000000       8.686500000000       9.098600000000
       339    2       98.631775000000       0.965162806000       7.496736878400
       340    1       96.960050000000       0.000000000000       9.098600000000
       341    2       95.288325000000       6.756162806000       7.496736878400
       342    2       96.960050000000       3.860662806000       7.496736878400
       343    1      100.303500000000       5.791000000000       9.098600000000
       344    2      100.303500000000       9.651662806000       7.496736878400
       345    2       96.960050000000       3.860662806000      10.700463121600
       346    2       93.616600000000       9.651662806000      10.700463121600
       347    1       93.616600000000       0.000000000000       9.098600000000
       348    1       96.960050000000       5.791000000000       9.098600000000
       349    2       95.288325000000       0.965162806000      10.700463121600
       350    2       98.631775000000       6.756162806000      10.700463121600
       351    2       95.288325000000       0.965162806000       7.496736878400
       352    2       98.631775000000       6.756162806000       7.496736878400
       353    2      100.303500000000       3.860662806000       7.496736878400
       354    2       96.960050000000       9.651662806000       7.496736878400
       355    2       98.631775000000       0.965162806000      10.700463121600
       356    2       93.616600000000       3.860662806000      10.700463121600
       357    2       95.288325000000       6.756162806000      10.700463121600
       358    1       95.288325000000       2.895500000000       9.098600000000
       359    2       96.960050000000       9.651662806000      10.700463121600
       360    1       98.631775000000       8.686500000000       9.098600000000
       361    1        5.015175000000      14.477500000000       9.098600000000
       362    1        1.671725000000      20.268500000000       9.098600000000
       363    2        5.015175000000      12.547162806000       7.496736878400
       364    1        3.343450000000      11.582000000000       9.098600000000
       365    2        1.671725000000      18.338162806000       7.496736878400
       366    2        3.343450000000      15.442662806000       7.496736878400
       367    1        6.686900000000      17.373000000000       9.098600000000
       368    2        6.686900000000      21.233662806000       7.496736878400
       369    2        3.343450000000      15.442662806000      10.700463121600
       370    2        0.000000000000      21.233662806000      10.700463121600