 # W8 O16
  
        4320  atoms
           2  atom types
 
      0.000000000000     102.027600000000  xlo xhi
      0.000000000000      98.177000000000  ylo yhi
      0.000000000000      17.474300000000  zlo zhi
 
Masses
 
            1   183.84000000            # W
            2   15.99900000             # O
 
Atoms # atomic
 
         1    1        4.251150000000       2.454425000000       8.737150000000
         2    2        5.668200000000       3.272563394100       7.500004508600
         3    1        1.417050000000       7.363275000000       8.737150000000
         4    2        4.251150000000       0.818138394100       7.500004508600
         5    2        1.417050000000       5.726988394100       7.500004508600
         6    2        2.834100000000       8.181413394100       7.500004508600
         7    2        1.417050000000       0.818138394100       7.500004508600
         8    2        2.834100000000       3.272563394100       7.500004508600
         9    2        0.000000000000       8.181413394100       7.500004508600
        10    2        5.668200000000       3.272563394100       9.974295491400
        11    2        4.251150000000       5.726988394100       7.500004508600
        12    2        2.834100000000       3.272563394100       9.974295491400
        13    2        2.834100000000       8.181413394100       9.974295491400
        14    2        5.668200000000       8.181413394100       9.974295491400
        15    1        2.834100000000       0.000000000000       8.737150000000
        16    2        4.251150000000       0.818138394100       9.974295491400
        17    1        5.668200000000       4.908850000000       8.737150000000
        18    2        1.417050000000       5.726988394100       9.974295491400
        19    1        0.000000000000       0.000000000000       8.737150000000
        20    1        2.834100000000       4.908850000000       8.737150000000
        21    2        1.417050000000       0.818138394100       9.974295491400
        22    2        4.251150000000       5.726988394100       9.974295491400
        23    1        1.417050000000       2.454425000000       8.737150000000
        24    1        4.251150000000       7.363275000000       8.737150000000
        25    1        9.919350000000       2.454425000000       8.737150000000
        26    2       11.336400000000       3.272563394100       7.500004508600
        27    1        7.085250000000       7.363275000000       8.737150000000
        28    2        9.919350000000       0.818138394100       7.500004508600
        29    2        7.085250000000       5.726988394100       7.500004508600
        30    2        8.502300000000       8.181413394100       7.500004508600
        31    2        7.085250000000       0.818138394100       7.500004508600
        32    2        8.502300000000       3.272563394100       7.500004508600
        33    2        5.668200000000       8.181413394100       7.500004508600
        34    2       11.336400000000       3.272563394100       9.974295491400
        35    2        9.919350000000       5.726988394100       7.500004508600
        36    2        8.502300000000       3.272563394100       9.974295491400
        37    2        8.502300000000       8.181413394100       9.974295491400
        38    2       11.336400000000       8.181413394100       9.974295491400
        39    1        8.502300000000       0.000000000000       8.737150000000
        40    2        9.919350000000       0.818138394100       9.974295491400
        41    1       11.336400000000       4.908850000000       8.737150000000
        42    2        7.085250000000       5.726988394100       9.974295491400
        43    1        5.668200000000       0.000000000000       8.737150000000
        44    1        8.502300000000       4.908850000000       8.737150000000
        45    2        7.085250000000       0.818138394100       9.974295491400
        46    2        9.919350000000       5.726988394100       9.974295491400
        47    1        7.085250000000       2.454425000000       8.737150000000
        48    1        9.919350000000       7.363275000000       8.737150000000
        49    1       15.587550000000       2.454425000000       8.737150000000
        50    2       17.004600000000       3.272563394100       7.500004508600
        51    1       12.753450000000       7.363275000000       8.737150000000
        52    2       15.587550000000       0.818138394100       7.500004508600
        53    2       12.753450000000       5.726988394100       7.500004508600
        54    2       14.170500000000       8.181413394100       7.500004508600
        55    2       12.753450000000       0.818138394100       7.500004508600
        56    2       14.170500000000       3.272563394100       7.500004508600
        57    2       11.336400000000       8.181413394100       7.500004508600
        58    2       17.004600000000       3.272563394100       9.974295491400
        59    2       15.587550000000       5.726988394100       7.500004508600
        60    2       14.170500000000       3.272563394100       9.974295491400
        61    2       14.170500000000       8.181413394100       9.974295491400
        62    2       17.004600000000       8.181413394100       9.974295491400
        63    1       14.170500000000       0.000000000000       8.737150000000
        64    2       15.587550000000       0.818138394100       9.974295491400
        65    1       17.004600000000       4.908850000000       8.737150000000
        66    2       12.753450000000       5.726988394100       9.974295491400
        67    1       11.336400000000       0.000000000000       8.737150000000
        68    1       14.170500000000       4.908850000000       8.737150000000
        69    2       12.753450000000       0.818138394100       9.974295491400
        70    2       15.587550000000       5.726988394100       9.974295491400
        71    1       12.753450000000       2.454425000000       8.737150000000
        72    1       15.587550000000       7.363275000000       8.737150000000
        73    1       21.255750000000       2.454425000000       8.737150000000
        74    2       22.672800000000       3.272563394100       7.500004508600
        75    1       18.421650000000       7.363275000000       8.737150000000
        76    2       21.255750000000       0.818138394100       7.500004508600
        77    2       18.421650000000       5.726988394100       7.500004508600
        78    2       19.838700000000       8.181413394100       7.500004508600
        79    2       18.421650000000       0.818138394100       7.500004508600
        80    2       19.838700000000       3.272563394100       7.500004508600
        81    2       17.004600000000       8.181413394100       7.500004508600
        82    2       22.672800000000       3.272563394100       9.974295491400
        83    2       21.255750000000       5.726988394100       7.500004508600
        84    2       19.838700000000       3.272563394100       9.974295491400
        85    2       19.838700000000       8.181413394100       9.974295491400
        86    2       22.672800000000       8.181413394100       9.974295491400
        87    1       19.838700000000       0.000000000000       8.737150000000
        88    2       21.255750000000       0.818138394100       9.974295491400
        89    1       22.672800000000       4.908850000000       8.737150000000
        90    2       18.421650000000       5.726988394100       9.974295491400
        91    1       17.004600000000       0.000000000000       8.737150000000
        92    1       19.838700000000       4.908850000000       8.737150000000
        93    2       18.421650000000       0.818138394100       9.974295491400
        94    2       21.255750000000       5.726988394100       9.974295491400
        95    1       18.421650000000       2.454425000000       8.737150000000
        96    1       21.255750000000       7.363275000000       8.737150000000
        97    1       26.923950000000       2.454425000000       8.737150000000
        98    2       28.341000000000       3.272563394100       7.500004508600
        99    1       24.089850000000       7.363275000000       8.737150000000
       100    2       26.923950000000       0.818138394100       7.500004508600
       101    2       24.089850000000       5.726988394100       7.500004508600
       102    2       25.506900000000       8.181413394100       7.500004508600
       103    2       24.089850000000       0.818138394100       7.500004508600
       104    2       25.506900000000       3.272563394100       7.500004508600
       105    2       22.672800000000       8.181413394100       7.500004508600
       106    2       28.341000000000       3.272563394100       9.974295491400
       107    2       26.923950000000       5.726988394100       7.500004508600
       108    2       25.506900000000       3.272563394100       9.974295491400
       109    2       25.506900000000       8.181413394100       9.974295491400
       110    2       28.341000000000       8.181413394100       9.974295491400
       111    1       25.506900000000       0.000000000000       8.737150000000
       112    2       26.923950000000       0.818138394100       9.974295491400
       113    1       28.341000000000       4.908850000000       8.737150000000
       114    2       24.089850000000       5.726988394100       9.974295491400
       115    1       22.672800000000       0.000000000000       8.737150000000
       116    1       25.506900000000       4.908850000000       8.737150000000
       117    2       24.089850000000       0.818138394100       9.974295491400
       118    2       26.923950000000       5.726988394100       9.974295491400
       119    1       24.089850000000       2.454425000000       8.737150000000
       120    1       26.923950000000       7.363275000000       8.737150000000
       121    1       32.592150000000       2.454425000000       8.737150000000
       122    2       34.009200000000       3.272563394100       7.500004508600
       123    1       29.758050000000       7.363275000000       8.737150000000
       124    2       32.592150000000       0.818138394100       7.500004508600
       125    2       29.758050000000       5.726988394100       7.500004508600
       126    2       31.175100000000       8.181413394100       7.500004508600
       127    2       29.758050000000       0.818138394100       7.500004508600
       128    2       31.175100000000       3.272563394100       7.500004508600
       129    2       28.341000000000       8.181413394100       7.500004508600
       130    2       34.009200000000       3.272563394100       9.974295491400
       131    2       32.592150000000       5.726988394100       7.500004508600
       132    2       31.175100000000       3.272563394100       9.974295491400
       133    2       31.175100000000       8.181413394100       9.974295491400
       134    2       34.009200000000       8.181413394100       9.974295491400
       135    1       31.175100000000       0.000000000000       8.737150000000
       136    2       32.592150000000       0.818138394100       9.974295491400
       137    1       34.009200000000       4.908850000000       8.737150000000
       138    2       29.758050000000       5.726988394100       9.974295491400
       139    1       28.341000000000       0.000000000000       8.737150000000
       140    1       31.175100000000       4.908850000000       8.737150000000
       141    2       29.758050000000       0.818138394100       9.974295491400
       142    2       32.592150000000       5.726988394100       9.974295491400
       143    1       29.758050000000       2.454425000000       8.737150000000
       144    1       32.592150000000       7.363275000000       8.737150000000
       145    1       38.260350000000       2.454425000000       8.737150000000
       146    2       39.677400000000       3.272563394100       7.500004508600
       147    1       35.426250000000       7.363275000000       8.737150000000
       148    2       38.260350000000       0.818138394100       7.500004508600
       149    2       35.426250000000       5.726988394100       7.500004508600
       150    2       36.843300000000       8.181413394100       7.500004508600
       151    2       35.426250000000       0.818138394100       7.500004508600
       152    2       36.843300000000       3.272563394100       7.500004508600
       153    2       34.009200000000       8.181413394100       7.500004508600
       154    2       39.677400000000       3.272563394100       9.974295491400
       155    2       38.260350000000       5.726988394100       7.500004508600
       156    2       36.843300000000       3.272563394100       9.974295491400
       157    2       36.843300000000       8.181413394100       9.974295491400
       158    2       39.677400000000       8.181413394100       9.974295491400
       159    1       36.843300000000       0.000000000000       8.737150000000
       160    2       38.260350000000       0.818138394100       9.974295491400
       161    1       39.677400000000       4.908850000000       8.737150000000
       162    2       35.426250000000       5.726988394100       9.974295491400
       163    1       34.009200000000       0.000000000000       8.737150000000
       164    1       36.843300000000       4.908850000000       8.737150000000
       165    2       35.426250000000       0.818138394100       9.974295491400
       166    2       38.260350000000       5.726988394100       9.974295491400
       167    1       35.426250000000       2.454425000000       8.737150000000
       168    1       38.260350000000       7.363275000000       8.737150000000
       169    1       43.928550000000       2.454425000000       8.737150000000
       170    2       45.345600000000       3.272563394100       7.500004508600
       171    1       41.094450000000       7.363275000000       8.737150000000
       172    2       43.928550000000       0.818138394100       7.500004508600
       173    2       41.094450000000       5.726988394100       7.500004508600
       174    2       42.511500000000       8.181413394100       7.500004508600
       175    2       41.094450000000       0.818138394100       7.500004508600
       176    2       42.511500000000       3.272563394100       7.500004508600
       177    2       39.677400000000       8.181413394100       7.500004508600
       178    2       45.345600000000       3.272563394100       9.974295491400
       179    2       43.928550000000       5.726988394100       7.500004508600
       180    2       42.511500000000       3.272563394100       9.974295491400
       181    2       42.511500000000       8.181413394100       9.974295491400
       182    2       45.345600000000       8.181413394100       9.974295491400
       183    1       42.511500000000       0.000000000000       8.737150000000
       184    2       43.928550000000       0.818138394100       9.974295491400
       185    1       45.345600000000       4.908850000000       8.737150000000
       186    2       41.094450000000       5.726988394100       9.974295491400
       187    1       39.677400000000       0.000000000000       8.737150000000
       188    1       42.511500000000       4.908850000000       8.737150000000
       189    2       41.094450000000       0.818138394100       9.974295491400
       190    2       43.928550000000       5.726988394100       9.974295491400
       191    1       41.094450000000       2.454425000000       8.737150000000
       192    1       43.928550000000       7.363275000000       8.737150000000
       193    1       49.596750000000       2.454425000000       8.737150000000
       194    2       51.013800000000       3.272563394100       7.500004508600
       195    1       46.762650000000       7.363275000000       8.737150000000
       196    2       49.596750000000       0.818138394100       7.500004508600
       197    2       46.762650000000       5.726988394100       7.500004508600
       198    2       48.179700000000       8.181413394100       7.500004508600
       199    2       46.762650000000       0.818138394100       7.500004508600
       200    2       48.179700000000       3.272563394100       7.500004508600
       201    2       45.345600000000       8.181413394100       7.500004508600
       202    2       51.013800000000       3.272563394100       9.974295491400
       203    2       49.596750000000       5.726988394100       7.500004508600
       204    2       48.179700000000       3.272563394100       9.974295491400
       205    2       48.179700000000       8.181413394100       9.974295491400
       206    2       51.013800000000       8.181413394100       9.974295491400
       207    1       48.179700000000       0.000000000000       8.737150000000
       208    2       49.596750000000       0.818138394100       9.974295491400
       209    1       51.013800000000       4.908850000000       8.737150000000
       210    2       46.762650000000       5.726988394100       9.974295491400
       211    1       45.345600000000       0.000000000000       8.737150000000
       212    1       48.179700000000       4.908850000000       8.737150000000
       213    2       46.762650000000       0.818138394100       9.974295491400
       214    2       49.596750000000       5.726988394100       9.974295491400
       215    1       46.762650000000       2.454425000000       8.737150000000
       216    1       49.596750000000       7.363275000000       8.737150000000
       217    1       55.264950000000       2.454425000000       8.737150000000
       218    2       56.682000000000       3.272563394100       7.500004508600
       219    1       52.430850000000       7.363275000000       8.737150000000
       220    2       55.264950000000       0.818138394100       7.500004508600
       221    2       52.430850000000       5.726988394100       7.500004508600
       222    2       53.847900000000       8.181413394100       7.500004508600
       223    2       52.430850000000       0.818138394100       7.500004508600
       224    2       53.847900000000       3.272563394100       7.500004508600
       225    2       51.013800000000       8.181413394100       7.500004508600
       226    2       56.682000000000       3.272563394100       9.974295491400
       227    2       55.264950000000       5.726988394100       7.500004508600
       228    2       53.847900000000       3.272563394100       9.974295491400
       229    2       53.847900000000       8.181413394100       9.974295491400
       230    2       56.682000000000       8.181413394100       9.974295491400
       231    1       53.847900000000       0.000000000000       8.737150000000
       232    2       55.264950000000       0.818138394100       9.974295491400
       233    1       56.682000000000       4.908850000000       8.737150000000
       234    2       52.430850000000       5.726988394100       9.974295491400
       235    1       51.013800000000       0.000000000000       8.737150000000
       236    1       53.847900000000       4.908850000000       8.737150000000
       237    2       52.430850000000       0.818138394100       9.974295491400
       238    2       55.264950000000       5.726988394100       9.974295491400
       239    1       52.430850000000       2.454425000000       8.737150000000
       240    1       55.264950000000       7.363275000000       8.737150000000
       241    1       60.933150000000       2.454425000000       8.737150000000
       242    2       62.350200000000       3.272563394100       7.500004508600
       243    1       58.099050000000       7.363275000000       8.737150000000
       244    2       60.933150000000       0.818138394100       7.500004508600
       245    2       58.099050000000       5.726988394100       7.500004508600
       246    2       59.516100000000       8.181413394100       7.500004508600
       247    2       58.099050000000       0.818138394100       7.500004508600
       248    2       59.516100000000       3.272563394100       7.500004508600
       249    2       56.682000000000       8.181413394100       7.500004508600
       250    2       62.350200000000       3.272563394100       9.974295491400
       251    2       60.933150000000       5.726988394100       7.500004508600
       252    2       59.516100000000       3.272563394100       9.974295491400
       253    2       59.516100000000       8.181413394100       9.974295491400
       254    2       62.350200000000       8.181413394100       9.974295491400
       255    1       59.516100000000       0.000000000000       8.737150000000
       256    2       60.933150000000       0.818138394100       9.974295491400
       257    1       62.350200000000       4.908850000000       8.737150000000
       258    2       58.099050000000       5.726988394100       9.974295491400
       259    1       56.682000000000       0.000000000000       8.737150000000
       260    1       59.516100000000       4.908850000000       8.737150000000
       261    2       58.099050000000       0.818138394100       9.974295491400
       262    2       60.933150000000       5.726988394100       9.974295491400
       263    1       58.099050000000       2.454425000000       8.737150000000
       264    1       60.933150000000       7.363275000000       8.737150000000
       265    1       66.601350000000       2.454425000000       8.737150000000
       266    2       68.018400000000       3.272563394100       7.500004508600
       267    1       63.767250000000       7.363275000000       8.737150000000
       268    2       66.601350000000       0.818138394100       7.500004508600
       269    2       63.767250000000       5.726988394100       7.500004508600
       270    2       65.184300000000       8.181413394100       7.500004508600
       271    2       63.767250000000       0.818138394100       7.500004508600
       272    2       65.184300000000       3.272563394100       7.500004508600
       273    2       62.350200000000       8.181413394100       7.500004508600
       274    2       68.018400000000       3.272563394100       9.974295491400
       275    2       66.601350000000       5.726988394100       7.500004508600
       276    2       65.184300000000       3.272563394100       9.974295491400
       277    2       65.184300000000       8.181413394100       9.974295491400
       278    2       68.018400000000       8.181413394100       9.974295491400
       279    1       65.184300000000       0.000000000000       8.737150000000
       280    2       66.601350000000       0.818138394100       9.974295491400
       281    1       68.018400000000       4.908850000000       8.737150000000
       282    2       63.767250000000       5.726988394100       9.974295491400
       283    1       62.350200000000       0.000000000000       8.737150000000
       284    1       65.184300000000       4.908850000000       8.737150000000
       285    2       63.767250000000       0.818138394100       9.974295491400
       286    2       66.601350000000       5.726988394100       9.974295491400
       287    1       63.767250000000       2.454425000000       8.737150000000
       288    1       66.601350000000       7.363275000000       8.737150000000
       289    1       72.269550000000       2.454425000000       8.737150000000
       290    2       73.686600000000       3.272563394100       7.500004508600
       291    1       69.435450000000       7.363275000000       8.737150000000
       292    2       72.269550000000       0.818138394100       7.500004508600
       293    2       69.435450000000       5.726988394100       7.500004508600
       294    2       70.852500000000       8.181413394100       7.500004508600
       295    2       69.435450000000       0.818138394100       7.500004508600
       296    2       70.852500000000       3.272563394100       7.500004508600
       297    2       68.018400000000       8.181413394100       7.500004508600
       298    2       73.686600000000       3.272563394100       9.974295491400
       299    2       72.269550000000       5.726988394100       7.500004508600
       300    2       70.852500000000       3.272563394100       9.974295491400
       301    2       70.852500000000       8.181413394100       9.974295491400
       302    2       73.686600000000       8.181413394100       9.974295491400
       303    1       70.852500000000       0.000000000000       8.737150000000
       304    2       72.269550000000       0.818138394100       9.974295491400
       305    1       73.686600000000       4.908850000000       8.737150000000
       306    2       69.435450000000       5.726988394100       9.974295491400
       307    1       68.018400000000       0.000000000000       8.737150000000
       308    1       70.852500000000       4.908850000000       8.737150000000
       309    2       69.435450000000       0.818138394100       9.974295491400
       310    2       72.269550000000       5.726988394100       9.974295491400
       311    1       69.435450000000       2.454425000000       8.737150000000
       312    1       72.269550000000       7.363275000000       8.737150000000
       313    1       77.937750000000       2.454425000000       8.737150000000
       314    2       79.354800000000       3.272563394100       7.500004508600
       315    1       75.103650000000       7.363275000000       8.737150000000
       316    2       77.937750000000       0.818138394100       7.500004508600
       317    2       75.103650000000       5.726988394100       7.500004508600
       318    2       76.520700000000       8.181413394100       7.500004508600
       319    2       75.103650000000       0.818138394100       7.500004508600
       320    2       76.520700000000       3.272563394100       7.500004508600
       321    2       73.686600000000       8.181413394100       7.500004508600
       322    2       79.354800000000       3.272563394100       9.974295491400
       323    2       77.937750000000       5.726988394100       7.500004508600
       324    2       76.520700000000       3.272563394100       9.974295491400
       325    2       76.520700000000       8.181413394100       9.974295491400
       326    2       79.354800000000       8.181413394100       9.974295491400
       327    1       76.520700000000       0.000000000000       8.737150000000
       328    2       77.937750000000       0.818138394100       9.974295491400
       329    1       79.354800000000       4.908850000000       8.737150000000
       330    2       75.103650000000       5.726988394100       9.974295491400
       331    1       73.686600000000       0.000000000000       8.737150000000
       332    1       76.520700000000       4.908850000000       8.737150000000
       333    2       75.103650000000       0.818138394100       9.974295491400
       334    2       77.937750000000       5.726988394100       9.974295491400
       335    1       75.103650000000       2.454425000000       8.737150000000
       336    1       77.937750000000       7.363275000000       8.737150000000
       337    1       83.605950000000       2.454425000000       8.737150000000
       338    2       85.023000000000       3.272563394100       7.500004508600
       339    1       80.771850000000       7.363275000000       8.737150000000
       340    2       83.605950000000       0.818138394100       7.500004508600
       341    2       80.771850000000       5.726988394100       7.500004508600
       342    2       82.188900000000       8.181413394100       7.500004508600
       343    2       80.771850000000       0.818138394100       7.500004508600
       344    2       82.188900000000       3.272563394100       7.500004508600
       345    2       79.354800000000       8.181413394100       7.500004508600
       346    2       85.023000000000       3.272563394100       9.974295491400
       347    2       83.605950000000       5.726988394100       7.500004508600
       348    2       82.188900000000       3.272563394100       9.974295491400
       349    2       82.188900000000       8.181413394100       9.974295491400
       350    2       85.023000000000       8.181413394100       9.974295491400
       351    1       82.188900000000       0.000000000000       8.737150000000
       352    2       83.605950000000       0.818138394100       9.974295491400
       353    1       85.023000000000       4.908850000000       8.737150000000
       354    2       80.771850000000       5.726988394100       9.974295491400
       355    1       79.354800000000       0.000000000000       8.737150000000
       356    1       82.188900000000       4.908850000000       8.737150000000
       357    2       80.771850000000       0.818138394100       9.974295491400
       358    2       83.605950000000       5.726988394100       9.974295491400
       359    1       80.771850000000       2.454425000000       8.737150000000
       360    1       83.605950000000       7.363275000000       8.737150000000
       361    1       89.274150000000       2.454425000000       8.737150000000
       362    2       90.691200000000       3.272563394100       7.500004508600
       363    1       86.440050000000       7.363275000000       8.737150000000
       364    2       89.274150000000       0.818138394100       7.500004508600
       365    2       86.440050000000       5.726988394100       7.500004508600
       366    2       87.857100000000       8.181413394100       7.500004508600
       367    2       86.440050000000       0.818138394100       7.500004508600
       368    2       87.857100000000       3.272563394100       7.500004508600
       369    2       85.023000000000       8.181413394100       7.500004508600
       370    2       90.691200000000       3.272563394100       9.974295491400