 # W8 Se16
  
        3240  atoms
           2  atom types
 
      0.000000000000      99.570000000000  xlo xhi
      0.000000000000     103.476600000000  ylo yhi
      0.000000000000      18.358600000000  zlo zhi
 
Masses
 
            1   183.84000000            # W
            2   78.96000000             # Se
 
Atoms # atomic
 
         1    1        0.000000000000       0.000000000000       9.179300000000
         2    1        3.319000000000       5.748700000000       9.179300000000
         3    2        0.000000000000       3.832462834200      10.858579500600
         4    2        3.319000000000       3.832462834200      10.858579500600
         5    2        6.638000000000       9.581162834200      10.858579500600
         6    2        3.319000000000       9.581162834200      10.858579500600
         7    2        4.978500000000       0.958112834200       7.500020499400
         8    2        1.659500000000       6.706812834200       7.500020499400
         9    2        1.659500000000       0.958112834200       7.500020499400
        10    2        4.978500000000       6.706812834200       7.500020499400
        11    2        3.319000000000       3.832462834200       7.500020499400
        12    2        0.000000000000       9.581162834200       7.500020499400
        13    2        4.978500000000       0.958112834200      10.858579500600
        14    2        1.659500000000       6.706812834200      10.858579500600
        15    1        1.659500000000       2.874350000000       9.179300000000
        16    1        4.978500000000       8.623050000000       9.179300000000
        17    1        4.978500000000       2.874350000000       9.179300000000
        18    2        0.000000000000       3.832462834200       7.500020499400
        19    1        1.659500000000       8.623050000000       9.179300000000
        20    2        3.319000000000       9.581162834200       7.500020499400
        21    1        3.319000000000       0.000000000000       9.179300000000
        22    1        0.000000000000       5.748700000000       9.179300000000
        23    2        1.659500000000       0.958112834200      10.858579500600
        24    2        4.978500000000       6.706812834200      10.858579500600
        25    1        6.638000000000       0.000000000000       9.179300000000
        26    1        9.957000000000       5.748700000000       9.179300000000
        27    2        6.638000000000       3.832462834200      10.858579500600
        28    2        9.957000000000       3.832462834200      10.858579500600
        29    2       13.276000000000       9.581162834200      10.858579500600
        30    2        9.957000000000       9.581162834200      10.858579500600
        31    2       11.616500000000       0.958112834200       7.500020499400
        32    2        8.297500000000       6.706812834200       7.500020499400
        33    2        8.297500000000       0.958112834200       7.500020499400
        34    2       11.616500000000       6.706812834200       7.500020499400
        35    2        9.957000000000       3.832462834200       7.500020499400
        36    2        6.638000000000       9.581162834200       7.500020499400
        37    2       11.616500000000       0.958112834200      10.858579500600
        38    2        8.297500000000       6.706812834200      10.858579500600
        39    1        8.297500000000       2.874350000000       9.179300000000
        40    1       11.616500000000       8.623050000000       9.179300000000
        41    1       11.616500000000       2.874350000000       9.179300000000
        42    2        6.638000000000       3.832462834200       7.500020499400
        43    1        8.297500000000       8.623050000000       9.179300000000
        44    2        9.957000000000       9.581162834200       7.500020499400
        45    1        9.957000000000       0.000000000000       9.179300000000
        46    1        6.638000000000       5.748700000000       9.179300000000
        47    2        8.297500000000       0.958112834200      10.858579500600
        48    2       11.616500000000       6.706812834200      10.858579500600
        49    1       13.276000000000       0.000000000000       9.179300000000
        50    1       16.595000000000       5.748700000000       9.179300000000
        51    2       13.276000000000       3.832462834200      10.858579500600
        52    2       16.595000000000       3.832462834200      10.858579500600
        53    2       19.914000000000       9.581162834200      10.858579500600
        54    2       16.595000000000       9.581162834200      10.858579500600
        55    2       18.254500000000       0.958112834200       7.500020499400
        56    2       14.935500000000       6.706812834200       7.500020499400
        57    2       14.935500000000       0.958112834200       7.500020499400
        58    2       18.254500000000       6.706812834200       7.500020499400
        59    2       16.595000000000       3.832462834200       7.500020499400
        60    2       13.276000000000       9.581162834200       7.500020499400
        61    2       18.254500000000       0.958112834200      10.858579500600
        62    2       14.935500000000       6.706812834200      10.858579500600
        63    1       14.935500000000       2.874350000000       9.179300000000
        64    1       18.254500000000       8.623050000000       9.179300000000
        65    1       18.254500000000       2.874350000000       9.179300000000
        66    2       13.276000000000       3.832462834200       7.500020499400
        67    1       14.935500000000       8.623050000000       9.179300000000
        68    2       16.595000000000       9.581162834200       7.500020499400
        69    1       16.595000000000       0.000000000000       9.179300000000
        70    1       13.276000000000       5.748700000000       9.179300000000
        71    2       14.935500000000       0.958112834200      10.858579500600
        72    2       18.254500000000       6.706812834200      10.858579500600
        73    1       19.914000000000       0.000000000000       9.179300000000
        74    1       23.233000000000       5.748700000000       9.179300000000
        75    2       19.914000000000       3.832462834200      10.858579500600
        76    2       23.233000000000       3.832462834200      10.858579500600
        77    2       26.552000000000       9.581162834200      10.858579500600
        78    2       23.233000000000       9.581162834200      10.858579500600
        79    2       24.892500000000       0.958112834200       7.500020499400
        80    2       21.573500000000       6.706812834200       7.500020499400
        81    2       21.573500000000       0.958112834200       7.500020499400
        82    2       24.892500000000       6.706812834200       7.500020499400
        83    2       23.233000000000       3.832462834200       7.500020499400
        84    2       19.914000000000       9.581162834200       7.500020499400
        85    2       24.892500000000       0.958112834200      10.858579500600
        86    2       21.573500000000       6.706812834200      10.858579500600
        87    1       21.573500000000       2.874350000000       9.179300000000
        88    1       24.892500000000       8.623050000000       9.179300000000
        89    1       24.892500000000       2.874350000000       9.179300000000
        90    2       19.914000000000       3.832462834200       7.500020499400
        91    1       21.573500000000       8.623050000000       9.179300000000
        92    2       23.233000000000       9.581162834200       7.500020499400
        93    1       23.233000000000       0.000000000000       9.179300000000
        94    1       19.914000000000       5.748700000000       9.179300000000
        95    2       21.573500000000       0.958112834200      10.858579500600
        96    2       24.892500000000       6.706812834200      10.858579500600
        97    1       26.552000000000       0.000000000000       9.179300000000
        98    1       29.871000000000       5.748700000000       9.179300000000
        99    2       26.552000000000       3.832462834200      10.858579500600
       100    2       29.871000000000       3.832462834200      10.858579500600
       101    2       33.190000000000       9.581162834200      10.858579500600
       102    2       29.871000000000       9.581162834200      10.858579500600
       103    2       31.530500000000       0.958112834200       7.500020499400
       104    2       28.211500000000       6.706812834200       7.500020499400
       105    2       28.211500000000       0.958112834200       7.500020499400
       106    2       31.530500000000       6.706812834200       7.500020499400
       107    2       29.871000000000       3.832462834200       7.500020499400
       108    2       26.552000000000       9.581162834200       7.500020499400
       109    2       31.530500000000       0.958112834200      10.858579500600
       110    2       28.211500000000       6.706812834200      10.858579500600
       111    1       28.211500000000       2.874350000000       9.179300000000
       112    1       31.530500000000       8.623050000000       9.179300000000
       113    1       31.530500000000       2.874350000000       9.179300000000
       114    2       26.552000000000       3.832462834200       7.500020499400
       115    1       28.211500000000       8.623050000000       9.179300000000
       116    2       29.871000000000       9.581162834200       7.500020499400
       117    1       29.871000000000       0.000000000000       9.179300000000
       118    1       26.552000000000       5.748700000000       9.179300000000
       119    2       28.211500000000       0.958112834200      10.858579500600
       120    2       31.530500000000       6.706812834200      10.858579500600
       121    1       33.190000000000       0.000000000000       9.179300000000
       122    1       36.509000000000       5.748700000000       9.179300000000
       123    2       33.190000000000       3.832462834200      10.858579500600
       124    2       36.509000000000       3.832462834200      10.858579500600
       125    2       39.828000000000       9.581162834200      10.858579500600
       126    2       36.509000000000       9.581162834200      10.858579500600
       127    2       38.168500000000       0.958112834200       7.500020499400
       128    2       34.849500000000       6.706812834200       7.500020499400
       129    2       34.849500000000       0.958112834200       7.500020499400
       130    2       38.168500000000       6.706812834200       7.500020499400
       131    2       36.509000000000       3.832462834200       7.500020499400
       132    2       33.190000000000       9.581162834200       7.500020499400
       133    2       38.168500000000       0.958112834200      10.858579500600
       134    2       34.849500000000       6.706812834200      10.858579500600
       135    1       34.849500000000       2.874350000000       9.179300000000
       136    1       38.168500000000       8.623050000000       9.179300000000
       137    1       38.168500000000       2.874350000000       9.179300000000
       138    2       33.190000000000       3.832462834200       7.500020499400
       139    1       34.849500000000       8.623050000000       9.179300000000
       140    2       36.509000000000       9.581162834200       7.500020499400
       141    1       36.509000000000       0.000000000000       9.179300000000
       142    1       33.190000000000       5.748700000000       9.179300000000
       143    2       34.849500000000       0.958112834200      10.858579500600
       144    2       38.168500000000       6.706812834200      10.858579500600
       145    1       39.828000000000       0.000000000000       9.179300000000
       146    1       43.147000000000       5.748700000000       9.179300000000
       147    2       39.828000000000       3.832462834200      10.858579500600
       148    2       43.147000000000       3.832462834200      10.858579500600
       149    2       46.466000000000       9.581162834200      10.858579500600
       150    2       43.147000000000       9.581162834200      10.858579500600
       151    2       44.806500000000       0.958112834200       7.500020499400
       152    2       41.487500000000       6.706812834200       7.500020499400
       153    2       41.487500000000       0.958112834200       7.500020499400
       154    2       44.806500000000       6.706812834200       7.500020499400
       155    2       43.147000000000       3.832462834200       7.500020499400
       156    2       39.828000000000       9.581162834200       7.500020499400
       157    2       44.806500000000       0.958112834200      10.858579500600
       158    2       41.487500000000       6.706812834200      10.858579500600
       159    1       41.487500000000       2.874350000000       9.179300000000
       160    1       44.806500000000       8.623050000000       9.179300000000
       161    1       44.806500000000       2.874350000000       9.179300000000
       162    2       39.828000000000       3.832462834200       7.500020499400
       163    1       41.487500000000       8.623050000000       9.179300000000
       164    2       43.147000000000       9.581162834200       7.500020499400
       165    1       43.147000000000       0.000000000000       9.179300000000
       166    1       39.828000000000       5.748700000000       9.179300000000
       167    2       41.487500000000       0.958112834200      10.858579500600
       168    2       44.806500000000       6.706812834200      10.858579500600
       169    1       46.466000000000       0.000000000000       9.179300000000
       170    1       49.785000000000       5.748700000000       9.179300000000
       171    2       46.466000000000       3.832462834200      10.858579500600
       172    2       49.785000000000       3.832462834200      10.858579500600
       173    2       53.104000000000       9.581162834200      10.858579500600
       174    2       49.785000000000       9.581162834200      10.858579500600
       175    2       51.444500000000       0.958112834200       7.500020499400
       176    2       48.125500000000       6.706812834200       7.500020499400
       177    2       48.125500000000       0.958112834200       7.500020499400
       178    2       51.444500000000       6.706812834200       7.500020499400
       179    2       49.785000000000       3.832462834200       7.500020499400
       180    2       46.466000000000       9.581162834200       7.500020499400
       181    2       51.444500000000       0.958112834200      10.858579500600
       182    2       48.125500000000       6.706812834200      10.858579500600
       183    1       48.125500000000       2.874350000000       9.179300000000
       184    1       51.444500000000       8.623050000000       9.179300000000
       185    1       51.444500000000       2.874350000000       9.179300000000
       186    2       46.466000000000       3.832462834200       7.500020499400
       187    1       48.125500000000       8.623050000000       9.179300000000
       188    2       49.785000000000       9.581162834200       7.500020499400
       189    1       49.785000000000       0.000000000000       9.179300000000
       190    1       46.466000000000       5.748700000000       9.179300000000
       191    2       48.125500000000       0.958112834200      10.858579500600
       192    2       51.444500000000       6.706812834200      10.858579500600
       193    1       53.104000000000       0.000000000000       9.179300000000
       194    1       56.423000000000       5.748700000000       9.179300000000
       195    2       53.104000000000       3.832462834200      10.858579500600
       196    2       56.423000000000       3.832462834200      10.858579500600
       197    2       59.742000000000       9.581162834200      10.858579500600
       198    2       56.423000000000       9.581162834200      10.858579500600
       199    2       58.082500000000       0.958112834200       7.500020499400
       200    2       54.763500000000       6.706812834200       7.500020499400
       201    2       54.763500000000       0.958112834200       7.500020499400
       202    2       58.082500000000       6.706812834200       7.500020499400
       203    2       56.423000000000       3.832462834200       7.500020499400
       204    2       53.104000000000       9.581162834200       7.500020499400
       205    2       58.082500000000       0.958112834200      10.858579500600
       206    2       54.763500000000       6.706812834200      10.858579500600
       207    1       54.763500000000       2.874350000000       9.179300000000
       208    1       58.082500000000       8.623050000000       9.179300000000
       209    1       58.082500000000       2.874350000000       9.179300000000
       210    2       53.104000000000       3.832462834200       7.500020499400
       211    1       54.763500000000       8.623050000000       9.179300000000
       212    2       56.423000000000       9.581162834200       7.500020499400
       213    1       56.423000000000       0.000000000000       9.179300000000
       214    1       53.104000000000       5.748700000000       9.179300000000
       215    2       54.763500000000       0.958112834200      10.858579500600
       216    2       58.082500000000       6.706812834200      10.858579500600
       217    1       59.742000000000       0.000000000000       9.179300000000
       218    1       63.061000000000       5.748700000000       9.179300000000
       219    2       59.742000000000       3.832462834200      10.858579500600
       220    2       63.061000000000       3.832462834200      10.858579500600
       221    2       66.380000000000       9.581162834200      10.858579500600
       222    2       63.061000000000       9.581162834200      10.858579500600
       223    2       64.720500000000       0.958112834200       7.500020499400
       224    2       61.401500000000       6.706812834200       7.500020499400
       225    2       61.401500000000       0.958112834200       7.500020499400
       226    2       64.720500000000       6.706812834200       7.500020499400
       227    2       63.061000000000       3.832462834200       7.500020499400
       228    2       59.742000000000       9.581162834200       7.500020499400
       229    2       64.720500000000       0.958112834200      10.858579500600
       230    2       61.401500000000       6.706812834200      10.858579500600
       231    1       61.401500000000       2.874350000000       9.179300000000
       232    1       64.720500000000       8.623050000000       9.179300000000
       233    1       64.720500000000       2.874350000000       9.179300000000
       234    2       59.742000000000       3.832462834200       7.500020499400
       235    1       61.401500000000       8.623050000000       9.179300000000
       236    2       63.061000000000       9.581162834200       7.500020499400
       237    1       63.061000000000       0.000000000000       9.179300000000
       238    1       59.742000000000       5.748700000000       9.179300000000
       239    2       61.401500000000       0.958112834200      10.858579500600
       240    2       64.720500000000       6.706812834200      10.858579500600
       241    1       66.380000000000       0.000000000000       9.179300000000
       242    1       69.699000000000       5.748700000000       9.179300000000
       243    2       66.380000000000       3.832462834200      10.858579500600
       244    2       69.699000000000       3.832462834200      10.858579500600
       245    2       73.018000000000       9.581162834200      10.858579500600
       246    2       69.699000000000       9.581162834200      10.858579500600
       247    2       71.358500000000       0.958112834200       7.500020499400
       248    2       68.039500000000       6.706812834200       7.500020499400
       249    2       68.039500000000       0.958112834200       7.500020499400
       250    2       71.358500000000       6.706812834200       7.500020499400
       251    2       69.699000000000       3.832462834200       7.500020499400
       252    2       66.380000000000       9.581162834200       7.500020499400
       253    2       71.358500000000       0.958112834200      10.858579500600
       254    2       68.039500000000       6.706812834200      10.858579500600
       255    1       68.039500000000       2.874350000000       9.179300000000
       256    1       71.358500000000       8.623050000000       9.179300000000
       257    1       71.358500000000       2.874350000000       9.179300000000
       258    2       66.380000000000       3.832462834200       7.500020499400
       259    1       68.039500000000       8.623050000000       9.179300000000
       260    2       69.699000000000       9.581162834200       7.500020499400
       261    1       69.699000000000       0.000000000000       9.179300000000
       262    1       66.380000000000       5.748700000000       9.179300000000
       263    2       68.039500000000       0.958112834200      10.858579500600
       264    2       71.358500000000       6.706812834200      10.858579500600
       265    1       73.018000000000       0.000000000000       9.179300000000
       266    1       76.337000000000       5.748700000000       9.179300000000
       267    2       73.018000000000       3.832462834200      10.858579500600
       268    2       76.337000000000       3.832462834200      10.858579500600
       269    2       79.656000000000       9.581162834200      10.858579500600
       270    2       76.337000000000       9.581162834200      10.858579500600
       271    2       77.996500000000       0.958112834200       7.500020499400
       272    2       74.677500000000       6.706812834200       7.500020499400
       273    2       74.677500000000       0.958112834200       7.500020499400
       274    2       77.996500000000       6.706812834200       7.500020499400
       275    2       76.337000000000       3.832462834200       7.500020499400
       276    2       73.018000000000       9.581162834200       7.500020499400
       277    2       77.996500000000       0.958112834200      10.858579500600
       278    2       74.677500000000       6.706812834200      10.858579500600
       279    1       74.677500000000       2.874350000000       9.179300000000
       280    1       77.996500000000       8.623050000000       9.179300000000
       281    1       77.996500000000       2.874350000000       9.179300000000
       282    2       73.018000000000       3.832462834200       7.500020499400
       283    1       74.677500000000       8.623050000000       9.179300000000
       284    2       76.337000000000       9.581162834200       7.500020499400
       285    1       76.337000000000       0.000000000000       9.179300000000
       286    1       73.018000000000       5.748700000000       9.179300000000
       287    2       74.677500000000       0.958112834200      10.858579500600
       288    2       77.996500000000       6.706812834200      10.858579500600
       289    1       79.656000000000       0.000000000000       9.179300000000
       290    1       82.975000000000       5.748700000000       9.179300000000
       291    2       79.656000000000       3.832462834200      10.858579500600
       292    2       82.975000000000       3.832462834200      10.858579500600
       293    2       86.294000000000       9.581162834200      10.858579500600
       294    2       82.975000000000       9.581162834200      10.858579500600
       295    2       84.634500000000       0.958112834200       7.500020499400
       296    2       81.315500000000       6.706812834200       7.500020499400
       297    2       81.315500000000       0.958112834200       7.500020499400
       298    2       84.634500000000       6.706812834200       7.500020499400
       299    2       82.975000000000       3.832462834200       7.500020499400
       300    2       79.656000000000       9.581162834200       7.500020499400
       301    2       84.634500000000       0.958112834200      10.858579500600
       302    2       81.315500000000       6.706812834200      10.858579500600
       303    1       81.315500000000       2.874350000000       9.179300000000
       304    1       84.634500000000       8.623050000000       9.179300000000
       305    1       84.634500000000       2.874350000000       9.179300000000
       306    2       79.656000000000       3.832462834200       7.500020499400
       307    1       81.315500000000       8.623050000000       9.179300000000
       308    2       82.975000000000       9.581162834200       7.500020499400
       309    1       82.975000000000       0.000000000000       9.179300000000
       310    1       79.656000000000       5.748700000000       9.179300000000
       311    2       81.315500000000       0.958112834200      10.858579500600
       312    2       84.634500000000       6.706812834200      10.858579500600
       313    1       86.294000000000       0.000000000000       9.179300000000
       314    1       89.613000000000       5.748700000000       9.179300000000
       315    2       86.294000000000       3.832462834200      10.858579500600
       316    2       89.613000000000       3.832462834200      10.858579500600
       317    2       92.932000000000       9.581162834200      10.858579500600
       318    2       89.613000000000       9.581162834200      10.858579500600
       319    2       91.272500000000       0.958112834200       7.500020499400
       320    2       87.953500000000       6.706812834200       7.500020499400
       321    2       87.953500000000       0.958112834200       7.500020499400
       322    2       91.272500000000       6.706812834200       7.500020499400
       323    2       89.613000000000       3.832462834200       7.500020499400
       324    2       86.294000000000       9.581162834200       7.500020499400
       325    2       91.272500000000       0.958112834200      10.858579500600
       326    2       87.953500000000       6.706812834200      10.858579500600
       327    1       87.953500000000       2.874350000000       9.179300000000
       328    1       91.272500000000       8.623050000000       9.179300000000
       329    1       91.272500000000       2.874350000000       9.179300000000
       330    2       86.294000000000       3.832462834200       7.500020499400
       331    1       87.953500000000       8.623050000000       9.179300000000
       332    2       89.613000000000       9.581162834200       7.500020499400
       333    1       89.613000000000       0.000000000000       9.179300000000
       334    1       86.294000000000       5.748700000000       9.179300000000
       335    2       87.953500000000       0.958112834200      10.858579500600
       336    2       91.272500000000       6.706812834200      10.858579500600
       337    1       92.932000000000       0.000000000000       9.179300000000
       338    1       96.251000000000       5.748700000000       9.179300000000
       339    2       92.932000000000       3.832462834200      10.858579500600
       340    2       96.251000000000       3.832462834200      10.858579500600
       341    2       99.570000000000       9.581162834200      10.858579500600
       342    2       96.251000000000       9.581162834200      10.858579500600
       343    2       97.910500000000       0.958112834200       7.500020499400
       344    2       94.591500000000       6.706812834200       7.500020499400
       345    2       94.591500000000       0.958112834200       7.500020499400
       346    2       97.910500000000       6.706812834200       7.500020499400
       347    2       96.251000000000       3.832462834200       7.500020499400
       348    2       92.932000000000       9.581162834200       7.500020499400
       349    2       97.910500000000       0.958112834200      10.858579500600
       350    2       94.591500000000       6.706812834200      10.858579500600
       351    1       94.591500000000       2.874350000000       9.179300000000
       352    1       97.910500000000       8.623050000000       9.179300000000
       353    1       97.910500000000       2.874350000000       9.179300000000
       354    2       92.932000000000       3.832462834200       7.500020499400
       355    1       94.591500000000       8.623050000000       9.179300000000
       356    2       96.251000000000       9.581162834200       7.500020499400
       357    1       96.251000000000       0.000000000000       9.179300000000
       358    1       92.932000000000       5.748700000000       9.179300000000
       359    2       94.591500000000       0.958112834200      10.858579500600
       360    2       97.910500000000       6.706812834200      10.858579500600
       361    1        0.000000000000      11.497400000000       9.179300000000
       362    1        3.319000000000      17.246100000000       9.179300000000
       363    2        0.000000000000      15.329862834200      10.858579500600
       364    2        3.319000000000      15.329862834200      10.858579500600
       365    2        6.638000000000      21.078562834200      10.858579500600
       366    2        3.319000000000      21.078562834200      10.858579500600
       367    2        4.978500000000      12.455512834200       7.500020499400
       368    2        1.659500000000      18.204212834200       7.500020499400
       369    2        1.659500000000      12.455512834200       7.500020499400
       370    2        4.978500000000      18.204212834200       7.500020499400