 # W8 S16
  
        3456  atoms
           2  atom types
 
      0.000000000000     101.950400000000  xlo xhi
      0.000000000000      99.327600000000  ylo yhi
      0.000000000000      18.145600000000  zlo zhi
 
Masses
 
            1   183.84000000            # W
            2   32.06000000             # S
 
Atoms # atomic
 
         1    1        0.000000000000       0.000000000000       9.072800000000
         2    1        3.185950000000       5.518200000000       9.072800000000
         3    2        4.778925000000       0.919696321200      10.645606171200
         4    2        1.592975000000       6.437896321200      10.645606171200
         5    1        1.592975000000       2.759100000000       9.072800000000
         6    2        6.371900000000       3.678796321200      10.645606171200
         7    1        4.778925000000       8.277300000000       9.072800000000
         8    2        6.371900000000       3.678796321200       7.499993828800
         9    1        4.778925000000       2.759100000000       9.072800000000
        10    2        1.592975000000       0.919696321200       7.499993828800
        11    2        3.185950000000       9.196996321200      10.645606171200
        12    2        3.185950000000       9.196996321200       7.499993828800
        13    1        1.592975000000       8.277300000000       9.072800000000
        14    2        4.778925000000       6.437896321200       7.499993828800
        15    2        3.185950000000       3.678796321200      10.645606171200
        16    2        6.371900000000       9.196996321200      10.645606171200
        17    1        3.185950000000       0.000000000000       9.072800000000
        18    2        1.592975000000       0.919696321200      10.645606171200
        19    1        6.371900000000       5.518200000000       9.072800000000
        20    2        4.778925000000       6.437896321200      10.645606171200
        21    2        4.778925000000       0.919696321200       7.499993828800
        22    2        1.592975000000       6.437896321200       7.499993828800
        23    2        3.185950000000       3.678796321200       7.499993828800
        24    2        6.371900000000       9.196996321200       7.499993828800
        25    1        6.371900000000       0.000000000000       9.072800000000
        26    1        9.557850000000       5.518200000000       9.072800000000
        27    2       11.150825000000       0.919696321200      10.645606171200
        28    2        7.964875000000       6.437896321200      10.645606171200
        29    1        7.964875000000       2.759100000000       9.072800000000
        30    2       12.743800000000       3.678796321200      10.645606171200
        31    1       11.150825000000       8.277300000000       9.072800000000
        32    2       12.743800000000       3.678796321200       7.499993828800
        33    1       11.150825000000       2.759100000000       9.072800000000
        34    2        7.964875000000       0.919696321200       7.499993828800
        35    2        9.557850000000       9.196996321200      10.645606171200
        36    2        9.557850000000       9.196996321200       7.499993828800
        37    1        7.964875000000       8.277300000000       9.072800000000
        38    2       11.150825000000       6.437896321200       7.499993828800
        39    2        9.557850000000       3.678796321200      10.645606171200
        40    2       12.743800000000       9.196996321200      10.645606171200
        41    1        9.557850000000       0.000000000000       9.072800000000
        42    2        7.964875000000       0.919696321200      10.645606171200
        43    1       12.743800000000       5.518200000000       9.072800000000
        44    2       11.150825000000       6.437896321200      10.645606171200
        45    2       11.150825000000       0.919696321200       7.499993828800
        46    2        7.964875000000       6.437896321200       7.499993828800
        47    2        9.557850000000       3.678796321200       7.499993828800
        48    2       12.743800000000       9.196996321200       7.499993828800
        49    1       12.743800000000       0.000000000000       9.072800000000
        50    1       15.929750000000       5.518200000000       9.072800000000
        51    2       17.522725000000       0.919696321200      10.645606171200
        52    2       14.336775000000       6.437896321200      10.645606171200
        53    1       14.336775000000       2.759100000000       9.072800000000
        54    2       19.115700000000       3.678796321200      10.645606171200
        55    1       17.522725000000       8.277300000000       9.072800000000
        56    2       19.115700000000       3.678796321200       7.499993828800
        57    1       17.522725000000       2.759100000000       9.072800000000
        58    2       14.336775000000       0.919696321200       7.499993828800
        59    2       15.929750000000       9.196996321200      10.645606171200
        60    2       15.929750000000       9.196996321200       7.499993828800
        61    1       14.336775000000       8.277300000000       9.072800000000
        62    2       17.522725000000       6.437896321200       7.499993828800
        63    2       15.929750000000       3.678796321200      10.645606171200
        64    2       19.115700000000       9.196996321200      10.645606171200
        65    1       15.929750000000       0.000000000000       9.072800000000
        66    2       14.336775000000       0.919696321200      10.645606171200
        67    1       19.115700000000       5.518200000000       9.072800000000
        68    2       17.522725000000       6.437896321200      10.645606171200
        69    2       17.522725000000       0.919696321200       7.499993828800
        70    2       14.336775000000       6.437896321200       7.499993828800
        71    2       15.929750000000       3.678796321200       7.499993828800
        72    2       19.115700000000       9.196996321200       7.499993828800
        73    1       19.115700000000       0.000000000000       9.072800000000
        74    1       22.301650000000       5.518200000000       9.072800000000
        75    2       23.894625000000       0.919696321200      10.645606171200
        76    2       20.708675000000       6.437896321200      10.645606171200
        77    1       20.708675000000       2.759100000000       9.072800000000
        78    2       25.487600000000       3.678796321200      10.645606171200
        79    1       23.894625000000       8.277300000000       9.072800000000
        80    2       25.487600000000       3.678796321200       7.499993828800
        81    1       23.894625000000       2.759100000000       9.072800000000
        82    2       20.708675000000       0.919696321200       7.499993828800
        83    2       22.301650000000       9.196996321200      10.645606171200
        84    2       22.301650000000       9.196996321200       7.499993828800
        85    1       20.708675000000       8.277300000000       9.072800000000
        86    2       23.894625000000       6.437896321200       7.499993828800
        87    2       22.301650000000       3.678796321200      10.645606171200
        88    2       25.487600000000       9.196996321200      10.645606171200
        89    1       22.301650000000       0.000000000000       9.072800000000
        90    2       20.708675000000       0.919696321200      10.645606171200
        91    1       25.487600000000       5.518200000000       9.072800000000
        92    2       23.894625000000       6.437896321200      10.645606171200
        93    2       23.894625000000       0.919696321200       7.499993828800
        94    2       20.708675000000       6.437896321200       7.499993828800
        95    2       22.301650000000       3.678796321200       7.499993828800
        96    2       25.487600000000       9.196996321200       7.499993828800
        97    1       25.487600000000       0.000000000000       9.072800000000
        98    1       28.673550000000       5.518200000000       9.072800000000
        99    2       30.266525000000       0.919696321200      10.645606171200
       100    2       27.080575000000       6.437896321200      10.645606171200
       101    1       27.080575000000       2.759100000000       9.072800000000
       102    2       31.859500000000       3.678796321200      10.645606171200
       103    1       30.266525000000       8.277300000000       9.072800000000
       104    2       31.859500000000       3.678796321200       7.499993828800
       105    1       30.266525000000       2.759100000000       9.072800000000
       106    2       27.080575000000       0.919696321200       7.499993828800
       107    2       28.673550000000       9.196996321200      10.645606171200
       108    2       28.673550000000       9.196996321200       7.499993828800
       109    1       27.080575000000       8.277300000000       9.072800000000
       110    2       30.266525000000       6.437896321200       7.499993828800
       111    2       28.673550000000       3.678796321200      10.645606171200
       112    2       31.859500000000       9.196996321200      10.645606171200
       113    1       28.673550000000       0.000000000000       9.072800000000
       114    2       27.080575000000       0.919696321200      10.645606171200
       115    1       31.859500000000       5.518200000000       9.072800000000
       116    2       30.266525000000       6.437896321200      10.645606171200
       117    2       30.266525000000       0.919696321200       7.499993828800
       118    2       27.080575000000       6.437896321200       7.499993828800
       119    2       28.673550000000       3.678796321200       7.499993828800
       120    2       31.859500000000       9.196996321200       7.499993828800
       121    1       31.859500000000       0.000000000000       9.072800000000
       122    1       35.045450000000       5.518200000000       9.072800000000
       123    2       36.638425000000       0.919696321200      10.645606171200
       124    2       33.452475000000       6.437896321200      10.645606171200
       125    1       33.452475000000       2.759100000000       9.072800000000
       126    2       38.231400000000       3.678796321200      10.645606171200
       127    1       36.638425000000       8.277300000000       9.072800000000
       128    2       38.231400000000       3.678796321200       7.499993828800
       129    1       36.638425000000       2.759100000000       9.072800000000
       130    2       33.452475000000       0.919696321200       7.499993828800
       131    2       35.045450000000       9.196996321200      10.645606171200
       132    2       35.045450000000       9.196996321200       7.499993828800
       133    1       33.452475000000       8.277300000000       9.072800000000
       134    2       36.638425000000       6.437896321200       7.499993828800
       135    2       35.045450000000       3.678796321200      10.645606171200
       136    2       38.231400000000       9.196996321200      10.645606171200
       137    1       35.045450000000       0.000000000000       9.072800000000
       138    2       33.452475000000       0.919696321200      10.645606171200
       139    1       38.231400000000       5.518200000000       9.072800000000
       140    2       36.638425000000       6.437896321200      10.645606171200
       141    2       36.638425000000       0.919696321200       7.499993828800
       142    2       33.452475000000       6.437896321200       7.499993828800
       143    2       35.045450000000       3.678796321200       7.499993828800
       144    2       38.231400000000       9.196996321200       7.499993828800
       145    1       38.231400000000       0.000000000000       9.072800000000
       146    1       41.417350000000       5.518200000000       9.072800000000
       147    2       43.010325000000       0.919696321200      10.645606171200
       148    2       39.824375000000       6.437896321200      10.645606171200
       149    1       39.824375000000       2.759100000000       9.072800000000
       150    2       44.603300000000       3.678796321200      10.645606171200
       151    1       43.010325000000       8.277300000000       9.072800000000
       152    2       44.603300000000       3.678796321200       7.499993828800
       153    1       43.010325000000       2.759100000000       9.072800000000
       154    2       39.824375000000       0.919696321200       7.499993828800
       155    2       41.417350000000       9.196996321200      10.645606171200
       156    2       41.417350000000       9.196996321200       7.499993828800
       157    1       39.824375000000       8.277300000000       9.072800000000
       158    2       43.010325000000       6.437896321200       7.499993828800
       159    2       41.417350000000       3.678796321200      10.645606171200
       160    2       44.603300000000       9.196996321200      10.645606171200
       161    1       41.417350000000       0.000000000000       9.072800000000
       162    2       39.824375000000       0.919696321200      10.645606171200
       163    1       44.603300000000       5.518200000000       9.072800000000
       164    2       43.010325000000       6.437896321200      10.645606171200
       165    2       43.010325000000       0.919696321200       7.499993828800
       166    2       39.824375000000       6.437896321200       7.499993828800
       167    2       41.417350000000       3.678796321200       7.499993828800
       168    2       44.603300000000       9.196996321200       7.499993828800
       169    1       44.603300000000       0.000000000000       9.072800000000
       170    1       47.789250000000       5.518200000000       9.072800000000
       171    2       49.382225000000       0.919696321200      10.645606171200
       172    2       46.196275000000       6.437896321200      10.645606171200
       173    1       46.196275000000       2.759100000000       9.072800000000
       174    2       50.975200000000       3.678796321200      10.645606171200
       175    1       49.382225000000       8.277300000000       9.072800000000
       176    2       50.975200000000       3.678796321200       7.499993828800
       177    1       49.382225000000       2.759100000000       9.072800000000
       178    2       46.196275000000       0.919696321200       7.499993828800
       179    2       47.789250000000       9.196996321200      10.645606171200
       180    2       47.789250000000       9.196996321200       7.499993828800
       181    1       46.196275000000       8.277300000000       9.072800000000
       182    2       49.382225000000       6.437896321200       7.499993828800
       183    2       47.789250000000       3.678796321200      10.645606171200
       184    2       50.975200000000       9.196996321200      10.645606171200
       185    1       47.789250000000       0.000000000000       9.072800000000
       186    2       46.196275000000       0.919696321200      10.645606171200
       187    1       50.975200000000       5.518200000000       9.072800000000
       188    2       49.382225000000       6.437896321200      10.645606171200
       189    2       49.382225000000       0.919696321200       7.499993828800
       190    2       46.196275000000       6.437896321200       7.499993828800
       191    2       47.789250000000       3.678796321200       7.499993828800
       192    2       50.975200000000       9.196996321200       7.499993828800
       193    1       50.975200000000       0.000000000000       9.072800000000
       194    1       54.161150000000       5.518200000000       9.072800000000
       195    2       55.754125000000       0.919696321200      10.645606171200
       196    2       52.568175000000       6.437896321200      10.645606171200
       197    1       52.568175000000       2.759100000000       9.072800000000
       198    2       57.347100000000       3.678796321200      10.645606171200
       199    1       55.754125000000       8.277300000000       9.072800000000
       200    2       57.347100000000       3.678796321200       7.499993828800
       201    1       55.754125000000       2.759100000000       9.072800000000
       202    2       52.568175000000       0.919696321200       7.499993828800
       203    2       54.161150000000       9.196996321200      10.645606171200
       204    2       54.161150000000       9.196996321200       7.499993828800
       205    1       52.568175000000       8.277300000000       9.072800000000
       206    2       55.754125000000       6.437896321200       7.499993828800
       207    2       54.161150000000       3.678796321200      10.645606171200
       208    2       57.347100000000       9.196996321200      10.645606171200
       209    1       54.161150000000       0.000000000000       9.072800000000
       210    2       52.568175000000       0.919696321200      10.645606171200
       211    1       57.347100000000       5.518200000000       9.072800000000
       212    2       55.754125000000       6.437896321200      10.645606171200
       213    2       55.754125000000       0.919696321200       7.499993828800
       214    2       52.568175000000       6.437896321200       7.499993828800
       215    2       54.161150000000       3.678796321200       7.499993828800
       216    2       57.347100000000       9.196996321200       7.499993828800
       217    1       57.347100000000       0.000000000000       9.072800000000
       218    1       60.533050000000       5.518200000000       9.072800000000
       219    2       62.126025000000       0.919696321200      10.645606171200
       220    2       58.940075000000       6.437896321200      10.645606171200
       221    1       58.940075000000       2.759100000000       9.072800000000
       222    2       63.719000000000       3.678796321200      10.645606171200
       223    1       62.126025000000       8.277300000000       9.072800000000
       224    2       63.719000000000       3.678796321200       7.499993828800
       225    1       62.126025000000       2.759100000000       9.072800000000
       226    2       58.940075000000       0.919696321200       7.499993828800
       227    2       60.533050000000       9.196996321200      10.645606171200
       228    2       60.533050000000       9.196996321200       7.499993828800
       229    1       58.940075000000       8.277300000000       9.072800000000
       230    2       62.126025000000       6.437896321200       7.499993828800
       231    2       60.533050000000       3.678796321200      10.645606171200
       232    2       63.719000000000       9.196996321200      10.645606171200
       233    1       60.533050000000       0.000000000000       9.072800000000
       234    2       58.940075000000       0.919696321200      10.645606171200
       235    1       63.719000000000       5.518200000000       9.072800000000
       236    2       62.126025000000       6.437896321200      10.645606171200
       237    2       62.126025000000       0.919696321200       7.499993828800
       238    2       58.940075000000       6.437896321200       7.499993828800
       239    2       60.533050000000       3.678796321200       7.499993828800
       240    2       63.719000000000       9.196996321200       7.499993828800
       241    1       63.719000000000       0.000000000000       9.072800000000
       242    1       66.904950000000       5.518200000000       9.072800000000
       243    2       68.497925000000       0.919696321200      10.645606171200
       244    2       65.311975000000       6.437896321200      10.645606171200
       245    1       65.311975000000       2.759100000000       9.072800000000
       246    2       70.090900000000       3.678796321200      10.645606171200
       247    1       68.497925000000       8.277300000000       9.072800000000
       248    2       70.090900000000       3.678796321200       7.499993828800
       249    1       68.497925000000       2.759100000000       9.072800000000
       250    2       65.311975000000       0.919696321200       7.499993828800
       251    2       66.904950000000       9.196996321200      10.645606171200
       252    2       66.904950000000       9.196996321200       7.499993828800
       253    1       65.311975000000       8.277300000000       9.072800000000
       254    2       68.497925000000       6.437896321200       7.499993828800
       255    2       66.904950000000       3.678796321200      10.645606171200
       256    2       70.090900000000       9.196996321200      10.645606171200
       257    1       66.904950000000       0.000000000000       9.072800000000
       258    2       65.311975000000       0.919696321200      10.645606171200
       259    1       70.090900000000       5.518200000000       9.072800000000
       260    2       68.497925000000       6.437896321200      10.645606171200
       261    2       68.497925000000       0.919696321200       7.499993828800
       262    2       65.311975000000       6.437896321200       7.499993828800
       263    2       66.904950000000       3.678796321200       7.499993828800
       264    2       70.090900000000       9.196996321200       7.499993828800
       265    1       70.090900000000       0.000000000000       9.072800000000
       266    1       73.276850000000       5.518200000000       9.072800000000
       267    2       74.869825000000       0.919696321200      10.645606171200
       268    2       71.683875000000       6.437896321200      10.645606171200
       269    1       71.683875000000       2.759100000000       9.072800000000
       270    2       76.462800000000       3.678796321200      10.645606171200
       271    1       74.869825000000       8.277300000000       9.072800000000
       272    2       76.462800000000       3.678796321200       7.499993828800
       273    1       74.869825000000       2.759100000000       9.072800000000
       274    2       71.683875000000       0.919696321200       7.499993828800
       275    2       73.276850000000       9.196996321200      10.645606171200
       276    2       73.276850000000       9.196996321200       7.499993828800
       277    1       71.683875000000       8.277300000000       9.072800000000
       278    2       74.869825000000       6.437896321200       7.499993828800
       279    2       73.276850000000       3.678796321200      10.645606171200
       280    2       76.462800000000       9.196996321200      10.645606171200
       281    1       73.276850000000       0.000000000000       9.072800000000
       282    2       71.683875000000       0.919696321200      10.645606171200
       283    1       76.462800000000       5.518200000000       9.072800000000
       284    2       74.869825000000       6.437896321200      10.645606171200
       285    2       74.869825000000       0.919696321200       7.499993828800
       286    2       71.683875000000       6.437896321200       7.499993828800
       287    2       73.276850000000       3.678796321200       7.499993828800
       288    2       76.462800000000       9.196996321200       7.499993828800
       289    1       76.462800000000       0.000000000000       9.072800000000
       290    1       79.648750000000       5.518200000000       9.072800000000
       291    2       81.241725000000       0.919696321200      10.645606171200
       292    2       78.055775000000       6.437896321200      10.645606171200
       293    1       78.055775000000       2.759100000000       9.072800000000
       294    2       82.834700000000       3.678796321200      10.645606171200
       295    1       81.241725000000       8.277300000000       9.072800000000
       296    2       82.834700000000       3.678796321200       7.499993828800
       297    1       81.241725000000       2.759100000000       9.072800000000
       298    2       78.055775000000       0.919696321200       7.499993828800
       299    2       79.648750000000       9.196996321200      10.645606171200
       300    2       79.648750000000       9.196996321200       7.499993828800
       301    1       78.055775000000       8.277300000000       9.072800000000
       302    2       81.241725000000       6.437896321200       7.499993828800
       303    2       79.648750000000       3.678796321200      10.645606171200
       304    2       82.834700000000       9.196996321200      10.645606171200
       305    1       79.648750000000       0.000000000000       9.072800000000
       306    2       78.055775000000       0.919696321200      10.645606171200
       307    1       82.834700000000       5.518200000000       9.072800000000
       308    2       81.241725000000       6.437896321200      10.645606171200
       309    2       81.241725000000       0.919696321200       7.499993828800
       310    2       78.055775000000       6.437896321200       7.499993828800
       311    2       79.648750000000       3.678796321200       7.499993828800
       312    2       82.834700000000       9.196996321200       7.499993828800
       313    1       82.834700000000       0.000000000000       9.072800000000
       314    1       86.020650000000       5.518200000000       9.072800000000
       315    2       87.613625000000       0.919696321200      10.645606171200
       316    2       84.427675000000       6.437896321200      10.645606171200
       317    1       84.427675000000       2.759100000000       9.072800000000
       318    2       89.206600000000       3.678796321200      10.645606171200
       319    1       87.613625000000       8.277300000000       9.072800000000
       320    2       89.206600000000       3.678796321200       7.499993828800
       321    1       87.613625000000       2.759100000000       9.072800000000
       322    2       84.427675000000       0.919696321200       7.499993828800
       323    2       86.020650000000       9.196996321200      10.645606171200
       324    2       86.020650000000       9.196996321200       7.499993828800
       325    1       84.427675000000       8.277300000000       9.072800000000
       326    2       87.613625000000       6.437896321200       7.499993828800
       327    2       86.020650000000       3.678796321200      10.645606171200
       328    2       89.206600000000       9.196996321200      10.645606171200
       329    1       86.020650000000       0.000000000000       9.072800000000
       330    2       84.427675000000       0.919696321200      10.645606171200
       331    1       89.206600000000       5.518200000000       9.072800000000
       332    2       87.613625000000       6.437896321200      10.645606171200
       333    2       87.613625000000       0.919696321200       7.499993828800
       334    2       84.427675000000       6.437896321200       7.499993828800
       335    2       86.020650000000       3.678796321200       7.499993828800
       336    2       89.206600000000       9.196996321200       7.499993828800
       337    1       89.206600000000       0.000000000000       9.072800000000
       338    1       92.392550000000       5.518200000000       9.072800000000
       339    2       93.985525000000       0.919696321200      10.645606171200
       340    2       90.799575000000       6.437896321200      10.645606171200
       341    1       90.799575000000       2.759100000000       9.072800000000
       342    2       95.578500000000       3.678796321200      10.645606171200
       343    1       93.985525000000       8.277300000000       9.072800000000
       344    2       95.578500000000       3.678796321200       7.499993828800
       345    1       93.985525000000       2.759100000000       9.072800000000
       346    2       90.799575000000       0.919696321200       7.499993828800
       347    2       92.392550000000       9.196996321200      10.645606171200
       348    2       92.392550000000       9.196996321200       7.499993828800
       349    1       90.799575000000       8.277300000000       9.072800000000
       350    2       93.985525000000       6.437896321200       7.499993828800
       351    2       92.392550000000       3.678796321200      10.645606171200
       352    2       95.578500000000       9.196996321200      10.645606171200
       353    1       92.392550000000       0.000000000000       9.072800000000
       354    2       90.799575000000       0.919696321200      10.645606171200
       355    1       95.578500000000       5.518200000000       9.072800000000
       356    2       93.985525000000       6.437896321200      10.645606171200
       357    2       93.985525000000       0.919696321200       7.499993828800
       358    2       90.799575000000       6.437896321200       7.499993828800
       359    2       92.392550000000       3.678796321200       7.499993828800
       360    2       95.578500000000       9.196996321200       7.499993828800
       361    1       95.578500000000       0.000000000000       9.072800000000
       362    1       98.764450000000       5.518200000000       9.072800000000
       363    2      100.357425000000       0.919696321200      10.645606171200
       364    2       97.171475000000       6.437896321200      10.645606171200
       365    1       97.171475000000       2.759100000000       9.072800000000
       366    2      101.950400000000       3.678796321200      10.645606171200
       367    1      100.357425000000       8.277300000000       9.072800000000
       368    2      101.950400000000       3.678796321200       7.499993828800
       369    1      100.357425000000       2.759100000000       9.072800000000
       370    2       97.171475000000       0.919696321200       7.499993828800