 # In16 Te16
  
        2464  atoms
           2  atom types
 
      0.000000000000      96.386400000000  xlo xhi
      0.000000000000     106.238300000000  ylo yhi
      0.000000000000      20.557700000000  zlo zhi
 
Masses
 
            1   114.81800000            # In
            2   127.60000000            # Te
 
Atoms # atomic
 
         1    1        6.571773712800       6.324411529700       8.874553513000
         2    1        2.190573712800      13.912861529700       8.874553513000
         3    1        2.190635049600       6.324214230000      11.683146487000
         4    2        2.190573712800       3.794407122800      13.057716539800
         5    2        6.571773712800      11.382857122800      13.057716539800
         6    1        6.571835049600      13.912664230000      11.683146487000
         7    2        6.571835049600       1.264842846000       7.499983460200
         8    2        8.762373712800       0.000182122800      13.057716539800
         9    2        2.190635049600       1.264842846000       7.499983460200
        10    1        4.381235049600       2.529989230000      11.683146487000
        11    2        4.381173712800       7.588632122800      13.057716539800
        12    2        2.190635049600       8.853292846000       7.499983460200
        13    1        0.000035049600      10.118439230000      11.683146487000
        14    2        6.571835049600       8.853292846000       7.499983460200
        15    1        2.190573712800       6.324411529700       8.874553513000
        16    1        6.571773712800      13.912861529700       8.874553513000
        17    1        8.762373712800       2.530186529700       8.874553513000
        18    1        4.381173712800      10.118636529700       8.874553513000
        19    1        4.381173712800       2.530186529700       8.874553513000
        20    1        8.762373712800      10.118636529700       8.874553513000
        21    2        4.381235049600       5.059067846000       7.499983460200
        22    2        0.000035049600      12.647517846000       7.499983460200
        23    1        6.571835049600       6.324214230000      11.683146487000
        24    1        2.190635049600      13.912664230000      11.683146487000
        25    2        4.381173712800       0.000182122800      13.057716539800
        26    2        8.762373712800       7.588632122800      13.057716539800
        27    1        0.000035049600       2.529989230000      11.683146487000
        28    1        4.381235049600      10.118439230000      11.683146487000
        29    2        6.571773712800       3.794407122800      13.057716539800
        30    2        2.190573712800      11.382857122800      13.057716539800
        31    2        0.000035049600       5.059067846000       7.499983460200
        32    2        4.381235049600      12.647517846000       7.499983460200
        33    1       15.334173712800       6.324411529700       8.874553513000
        34    1       10.952973712800      13.912861529700       8.874553513000
        35    1       10.953035049600       6.324214230000      11.683146487000
        36    2       10.952973712800       3.794407122800      13.057716539800
        37    2       15.334173712800      11.382857122800      13.057716539800
        38    1       15.334235049600      13.912664230000      11.683146487000
        39    2       15.334235049600       1.264842846000       7.499983460200
        40    2       17.524773712800       0.000182122800      13.057716539800
        41    2       10.953035049600       1.264842846000       7.499983460200
        42    1       13.143635049600       2.529989230000      11.683146487000
        43    2       13.143573712800       7.588632122800      13.057716539800
        44    2       10.953035049600       8.853292846000       7.499983460200
        45    1        8.762435049600      10.118439230000      11.683146487000
        46    2       15.334235049600       8.853292846000       7.499983460200
        47    1       10.952973712800       6.324411529700       8.874553513000
        48    1       15.334173712800      13.912861529700       8.874553513000
        49    1       17.524773712800       2.530186529700       8.874553513000
        50    1       13.143573712800      10.118636529700       8.874553513000
        51    1       13.143573712800       2.530186529700       8.874553513000
        52    1       17.524773712800      10.118636529700       8.874553513000
        53    2       13.143635049600       5.059067846000       7.499983460200
        54    2        8.762435049600      12.647517846000       7.499983460200
        55    1       15.334235049600       6.324214230000      11.683146487000
        56    1       10.953035049600      13.912664230000      11.683146487000
        57    2       13.143573712800       0.000182122800      13.057716539800
        58    2       17.524773712800       7.588632122800      13.057716539800
        59    1        8.762435049600       2.529989230000      11.683146487000
        60    1       13.143635049600      10.118439230000      11.683146487000
        61    2       15.334173712800       3.794407122800      13.057716539800
        62    2       10.952973712800      11.382857122800      13.057716539800
        63    2        8.762435049600       5.059067846000       7.499983460200
        64    2       13.143635049600      12.647517846000       7.499983460200
        65    1       24.096573712800       6.324411529700       8.874553513000
        66    1       19.715373712800      13.912861529700       8.874553513000
        67    1       19.715435049600       6.324214230000      11.683146487000
        68    2       19.715373712800       3.794407122800      13.057716539800
        69    2       24.096573712800      11.382857122800      13.057716539800
        70    1       24.096635049600      13.912664230000      11.683146487000
        71    2       24.096635049600       1.264842846000       7.499983460200
        72    2       26.287173712800       0.000182122800      13.057716539800
        73    2       19.715435049600       1.264842846000       7.499983460200
        74    1       21.906035049600       2.529989230000      11.683146487000
        75    2       21.905973712800       7.588632122800      13.057716539800
        76    2       19.715435049600       8.853292846000       7.499983460200
        77    1       17.524835049600      10.118439230000      11.683146487000
        78    2       24.096635049600       8.853292846000       7.499983460200
        79    1       19.715373712800       6.324411529700       8.874553513000
        80    1       24.096573712800      13.912861529700       8.874553513000
        81    1       26.287173712800       2.530186529700       8.874553513000
        82    1       21.905973712800      10.118636529700       8.874553513000
        83    1       21.905973712800       2.530186529700       8.874553513000
        84    1       26.287173712800      10.118636529700       8.874553513000
        85    2       21.906035049600       5.059067846000       7.499983460200
        86    2       17.524835049600      12.647517846000       7.499983460200
        87    1       24.096635049600       6.324214230000      11.683146487000
        88    1       19.715435049600      13.912664230000      11.683146487000
        89    2       21.905973712800       0.000182122800      13.057716539800
        90    2       26.287173712800       7.588632122800      13.057716539800
        91    1       17.524835049600       2.529989230000      11.683146487000
        92    1       21.906035049600      10.118439230000      11.683146487000
        93    2       24.096573712800       3.794407122800      13.057716539800
        94    2       19.715373712800      11.382857122800      13.057716539800
        95    2       17.524835049600       5.059067846000       7.499983460200
        96    2       21.906035049600      12.647517846000       7.499983460200
        97    1       32.858973712800       6.324411529700       8.874553513000
        98    1       28.477773712800      13.912861529700       8.874553513000
        99    1       28.477835049600       6.324214230000      11.683146487000
       100    2       28.477773712800       3.794407122800      13.057716539800
       101    2       32.858973712800      11.382857122800      13.057716539800
       102    1       32.859035049600      13.912664230000      11.683146487000
       103    2       32.859035049600       1.264842846000       7.499983460200
       104    2       35.049573712800       0.000182122800      13.057716539800
       105    2       28.477835049600       1.264842846000       7.499983460200
       106    1       30.668435049600       2.529989230000      11.683146487000
       107    2       30.668373712800       7.588632122800      13.057716539800
       108    2       28.477835049600       8.853292846000       7.499983460200
       109    1       26.287235049600      10.118439230000      11.683146487000
       110    2       32.859035049600       8.853292846000       7.499983460200
       111    1       28.477773712800       6.324411529700       8.874553513000
       112    1       32.858973712800      13.912861529700       8.874553513000
       113    1       35.049573712800       2.530186529700       8.874553513000
       114    1       30.668373712800      10.118636529700       8.874553513000
       115    1       30.668373712800       2.530186529700       8.874553513000
       116    1       35.049573712800      10.118636529700       8.874553513000
       117    2       30.668435049600       5.059067846000       7.499983460200
       118    2       26.287235049600      12.647517846000       7.499983460200
       119    1       32.859035049600       6.324214230000      11.683146487000
       120    1       28.477835049600      13.912664230000      11.683146487000
       121    2       30.668373712800       0.000182122800      13.057716539800
       122    2       35.049573712800       7.588632122800      13.057716539800
       123    1       26.287235049600       2.529989230000      11.683146487000
       124    1       30.668435049600      10.118439230000      11.683146487000
       125    2       32.858973712800       3.794407122800      13.057716539800
       126    2       28.477773712800      11.382857122800      13.057716539800
       127    2       26.287235049600       5.059067846000       7.499983460200
       128    2       30.668435049600      12.647517846000       7.499983460200
       129    1       41.621373712800       6.324411529700       8.874553513000
       130    1       37.240173712800      13.912861529700       8.874553513000
       131    1       37.240235049600       6.324214230000      11.683146487000
       132    2       37.240173712800       3.794407122800      13.057716539800
       133    2       41.621373712800      11.382857122800      13.057716539800
       134    1       41.621435049600      13.912664230000      11.683146487000
       135    2       41.621435049600       1.264842846000       7.499983460200
       136    2       43.811973712800       0.000182122800      13.057716539800
       137    2       37.240235049600       1.264842846000       7.499983460200
       138    1       39.430835049600       2.529989230000      11.683146487000
       139    2       39.430773712800       7.588632122800      13.057716539800
       140    2       37.240235049600       8.853292846000       7.499983460200
       141    1       35.049635049600      10.118439230000      11.683146487000
       142    2       41.621435049600       8.853292846000       7.499983460200
       143    1       37.240173712800       6.324411529700       8.874553513000
       144    1       41.621373712800      13.912861529700       8.874553513000
       145    1       43.811973712800       2.530186529700       8.874553513000
       146    1       39.430773712800      10.118636529700       8.874553513000
       147    1       39.430773712800       2.530186529700       8.874553513000
       148    1       43.811973712800      10.118636529700       8.874553513000
       149    2       39.430835049600       5.059067846000       7.499983460200
       150    2       35.049635049600      12.647517846000       7.499983460200
       151    1       41.621435049600       6.324214230000      11.683146487000
       152    1       37.240235049600      13.912664230000      11.683146487000
       153    2       39.430773712800       0.000182122800      13.057716539800
       154    2       43.811973712800       7.588632122800      13.057716539800
       155    1       35.049635049600       2.529989230000      11.683146487000
       156    1       39.430835049600      10.118439230000      11.683146487000
       157    2       41.621373712800       3.794407122800      13.057716539800
       158    2       37.240173712800      11.382857122800      13.057716539800
       159    2       35.049635049600       5.059067846000       7.499983460200
       160    2       39.430835049600      12.647517846000       7.499983460200
       161    1       50.383773712800       6.324411529700       8.874553513000
       162    1       46.002573712800      13.912861529700       8.874553513000
       163    1       46.002635049600       6.324214230000      11.683146487000
       164    2       46.002573712800       3.794407122800      13.057716539800
       165    2       50.383773712800      11.382857122800      13.057716539800
       166    1       50.383835049600      13.912664230000      11.683146487000
       167    2       50.383835049600       1.264842846000       7.499983460200
       168    2       52.574373712800       0.000182122800      13.057716539800
       169    2       46.002635049600       1.264842846000       7.499983460200
       170    1       48.193235049600       2.529989230000      11.683146487000
       171    2       48.193173712800       7.588632122800      13.057716539800
       172    2       46.002635049600       8.853292846000       7.499983460200
       173    1       43.812035049600      10.118439230000      11.683146487000
       174    2       50.383835049600       8.853292846000       7.499983460200
       175    1       46.002573712800       6.324411529700       8.874553513000
       176    1       50.383773712800      13.912861529700       8.874553513000
       177    1       52.574373712800       2.530186529700       8.874553513000
       178    1       48.193173712800      10.118636529700       8.874553513000
       179    1       48.193173712800       2.530186529700       8.874553513000
       180    1       52.574373712800      10.118636529700       8.874553513000
       181    2       48.193235049600       5.059067846000       7.499983460200
       182    2       43.812035049600      12.647517846000       7.499983460200
       183    1       50.383835049600       6.324214230000      11.683146487000
       184    1       46.002635049600      13.912664230000      11.683146487000
       185    2       48.193173712800       0.000182122800      13.057716539800
       186    2       52.574373712800       7.588632122800      13.057716539800
       187    1       43.812035049600       2.529989230000      11.683146487000
       188    1       48.193235049600      10.118439230000      11.683146487000
       189    2       50.383773712800       3.794407122800      13.057716539800
       190    2       46.002573712800      11.382857122800      13.057716539800
       191    2       43.812035049600       5.059067846000       7.499983460200
       192    2       48.193235049600      12.647517846000       7.499983460200
       193    1       59.146173712800       6.324411529700       8.874553513000
       194    1       54.764973712800      13.912861529700       8.874553513000
       195    1       54.765035049600       6.324214230000      11.683146487000
       196    2       54.764973712800       3.794407122800      13.057716539800
       197    2       59.146173712800      11.382857122800      13.057716539800
       198    1       59.146235049600      13.912664230000      11.683146487000
       199    2       59.146235049600       1.264842846000       7.499983460200
       200    2       61.336773712800       0.000182122800      13.057716539800
       201    2       54.765035049600       1.264842846000       7.499983460200
       202    1       56.955635049600       2.529989230000      11.683146487000
       203    2       56.955573712800       7.588632122800      13.057716539800
       204    2       54.765035049600       8.853292846000       7.499983460200
       205    1       52.574435049600      10.118439230000      11.683146487000
       206    2       59.146235049600       8.853292846000       7.499983460200
       207    1       54.764973712800       6.324411529700       8.874553513000
       208    1       59.146173712800      13.912861529700       8.874553513000
       209    1       61.336773712800       2.530186529700       8.874553513000
       210    1       56.955573712800      10.118636529700       8.874553513000
       211    1       56.955573712800       2.530186529700       8.874553513000
       212    1       61.336773712800      10.118636529700       8.874553513000
       213    2       56.955635049600       5.059067846000       7.499983460200
       214    2       52.574435049600      12.647517846000       7.499983460200
       215    1       59.146235049600       6.324214230000      11.683146487000
       216    1       54.765035049600      13.912664230000      11.683146487000
       217    2       56.955573712800       0.000182122800      13.057716539800
       218    2       61.336773712800       7.588632122800      13.057716539800
       219    1       52.574435049600       2.529989230000      11.683146487000
       220    1       56.955635049600      10.118439230000      11.683146487000
       221    2       59.146173712800       3.794407122800      13.057716539800
       222    2       54.764973712800      11.382857122800      13.057716539800
       223    2       52.574435049600       5.059067846000       7.499983460200
       224    2       56.955635049600      12.647517846000       7.499983460200
       225    1       67.908573712800       6.324411529700       8.874553513000
       226    1       63.527373712800      13.912861529700       8.874553513000
       227    1       63.527435049600       6.324214230000      11.683146487000
       228    2       63.527373712800       3.794407122800      13.057716539800
       229    2       67.908573712800      11.382857122800      13.057716539800
       230    1       67.908635049600      13.912664230000      11.683146487000
       231    2       67.908635049600       1.264842846000       7.499983460200
       232    2       70.099173712800       0.000182122800      13.057716539800
       233    2       63.527435049600       1.264842846000       7.499983460200
       234    1       65.718035049600       2.529989230000      11.683146487000
       235    2       65.717973712800       7.588632122800      13.057716539800
       236    2       63.527435049600       8.853292846000       7.499983460200
       237    1       61.336835049600      10.118439230000      11.683146487000
       238    2       67.908635049600       8.853292846000       7.499983460200
       239    1       63.527373712800       6.324411529700       8.874553513000
       240    1       67.908573712800      13.912861529700       8.874553513000
       241    1       70.099173712800       2.530186529700       8.874553513000
       242    1       65.717973712800      10.118636529700       8.874553513000
       243    1       65.717973712800       2.530186529700       8.874553513000
       244    1       70.099173712800      10.118636529700       8.874553513000
       245    2       65.718035049600       5.059067846000       7.499983460200
       246    2       61.336835049600      12.647517846000       7.499983460200
       247    1       67.908635049600       6.324214230000      11.683146487000
       248    1       63.527435049600      13.912664230000      11.683146487000
       249    2       65.717973712800       0.000182122800      13.057716539800
       250    2       70.099173712800       7.588632122800      13.057716539800
       251    1       61.336835049600       2.529989230000      11.683146487000
       252    1       65.718035049600      10.118439230000      11.683146487000
       253    2       67.908573712800       3.794407122800      13.057716539800
       254    2       63.527373712800      11.382857122800      13.057716539800
       255    2       61.336835049600       5.059067846000       7.499983460200
       256    2       65.718035049600      12.647517846000       7.499983460200
       257    1       76.670973712800       6.324411529700       8.874553513000
       258    1       72.289773712800      13.912861529700       8.874553513000
       259    1       72.289835049600       6.324214230000      11.683146487000
       260    2       72.289773712800       3.794407122800      13.057716539800
       261    2       76.670973712800      11.382857122800      13.057716539800
       262    1       76.671035049600      13.912664230000      11.683146487000
       263    2       76.671035049600       1.264842846000       7.499983460200
       264    2       78.861573712800       0.000182122800      13.057716539800
       265    2       72.289835049600       1.264842846000       7.499983460200
       266    1       74.480435049600       2.529989230000      11.683146487000
       267    2       74.480373712800       7.588632122800      13.057716539800
       268    2       72.289835049600       8.853292846000       7.499983460200
       269    1       70.099235049600      10.118439230000      11.683146487000
       270    2       76.671035049600       8.853292846000       7.499983460200
       271    1       72.289773712800       6.324411529700       8.874553513000
       272    1       76.670973712800      13.912861529700       8.874553513000
       273    1       78.861573712800       2.530186529700       8.874553513000
       274    1       74.480373712800      10.118636529700       8.874553513000
       275    1       74.480373712800       2.530186529700       8.874553513000
       276    1       78.861573712800      10.118636529700       8.874553513000
       277    2       74.480435049600       5.059067846000       7.499983460200
       278    2       70.099235049600      12.647517846000       7.499983460200
       279    1       76.671035049600       6.324214230000      11.683146487000
       280    1       72.289835049600      13.912664230000      11.683146487000
       281    2       74.480373712800       0.000182122800      13.057716539800
       282    2       78.861573712800       7.588632122800      13.057716539800
       283    1       70.099235049600       2.529989230000      11.683146487000
       284    1       74.480435049600      10.118439230000      11.683146487000
       285    2       76.670973712800       3.794407122800      13.057716539800
       286    2       72.289773712800      11.382857122800      13.057716539800
       287    2       70.099235049600       5.059067846000       7.499983460200
       288    2       74.480435049600      12.647517846000       7.499983460200
       289    1       85.433373712800       6.324411529700       8.874553513000
       290    1       81.052173712800      13.912861529700       8.874553513000
       291    1       81.052235049600       6.324214230000      11.683146487000
       292    2       81.052173712800       3.794407122800      13.057716539800
       293    2       85.433373712800      11.382857122800      13.057716539800
       294    1       85.433435049600      13.912664230000      11.683146487000
       295    2       85.433435049600       1.264842846000       7.499983460200
       296    2       87.623973712800       0.000182122800      13.057716539800
       297    2       81.052235049600       1.264842846000       7.499983460200
       298    1       83.242835049600       2.529989230000      11.683146487000
       299    2       83.242773712800       7.588632122800      13.057716539800
       300    2       81.052235049600       8.853292846000       7.499983460200
       301    1       78.861635049600      10.118439230000      11.683146487000
       302    2       85.433435049600       8.853292846000       7.499983460200
       303    1       81.052173712800       6.324411529700       8.874553513000
       304    1       85.433373712800      13.912861529700       8.874553513000
       305    1       87.623973712800       2.530186529700       8.874553513000
       306    1       83.242773712800      10.118636529700       8.874553513000
       307    1       83.242773712800       2.530186529700       8.874553513000
       308    1       87.623973712800      10.118636529700       8.874553513000
       309    2       83.242835049600       5.059067846000       7.499983460200
       310    2       78.861635049600      12.647517846000       7.499983460200
       311    1       85.433435049600       6.324214230000      11.683146487000
       312    1       81.052235049600      13.912664230000      11.683146487000
       313    2       83.242773712800       0.000182122800      13.057716539800
       314    2       87.623973712800       7.588632122800      13.057716539800
       315    1       78.861635049600       2.529989230000      11.683146487000
       316    1       83.242835049600      10.118439230000      11.683146487000
       317    2       85.433373712800       3.794407122800      13.057716539800
       318    2       81.052173712800      11.382857122800      13.057716539800
       319    2       78.861635049600       5.059067846000       7.499983460200
       320    2       83.242835049600      12.647517846000       7.499983460200
       321    1       94.195773712800       6.324411529700       8.874553513000
       322    1       89.814573712800      13.912861529700       8.874553513000
       323    1       89.814635049600       6.324214230000      11.683146487000
       324    2       89.814573712800       3.794407122800      13.057716539800
       325    2       94.195773712800      11.382857122800      13.057716539800
       326    1       94.195835049600      13.912664230000      11.683146487000
       327    2       94.195835049600       1.264842846000       7.499983460200
       328    2       96.386373712800       0.000182122800      13.057716539800
       329    2       89.814635049600       1.264842846000       7.499983460200
       330    1       92.005235049600       2.529989230000      11.683146487000
       331    2       92.005173712800       7.588632122800      13.057716539800
       332    2       89.814635049600       8.853292846000       7.499983460200
       333    1       87.624035049600      10.118439230000      11.683146487000
       334    2       94.195835049600       8.853292846000       7.499983460200
       335    1       89.814573712800       6.324411529700       8.874553513000
       336    1       94.195773712800      13.912861529700       8.874553513000
       337    1       96.386373712800       2.530186529700       8.874553513000
       338    1       92.005173712800      10.118636529700       8.874553513000
       339    1       92.005173712800       2.530186529700       8.874553513000
       340    1       96.386373712800      10.118636529700       8.874553513000
       341    2       92.005235049600       5.059067846000       7.499983460200
       342    2       87.624035049600      12.647517846000       7.499983460200
       343    1       94.195835049600       6.324214230000      11.683146487000
       344    1       89.814635049600      13.912664230000      11.683146487000
       345    2       92.005173712800       0.000182122800      13.057716539800
       346    2       96.386373712800       7.588632122800      13.057716539800
       347    1       87.624035049600       2.529989230000      11.683146487000
       348    1       92.005235049600      10.118439230000      11.683146487000
       349    2       94.195773712800       3.794407122800      13.057716539800
       350    2       89.814573712800      11.382857122800      13.057716539800
       351    2       87.624035049600       5.059067846000       7.499983460200
       352    2       92.005235049600      12.647517846000       7.499983460200
       353    1        6.571773712800      21.501311529700       8.874553513000
       354    1        2.190573712800      29.089761529700       8.874553513000
       355    1        2.190635049600      21.501114230000      11.683146487000
       356    2        2.190573712800      18.971307122800      13.057716539800
       357    2        6.571773712800      26.559757122800      13.057716539800
       358    1        6.571835049600      29.089564230000      11.683146487000
       359    2        6.571835049600      16.441742846000       7.499983460200
       360    2        8.762373712800      15.177082122800      13.057716539800
       361    2        2.190635049600      16.441742846000       7.499983460200
       362    1        4.381235049600      17.706889230000      11.683146487000
       363    2        4.381173712800      22.765532122800      13.057716539800
       364    2        2.190635049600      24.030192846000       7.499983460200
       365    1        0.000035049600      25.295339230000      11.683146487000
       366    2        6.571835049600      24.030192846000       7.499983460200
       367    1        2.190573712800      21.501311529700       8.874553513000
       368    1        6.571773712800      29.089761529700       8.874553513000
       369    1        8.762373712800      17.707086529700       8.874553513000
       370    1        4.381173712800      25.295536529700       8.874553513000