 # Sb32
  
        1760  atoms
           1  atom types
 
      0.000000000000      94.600000000000  xlo xhi
      0.000000000000      95.920000000000  ylo yhi
      0.000000000000     105.555000000000  zlo zhi
 
Masses
 
            1   121.76000000            # Sb
 
Atoms # atomic
 
         1    1        0.291878840000       2.679996080000      51.855371520000
         2    1        0.708118840000       2.679996080000      54.699550995000
         3    1        2.656878840000       0.499996080000      55.074587910000
         4    1        3.073118840000       0.499996080000      52.230408435000
         5    1        5.021878840000       2.679996080000      51.855371520000
         6    1        5.438118840000       2.679996080000      54.699550995000
         7    1        7.386878840000       0.499996080000      55.074587910000
         8    1        7.803118840000       0.499996080000      52.230408435000
         9    1        9.751878840000       2.679996080000      51.855371520000
        10    1       10.168118840000       2.679996080000      54.699550995000
        11    1       12.116878840000       0.499996080000      55.074587910000
        12    1       12.533118840000       0.499996080000      52.230408435000
        13    1       14.481878840000       2.679996080000      51.855371520000
        14    1       14.898118840000       2.679996080000      54.699550995000
        15    1       16.846878840000       0.499996080000      55.074587910000
        16    1       17.263118840000       0.499996080000      52.230408435000
        17    1        0.291878840000       7.039996080000      51.855371520000
        18    1        0.708118840000       7.039996080000      54.699550995000
        19    1        2.656878840000       4.859996080000      55.074587910000
        20    1        3.073118840000       4.859996080000      52.230408435000
        21    1        5.021878840000       7.039996080000      51.855371520000
        22    1        5.438118840000       7.039996080000      54.699550995000
        23    1        7.386878840000       4.859996080000      55.074587910000
        24    1        7.803118840000       4.859996080000      52.230408435000
        25    1        9.751878840000       7.039996080000      51.855371520000
        26    1       10.168118840000       7.039996080000      54.699550995000
        27    1       12.116878840000       4.859996080000      55.074587910000
        28    1       12.533118840000       4.859996080000      52.230408435000
        29    1       14.481878840000       7.039996080000      51.855371520000
        30    1       14.898118840000       7.039996080000      54.699550995000
        31    1       16.846878840000       4.859996080000      55.074587910000
        32    1       17.263118840000       4.859996080000      52.230408435000
        33    1       19.211878840000       2.679996080000      51.855371520000
        34    1       19.628118840000       2.679996080000      54.699550995000
        35    1       21.576878840000       0.499996080000      55.074587910000
        36    1       21.993118840000       0.499996080000      52.230408435000
        37    1       23.941878840000       2.679996080000      51.855371520000
        38    1       24.358118840000       2.679996080000      54.699550995000
        39    1       26.306878840000       0.499996080000      55.074587910000
        40    1       26.723118840000       0.499996080000      52.230408435000
        41    1       28.671878840000       2.679996080000      51.855371520000
        42    1       29.088118840000       2.679996080000      54.699550995000
        43    1       31.036878840000       0.499996080000      55.074587910000
        44    1       31.453118840000       0.499996080000      52.230408435000
        45    1       33.401878840000       2.679996080000      51.855371520000
        46    1       33.818118840000       2.679996080000      54.699550995000
        47    1       35.766878840000       0.499996080000      55.074587910000
        48    1       36.183118840000       0.499996080000      52.230408435000
        49    1       19.211878840000       7.039996080000      51.855371520000
        50    1       19.628118840000       7.039996080000      54.699550995000
        51    1       21.576878840000       4.859996080000      55.074587910000
        52    1       21.993118840000       4.859996080000      52.230408435000
        53    1       23.941878840000       7.039996080000      51.855371520000
        54    1       24.358118840000       7.039996080000      54.699550995000
        55    1       26.306878840000       4.859996080000      55.074587910000
        56    1       26.723118840000       4.859996080000      52.230408435000
        57    1       28.671878840000       7.039996080000      51.855371520000
        58    1       29.088118840000       7.039996080000      54.699550995000
        59    1       31.036878840000       4.859996080000      55.074587910000
        60    1       31.453118840000       4.859996080000      52.230408435000
        61    1       33.401878840000       7.039996080000      51.855371520000
        62    1       33.818118840000       7.039996080000      54.699550995000
        63    1       35.766878840000       4.859996080000      55.074587910000
        64    1       36.183118840000       4.859996080000      52.230408435000
        65    1       38.131878840000       2.679996080000      51.855371520000
        66    1       38.548118840000       2.679996080000      54.699550995000
        67    1       40.496878840000       0.499996080000      55.074587910000
        68    1       40.913118840000       0.499996080000      52.230408435000
        69    1       42.861878840000       2.679996080000      51.855371520000
        70    1       43.278118840000       2.679996080000      54.699550995000
        71    1       45.226878840000       0.499996080000      55.074587910000
        72    1       45.643118840000       0.499996080000      52.230408435000
        73    1       47.591878840000       2.679996080000      51.855371520000
        74    1       48.008118840000       2.679996080000      54.699550995000
        75    1       49.956878840000       0.499996080000      55.074587910000
        76    1       50.373118840000       0.499996080000      52.230408435000
        77    1       52.321878840000       2.679996080000      51.855371520000
        78    1       52.738118840000       2.679996080000      54.699550995000
        79    1       54.686878840000       0.499996080000      55.074587910000
        80    1       55.103118840000       0.499996080000      52.230408435000
        81    1       38.131878840000       7.039996080000      51.855371520000
        82    1       38.548118840000       7.039996080000      54.699550995000
        83    1       40.496878840000       4.859996080000      55.074587910000
        84    1       40.913118840000       4.859996080000      52.230408435000
        85    1       42.861878840000       7.039996080000      51.855371520000
        86    1       43.278118840000       7.039996080000      54.699550995000
        87    1       45.226878840000       4.859996080000      55.074587910000
        88    1       45.643118840000       4.859996080000      52.230408435000
        89    1       47.591878840000       7.039996080000      51.855371520000
        90    1       48.008118840000       7.039996080000      54.699550995000
        91    1       49.956878840000       4.859996080000      55.074587910000
        92    1       50.373118840000       4.859996080000      52.230408435000
        93    1       52.321878840000       7.039996080000      51.855371520000
        94    1       52.738118840000       7.039996080000      54.699550995000
        95    1       54.686878840000       4.859996080000      55.074587910000
        96    1       55.103118840000       4.859996080000      52.230408435000
        97    1       57.051878840000       2.679996080000      51.855371520000
        98    1       57.468118840000       2.679996080000      54.699550995000
        99    1       59.416878840000       0.499996080000      55.074587910000
       100    1       59.833118840000       0.499996080000      52.230408435000
       101    1       61.781878840000       2.679996080000      51.855371520000
       102    1       62.198118840000       2.679996080000      54.699550995000
       103    1       64.146878840000       0.499996080000      55.074587910000
       104    1       64.563118840000       0.499996080000      52.230408435000
       105    1       66.511878840000       2.679996080000      51.855371520000
       106    1       66.928118840000       2.679996080000      54.699550995000
       107    1       68.876878840000       0.499996080000      55.074587910000
       108    1       69.293118840000       0.499996080000      52.230408435000
       109    1       71.241878840000       2.679996080000      51.855371520000
       110    1       71.658118840000       2.679996080000      54.699550995000
       111    1       73.606878840000       0.499996080000      55.074587910000
       112    1       74.023118840000       0.499996080000      52.230408435000
       113    1       57.051878840000       7.039996080000      51.855371520000
       114    1       57.468118840000       7.039996080000      54.699550995000
       115    1       59.416878840000       4.859996080000      55.074587910000
       116    1       59.833118840000       4.859996080000      52.230408435000
       117    1       61.781878840000       7.039996080000      51.855371520000
       118    1       62.198118840000       7.039996080000      54.699550995000
       119    1       64.146878840000       4.859996080000      55.074587910000
       120    1       64.563118840000       4.859996080000      52.230408435000
       121    1       66.511878840000       7.039996080000      51.855371520000
       122    1       66.928118840000       7.039996080000      54.699550995000
       123    1       68.876878840000       4.859996080000      55.074587910000
       124    1       69.293118840000       4.859996080000      52.230408435000
       125    1       71.241878840000       7.039996080000      51.855371520000
       126    1       71.658118840000       7.039996080000      54.699550995000
       127    1       73.606878840000       4.859996080000      55.074587910000
       128    1       74.023118840000       4.859996080000      52.230408435000
       129    1       75.971878840000       2.679996080000      51.855371520000
       130    1       76.388118840000       2.679996080000      54.699550995000
       131    1       78.336878840000       0.499996080000      55.074587910000
       132    1       78.753118840000       0.499996080000      52.230408435000
       133    1       80.701878840000       2.679996080000      51.855371520000
       134    1       81.118118840000       2.679996080000      54.699550995000
       135    1       83.066878840000       0.499996080000      55.074587910000
       136    1       83.483118840000       0.499996080000      52.230408435000
       137    1       85.431878840000       2.679996080000      51.855371520000
       138    1       85.848118840000       2.679996080000      54.699550995000
       139    1       87.796878840000       0.499996080000      55.074587910000
       140    1       88.213118840000       0.499996080000      52.230408435000
       141    1       90.161878840000       2.679996080000      51.855371520000
       142    1       90.578118840000       2.679996080000      54.699550995000
       143    1       92.526878840000       0.499996080000      55.074587910000
       144    1       92.943118840000       0.499996080000      52.230408435000
       145    1       75.971878840000       7.039996080000      51.855371520000
       146    1       76.388118840000       7.039996080000      54.699550995000
       147    1       78.336878840000       4.859996080000      55.074587910000
       148    1       78.753118840000       4.859996080000      52.230408435000
       149    1       80.701878840000       7.039996080000      51.855371520000
       150    1       81.118118840000       7.039996080000      54.699550995000
       151    1       83.066878840000       4.859996080000      55.074587910000
       152    1       83.483118840000       4.859996080000      52.230408435000
       153    1       85.431878840000       7.039996080000      51.855371520000
       154    1       85.848118840000       7.039996080000      54.699550995000
       155    1       87.796878840000       4.859996080000      55.074587910000
       156    1       88.213118840000       4.859996080000      52.230408435000
       157    1       90.161878840000       7.039996080000      51.855371520000
       158    1       90.578118840000       7.039996080000      54.699550995000
       159    1       92.526878840000       4.859996080000      55.074587910000
       160    1       92.943118840000       4.859996080000      52.230408435000
       161    1        0.291878840000      11.399996080000      51.855371520000
       162    1        0.708118840000      11.399996080000      54.699550995000
       163    1        2.656878840000       9.219996080000      55.074587910000
       164    1        3.073118840000       9.219996080000      52.230408435000
       165    1        5.021878840000      11.399996080000      51.855371520000
       166    1        5.438118840000      11.399996080000      54.699550995000
       167    1        7.386878840000       9.219996080000      55.074587910000
       168    1        7.803118840000       9.219996080000      52.230408435000
       169    1        9.751878840000      11.399996080000      51.855371520000
       170    1       10.168118840000      11.399996080000      54.699550995000
       171    1       12.116878840000       9.219996080000      55.074587910000
       172    1       12.533118840000       9.219996080000      52.230408435000
       173    1       14.481878840000      11.399996080000      51.855371520000
       174    1       14.898118840000      11.399996080000      54.699550995000
       175    1       16.846878840000       9.219996080000      55.074587910000
       176    1       17.263118840000       9.219996080000      52.230408435000
       177    1        0.291878840000      15.759996080000      51.855371520000
       178    1        0.708118840000      15.759996080000      54.699550995000
       179    1        2.656878840000      13.579996080000      55.074587910000
       180    1        3.073118840000      13.579996080000      52.230408435000
       181    1        5.021878840000      15.759996080000      51.855371520000
       182    1        5.438118840000      15.759996080000      54.699550995000
       183    1        7.386878840000      13.579996080000      55.074587910000
       184    1        7.803118840000      13.579996080000      52.230408435000
       185    1        9.751878840000      15.759996080000      51.855371520000
       186    1       10.168118840000      15.759996080000      54.699550995000
       187    1       12.116878840000      13.579996080000      55.074587910000
       188    1       12.533118840000      13.579996080000      52.230408435000
       189    1       14.481878840000      15.759996080000      51.855371520000
       190    1       14.898118840000      15.759996080000      54.699550995000
       191    1       16.846878840000      13.579996080000      55.074587910000
       192    1       17.263118840000      13.579996080000      52.230408435000
       193    1       19.211878840000      11.399996080000      51.855371520000
       194    1       19.628118840000      11.399996080000      54.699550995000
       195    1       21.576878840000       9.219996080000      55.074587910000
       196    1       21.993118840000       9.219996080000      52.230408435000
       197    1       23.941878840000      11.399996080000      51.855371520000
       198    1       24.358118840000      11.399996080000      54.699550995000
       199    1       26.306878840000       9.219996080000      55.074587910000
       200    1       26.723118840000       9.219996080000      52.230408435000
       201    1       28.671878840000      11.399996080000      51.855371520000
       202    1       29.088118840000      11.399996080000      54.699550995000
       203    1       31.036878840000       9.219996080000      55.074587910000
       204    1       31.453118840000       9.219996080000      52.230408435000
       205    1       33.401878840000      11.399996080000      51.855371520000
       206    1       33.818118840000      11.399996080000      54.699550995000
       207    1       35.766878840000       9.219996080000      55.074587910000
       208    1       36.183118840000       9.219996080000      52.230408435000
       209    1       19.211878840000      15.759996080000      51.855371520000
       210    1       19.628118840000      15.759996080000      54.699550995000
       211    1       21.576878840000      13.579996080000      55.074587910000
       212    1       21.993118840000      13.579996080000      52.230408435000
       213    1       23.941878840000      15.759996080000      51.855371520000
       214    1       24.358118840000      15.759996080000      54.699550995000
       215    1       26.306878840000      13.579996080000      55.074587910000
       216    1       26.723118840000      13.579996080000      52.230408435000
       217    1       28.671878840000      15.759996080000      51.855371520000
       218    1       29.088118840000      15.759996080000      54.699550995000
       219    1       31.036878840000      13.579996080000      55.074587910000
       220    1       31.453118840000      13.579996080000      52.230408435000
       221    1       33.401878840000      15.759996080000      51.855371520000
       222    1       33.818118840000      15.759996080000      54.699550995000
       223    1       35.766878840000      13.579996080000      55.074587910000
       224    1       36.183118840000      13.579996080000      52.230408435000
       225    1       38.131878840000      11.399996080000      51.855371520000
       226    1       38.548118840000      11.399996080000      54.699550995000
       227    1       40.496878840000       9.219996080000      55.074587910000
       228    1       40.913118840000       9.219996080000      52.230408435000
       229    1       42.861878840000      11.399996080000      51.855371520000
       230    1       43.278118840000      11.399996080000      54.699550995000
       231    1       45.226878840000       9.219996080000      55.074587910000
       232    1       45.643118840000       9.219996080000      52.230408435000
       233    1       47.591878840000      11.399996080000      51.855371520000
       234    1       48.008118840000      11.399996080000      54.699550995000
       235    1       49.956878840000       9.219996080000      55.074587910000
       236    1       50.373118840000       9.219996080000      52.230408435000
       237    1       52.321878840000      11.399996080000      51.855371520000
       238    1       52.738118840000      11.399996080000      54.699550995000
       239    1       54.686878840000       9.219996080000      55.074587910000
       240    1       55.103118840000       9.219996080000      52.230408435000
       241    1       38.131878840000      15.759996080000      51.855371520000
       242    1       38.548118840000      15.759996080000      54.699550995000
       243    1       40.496878840000      13.579996080000      55.074587910000
       244    1       40.913118840000      13.579996080000      52.230408435000
       245    1       42.861878840000      15.759996080000      51.855371520000
       246    1       43.278118840000      15.759996080000      54.699550995000
       247    1       45.226878840000      13.579996080000      55.074587910000
       248    1       45.643118840000      13.579996080000      52.230408435000
       249    1       47.591878840000      15.759996080000      51.855371520000
       250    1       48.008118840000      15.759996080000      54.699550995000
       251    1       49.956878840000      13.579996080000      55.074587910000
       252    1       50.373118840000      13.579996080000      52.230408435000
       253    1       52.321878840000      15.759996080000      51.855371520000
       254    1       52.738118840000      15.759996080000      54.699550995000
       255    1       54.686878840000      13.579996080000      55.074587910000
       256    1       55.103118840000      13.579996080000      52.230408435000
       257    1       57.051878840000      11.399996080000      51.855371520000
       258    1       57.468118840000      11.399996080000      54.699550995000
       259    1       59.416878840000       9.219996080000      55.074587910000
       260    1       59.833118840000       9.219996080000      52.230408435000
       261    1       61.781878840000      11.399996080000      51.855371520000
       262    1       62.198118840000      11.399996080000      54.699550995000
       263    1       64.146878840000       9.219996080000      55.074587910000
       264    1       64.563118840000       9.219996080000      52.230408435000
       265    1       66.511878840000      11.399996080000      51.855371520000
       266    1       66.928118840000      11.399996080000      54.699550995000
       267    1       68.876878840000       9.219996080000      55.074587910000
       268    1       69.293118840000       9.219996080000      52.230408435000
       269    1       71.241878840000      11.399996080000      51.855371520000
       270    1       71.658118840000      11.399996080000      54.699550995000
       271    1       73.606878840000       9.219996080000      55.074587910000
       272    1       74.023118840000       9.219996080000      52.230408435000
       273    1       57.051878840000      15.759996080000      51.855371520000
       274    1       57.468118840000      15.759996080000      54.699550995000
       275    1       59.416878840000      13.579996080000      55.074587910000
       276    1       59.833118840000      13.579996080000      52.230408435000
       277    1       61.781878840000      15.759996080000      51.855371520000
       278    1       62.198118840000      15.759996080000      54.699550995000
       279    1       64.146878840000      13.579996080000      55.074587910000
       280    1       64.563118840000      13.579996080000      52.230408435000
       281    1       66.511878840000      15.759996080000      51.855371520000
       282    1       66.928118840000      15.759996080000      54.699550995000
       283    1       68.876878840000      13.579996080000      55.074587910000
       284    1       69.293118840000      13.579996080000      52.230408435000
       285    1       71.241878840000      15.759996080000      51.855371520000
       286    1       71.658118840000      15.759996080000      54.699550995000
       287    1       73.606878840000      13.579996080000      55.074587910000
       288    1       74.023118840000      13.579996080000      52.230408435000
       289    1       75.971878840000      11.399996080000      51.855371520000
       290    1       76.388118840000      11.399996080000      54.699550995000
       291    1       78.336878840000       9.219996080000      55.074587910000
       292    1       78.753118840000       9.219996080000      52.230408435000
       293    1       80.701878840000      11.399996080000      51.855371520000
       294    1       81.118118840000      11.399996080000      54.699550995000
       295    1       83.066878840000       9.219996080000      55.074587910000
       296    1       83.483118840000       9.219996080000      52.230408435000
       297    1       85.431878840000      11.399996080000      51.855371520000
       298    1       85.848118840000      11.399996080000      54.699550995000
       299    1       87.796878840000       9.219996080000      55.074587910000
       300    1       88.213118840000       9.219996080000      52.230408435000
       301    1       90.161878840000      11.399996080000      51.855371520000
       302    1       90.578118840000      11.399996080000      54.699550995000
       303    1       92.526878840000       9.219996080000      55.074587910000
       304    1       92.943118840000       9.219996080000      52.230408435000
       305    1       75.971878840000      15.759996080000      51.855371520000
       306    1       76.388118840000      15.759996080000      54.699550995000
       307    1       78.336878840000      13.579996080000      55.074587910000
       308    1       78.753118840000      13.579996080000      52.230408435000
       309    1       80.701878840000      15.759996080000      51.855371520000
       310    1       81.118118840000      15.759996080000      54.699550995000
       311    1       83.066878840000      13.579996080000      55.074587910000
       312    1       83.483118840000      13.579996080000      52.230408435000
       313    1       85.431878840000      15.759996080000      51.855371520000
       314    1       85.848118840000      15.759996080000      54.699550995000
       315    1       87.796878840000      13.579996080000      55.074587910000
       316    1       88.213118840000      13.579996080000      52.230408435000
       317    1       90.161878840000      15.759996080000      51.855371520000
       318    1       90.578118840000      15.759996080000      54.699550995000
       319    1       92.526878840000      13.579996080000      55.074587910000
       320    1       92.943118840000      13.579996080000      52.230408435000
       321    1        0.291878840000      20.119996080000      51.855371520000
       322    1        0.708118840000      20.119996080000      54.699550995000
       323    1        2.656878840000      17.939996080000      55.074587910000
       324    1        3.073118840000      17.939996080000      52.230408435000
       325    1        5.021878840000      20.119996080000      51.855371520000
       326    1        5.438118840000      20.119996080000      54.699550995000
       327    1        7.386878840000      17.939996080000      55.074587910000
       328    1        7.803118840000      17.939996080000      52.230408435000
       329    1        9.751878840000      20.119996080000      51.855371520000
       330    1       10.168118840000      20.119996080000      54.699550995000
       331    1       12.116878840000      17.939996080000      55.074587910000
       332    1       12.533118840000      17.939996080000      52.230408435000
       333    1       14.481878840000      20.119996080000      51.855371520000
       334    1       14.898118840000      20.119996080000      54.699550995000
       335    1       16.846878840000      17.939996080000      55.074587910000
       336    1       17.263118840000      17.939996080000      52.230408435000
       337    1        0.291878840000      24.479996080000      51.855371520000
       338    1        0.708118840000      24.479996080000      54.699550995000
       339    1        2.656878840000      22.299996080000      55.074587910000
       340    1        3.073118840000      22.299996080000      52.230408435000
       341    1        5.021878840000      24.479996080000      51.855371520000
       342    1        5.438118840000      24.479996080000      54.699550995000
       343    1        7.386878840000      22.299996080000      55.074587910000
       344    1        7.803118840000      22.299996080000      52.230408435000
       345    1        9.751878840000      24.479996080000      51.855371520000
       346    1       10.168118840000      24.479996080000      54.699550995000
       347    1       12.116878840000      22.299996080000      55.074587910000
       348    1       12.533118840000      22.299996080000      52.230408435000
       349    1       14.481878840000      24.479996080000      51.855371520000
       350    1       14.898118840000      24.479996080000      54.699550995000
       351    1       16.846878840000      22.299996080000      55.074587910000
       352    1       17.263118840000      22.299996080000      52.230408435000
       353    1       19.211878840000      20.119996080000      51.855371520000
       354    1       19.628118840000      20.119996080000      54.699550995000
       355    1       21.576878840000      17.939996080000      55.074587910000
       356    1       21.993118840000      17.939996080000      52.230408435000
       357    1       23.941878840000      20.119996080000      51.855371520000
       358    1       24.358118840000      20.119996080000      54.699550995000
       359    1       26.306878840000      17.939996080000      55.074587910000
       360    1       26.723118840000      17.939996080000      52.230408435000
       361    1       28.671878840000      20.119996080000      51.855371520000
       362    1       29.088118840000      20.119996080000      54.699550995000
       363    1       31.036878840000      17.939996080000      55.074587910000
       364    1       31.453118840000      17.939996080000      52.230408435000
       365    1       33.401878840000      20.119996080000      51.855371520000
       366    1       33.818118840000      20.119996080000      54.699550995000
       367    1       35.766878840000      17.939996080000      55.074587910000
       368    1       36.183118840000      17.939996080000      52.230408435000
       369    1       19.211878840000      24.479996080000      51.855371520000
       370    1       19.628118840000      24.479996080000      54.699550995000
       371    1       21.576878840000      22.299996080000      55.074587910000