 # Bi16
  
        1760  atoms
           1  atom types
 
      0.000000000000     100.631300000000  xlo xhi
      0.000000000000      97.234000000000  ylo yhi
      0.000000000000      17.110000000000  zlo zhi
 
Masses
 
            1   208.98040000            # Bi
 
Atoms # atomic
 
         1    1        7.173456479000       2.473769087600       7.389672120000
         2    1        4.889418714600       4.534984036600       6.912919080000
         3    1        4.886747411000       9.396684036600       6.912919080000
         4    1        4.881395655500       4.905280278800       9.916716460000
         5    1        0.307245655500       4.905280278800       9.916716460000
         6    1        2.599306479000       2.473769087600       7.389672120000
         7    1        7.170785175400       7.335469087600       7.389672120000
         8    1        0.309926107400       0.043580278800       9.916716460000
         9    1        7.169961828400       6.965717355800      10.393486610000
        10    1        2.596635175400       7.335469087600       7.389672120000
        11    1        0.315268714600       4.534984036600       6.912919080000
        12    1        2.598483132000       2.104017355800      10.393486610000
        13    1        0.312597411000       9.396684036600       6.912919080000
        14    1        2.595811828400       6.965717355800      10.393486610000
        15    1        4.884076107400       0.043580278800       9.916716460000
        16    1        7.172633132000       2.104017355800      10.393486610000
        17    1       16.321756479000       2.473769087600       7.389672120000
        18    1       14.037718714600       4.534984036600       6.912919080000
        19    1       14.035047411000       9.396684036600       6.912919080000
        20    1       14.029695655500       4.905280278800       9.916716460000
        21    1        9.455545655500       4.905280278800       9.916716460000
        22    1       11.747606479000       2.473769087600       7.389672120000
        23    1       16.319085175400       7.335469087600       7.389672120000
        24    1        9.458226107400       0.043580278800       9.916716460000
        25    1       16.318261828400       6.965717355800      10.393486610000
        26    1       11.744935175400       7.335469087600       7.389672120000
        27    1        9.463568714600       4.534984036600       6.912919080000
        28    1       11.746783132000       2.104017355800      10.393486610000
        29    1        9.460897411000       9.396684036600       6.912919080000
        30    1       11.744111828400       6.965717355800      10.393486610000
        31    1       14.032376107400       0.043580278800       9.916716460000
        32    1       16.320933132000       2.104017355800      10.393486610000
        33    1       25.470056479000       2.473769087600       7.389672120000
        34    1       23.186018714600       4.534984036600       6.912919080000
        35    1       23.183347411000       9.396684036600       6.912919080000
        36    1       23.177995655500       4.905280278800       9.916716460000
        37    1       18.603845655500       4.905280278800       9.916716460000
        38    1       20.895906479000       2.473769087600       7.389672120000
        39    1       25.467385175400       7.335469087600       7.389672120000
        40    1       18.606526107400       0.043580278800       9.916716460000
        41    1       25.466561828400       6.965717355800      10.393486610000
        42    1       20.893235175400       7.335469087600       7.389672120000
        43    1       18.611868714600       4.534984036600       6.912919080000
        44    1       20.895083132000       2.104017355800      10.393486610000
        45    1       18.609197411000       9.396684036600       6.912919080000
        46    1       20.892411828400       6.965717355800      10.393486610000
        47    1       23.180676107400       0.043580278800       9.916716460000
        48    1       25.469233132000       2.104017355800      10.393486610000
        49    1       34.618356479000       2.473769087600       7.389672120000
        50    1       32.334318714600       4.534984036600       6.912919080000
        51    1       32.331647411000       9.396684036600       6.912919080000
        52    1       32.326295655500       4.905280278800       9.916716460000
        53    1       27.752145655500       4.905280278800       9.916716460000
        54    1       30.044206479000       2.473769087600       7.389672120000
        55    1       34.615685175400       7.335469087600       7.389672120000
        56    1       27.754826107400       0.043580278800       9.916716460000
        57    1       34.614861828400       6.965717355800      10.393486610000
        58    1       30.041535175400       7.335469087600       7.389672120000
        59    1       27.760168714600       4.534984036600       6.912919080000
        60    1       30.043383132000       2.104017355800      10.393486610000
        61    1       27.757497411000       9.396684036600       6.912919080000
        62    1       30.040711828400       6.965717355800      10.393486610000
        63    1       32.328976107400       0.043580278800       9.916716460000
        64    1       34.617533132000       2.104017355800      10.393486610000
        65    1       43.766656479000       2.473769087600       7.389672120000
        66    1       41.482618714600       4.534984036600       6.912919080000
        67    1       41.479947411000       9.396684036600       6.912919080000
        68    1       41.474595655500       4.905280278800       9.916716460000
        69    1       36.900445655500       4.905280278800       9.916716460000
        70    1       39.192506479000       2.473769087600       7.389672120000
        71    1       43.763985175400       7.335469087600       7.389672120000
        72    1       36.903126107400       0.043580278800       9.916716460000
        73    1       43.763161828400       6.965717355800      10.393486610000
        74    1       39.189835175400       7.335469087600       7.389672120000
        75    1       36.908468714600       4.534984036600       6.912919080000
        76    1       39.191683132000       2.104017355800      10.393486610000
        77    1       36.905797411000       9.396684036600       6.912919080000
        78    1       39.189011828400       6.965717355800      10.393486610000
        79    1       41.477276107400       0.043580278800       9.916716460000
        80    1       43.765833132000       2.104017355800      10.393486610000
        81    1       52.914956479000       2.473769087600       7.389672120000
        82    1       50.630918714600       4.534984036600       6.912919080000
        83    1       50.628247411000       9.396684036600       6.912919080000
        84    1       50.622895655500       4.905280278800       9.916716460000
        85    1       46.048745655500       4.905280278800       9.916716460000
        86    1       48.340806479000       2.473769087600       7.389672120000
        87    1       52.912285175400       7.335469087600       7.389672120000
        88    1       46.051426107400       0.043580278800       9.916716460000
        89    1       52.911461828400       6.965717355800      10.393486610000
        90    1       48.338135175400       7.335469087600       7.389672120000
        91    1       46.056768714600       4.534984036600       6.912919080000
        92    1       48.339983132000       2.104017355800      10.393486610000
        93    1       46.054097411000       9.396684036600       6.912919080000
        94    1       48.337311828400       6.965717355800      10.393486610000
        95    1       50.625576107400       0.043580278800       9.916716460000
        96    1       52.914133132000       2.104017355800      10.393486610000
        97    1       62.063256479000       2.473769087600       7.389672120000
        98    1       59.779218714600       4.534984036600       6.912919080000
        99    1       59.776547411000       9.396684036600       6.912919080000
       100    1       59.771195655500       4.905280278800       9.916716460000
       101    1       55.197045655500       4.905280278800       9.916716460000
       102    1       57.489106479000       2.473769087600       7.389672120000
       103    1       62.060585175400       7.335469087600       7.389672120000
       104    1       55.199726107400       0.043580278800       9.916716460000
       105    1       62.059761828400       6.965717355800      10.393486610000
       106    1       57.486435175400       7.335469087600       7.389672120000
       107    1       55.205068714600       4.534984036600       6.912919080000
       108    1       57.488283132000       2.104017355800      10.393486610000
       109    1       55.202397411000       9.396684036600       6.912919080000
       110    1       57.485611828400       6.965717355800      10.393486610000
       111    1       59.773876107400       0.043580278800       9.916716460000
       112    1       62.062433132000       2.104017355800      10.393486610000
       113    1       71.211556479000       2.473769087600       7.389672120000
       114    1       68.927518714600       4.534984036600       6.912919080000
       115    1       68.924847411000       9.396684036600       6.912919080000
       116    1       68.919495655500       4.905280278800       9.916716460000
       117    1       64.345345655500       4.905280278800       9.916716460000
       118    1       66.637406479000       2.473769087600       7.389672120000
       119    1       71.208885175400       7.335469087600       7.389672120000
       120    1       64.348026107400       0.043580278800       9.916716460000
       121    1       71.208061828400       6.965717355800      10.393486610000
       122    1       66.634735175400       7.335469087600       7.389672120000
       123    1       64.353368714600       4.534984036600       6.912919080000
       124    1       66.636583132000       2.104017355800      10.393486610000
       125    1       64.350697411000       9.396684036600       6.912919080000
       126    1       66.633911828400       6.965717355800      10.393486610000
       127    1       68.922176107400       0.043580278800       9.916716460000
       128    1       71.210733132000       2.104017355800      10.393486610000
       129    1       80.359856479000       2.473769087600       7.389672120000
       130    1       78.075818714600       4.534984036600       6.912919080000
       131    1       78.073147411000       9.396684036600       6.912919080000
       132    1       78.067795655500       4.905280278800       9.916716460000
       133    1       73.493645655500       4.905280278800       9.916716460000
       134    1       75.785706479000       2.473769087600       7.389672120000
       135    1       80.357185175400       7.335469087600       7.389672120000
       136    1       73.496326107400       0.043580278800       9.916716460000
       137    1       80.356361828400       6.965717355800      10.393486610000
       138    1       75.783035175400       7.335469087600       7.389672120000
       139    1       73.501668714600       4.534984036600       6.912919080000
       140    1       75.784883132000       2.104017355800      10.393486610000
       141    1       73.498997411000       9.396684036600       6.912919080000
       142    1       75.782211828400       6.965717355800      10.393486610000
       143    1       78.070476107400       0.043580278800       9.916716460000
       144    1       80.359033132000       2.104017355800      10.393486610000
       145    1       89.508156479000       2.473769087600       7.389672120000
       146    1       87.224118714600       4.534984036600       6.912919080000
       147    1       87.221447411000       9.396684036600       6.912919080000
       148    1       87.216095655500       4.905280278800       9.916716460000
       149    1       82.641945655500       4.905280278800       9.916716460000
       150    1       84.934006479000       2.473769087600       7.389672120000
       151    1       89.505485175400       7.335469087600       7.389672120000
       152    1       82.644626107400       0.043580278800       9.916716460000
       153    1       89.504661828400       6.965717355800      10.393486610000
       154    1       84.931335175400       7.335469087600       7.389672120000
       155    1       82.649968714600       4.534984036600       6.912919080000
       156    1       84.933183132000       2.104017355800      10.393486610000
       157    1       82.647297411000       9.396684036600       6.912919080000
       158    1       84.930511828400       6.965717355800      10.393486610000
       159    1       87.218776107400       0.043580278800       9.916716460000
       160    1       89.507333132000       2.104017355800      10.393486610000
       161    1       98.656456479000       2.473769087600       7.389672120000
       162    1       96.372418714600       4.534984036600       6.912919080000
       163    1       96.369747411000       9.396684036600       6.912919080000
       164    1       96.364395655500       4.905280278800       9.916716460000
       165    1       91.790245655500       4.905280278800       9.916716460000
       166    1       94.082306479000       2.473769087600       7.389672120000
       167    1       98.653785175400       7.335469087600       7.389672120000
       168    1       91.792926107400       0.043580278800       9.916716460000
       169    1       98.652961828400       6.965717355800      10.393486610000
       170    1       94.079635175400       7.335469087600       7.389672120000
       171    1       91.798268714600       4.534984036600       6.912919080000
       172    1       94.081483132000       2.104017355800      10.393486610000
       173    1       91.795597411000       9.396684036600       6.912919080000
       174    1       94.078811828400       6.965717355800      10.393486610000
       175    1       96.367076107400       0.043580278800       9.916716460000
       176    1       98.655633132000       2.104017355800      10.393486610000
       177    1        7.173456479000      12.197169087600       7.389672120000
       178    1        4.889418714600      14.258384036600       6.912919080000
       179    1        4.886747411000      19.120084036600       6.912919080000
       180    1        4.881395655500      14.628680278800       9.916716460000
       181    1        0.307245655500      14.628680278800       9.916716460000
       182    1        2.599306479000      12.197169087600       7.389672120000
       183    1        7.170785175400      17.058869087600       7.389672120000
       184    1        0.309926107400       9.766980278800       9.916716460000
       185    1        7.169961828400      16.689117355800      10.393486610000
       186    1        2.596635175400      17.058869087600       7.389672120000
       187    1        0.315268714600      14.258384036600       6.912919080000
       188    1        2.598483132000      11.827417355800      10.393486610000
       189    1        0.312597411000      19.120084036600       6.912919080000
       190    1        2.595811828400      16.689117355800      10.393486610000
       191    1        4.884076107400       9.766980278800       9.916716460000
       192    1        7.172633132000      11.827417355800      10.393486610000
       193    1       16.321756479000      12.197169087600       7.389672120000
       194    1       14.037718714600      14.258384036600       6.912919080000
       195    1       14.035047411000      19.120084036600       6.912919080000
       196    1       14.029695655500      14.628680278800       9.916716460000
       197    1        9.455545655500      14.628680278800       9.916716460000
       198    1       11.747606479000      12.197169087600       7.389672120000
       199    1       16.319085175400      17.058869087600       7.389672120000
       200    1        9.458226107400       9.766980278800       9.916716460000
       201    1       16.318261828400      16.689117355800      10.393486610000
       202    1       11.744935175400      17.058869087600       7.389672120000
       203    1        9.463568714600      14.258384036600       6.912919080000
       204    1       11.746783132000      11.827417355800      10.393486610000
       205    1        9.460897411000      19.120084036600       6.912919080000
       206    1       11.744111828400      16.689117355800      10.393486610000
       207    1       14.032376107400       9.766980278800       9.916716460000
       208    1       16.320933132000      11.827417355800      10.393486610000
       209    1       25.470056479000      12.197169087600       7.389672120000
       210    1       23.186018714600      14.258384036600       6.912919080000
       211    1       23.183347411000      19.120084036600       6.912919080000
       212    1       23.177995655500      14.628680278800       9.916716460000
       213    1       18.603845655500      14.628680278800       9.916716460000
       214    1       20.895906479000      12.197169087600       7.389672120000
       215    1       25.467385175400      17.058869087600       7.389672120000
       216    1       18.606526107400       9.766980278800       9.916716460000
       217    1       25.466561828400      16.689117355800      10.393486610000
       218    1       20.893235175400      17.058869087600       7.389672120000
       219    1       18.611868714600      14.258384036600       6.912919080000
       220    1       20.895083132000      11.827417355800      10.393486610000
       221    1       18.609197411000      19.120084036600       6.912919080000
       222    1       20.892411828400      16.689117355800      10.393486610000
       223    1       23.180676107400       9.766980278800       9.916716460000
       224    1       25.469233132000      11.827417355800      10.393486610000
       225    1       34.618356479000      12.197169087600       7.389672120000
       226    1       32.334318714600      14.258384036600       6.912919080000
       227    1       32.331647411000      19.120084036600       6.912919080000
       228    1       32.326295655500      14.628680278800       9.916716460000
       229    1       27.752145655500      14.628680278800       9.916716460000
       230    1       30.044206479000      12.197169087600       7.389672120000
       231    1       34.615685175400      17.058869087600       7.389672120000
       232    1       27.754826107400       9.766980278800       9.916716460000
       233    1       34.614861828400      16.689117355800      10.393486610000
       234    1       30.041535175400      17.058869087600       7.389672120000
       235    1       27.760168714600      14.258384036600       6.912919080000
       236    1       30.043383132000      11.827417355800      10.393486610000
       237    1       27.757497411000      19.120084036600       6.912919080000
       238    1       30.040711828400      16.689117355800      10.393486610000
       239    1       32.328976107400       9.766980278800       9.916716460000
       240    1       34.617533132000      11.827417355800      10.393486610000
       241    1       43.766656479000      12.197169087600       7.389672120000
       242    1       41.482618714600      14.258384036600       6.912919080000
       243    1       41.479947411000      19.120084036600       6.912919080000
       244    1       41.474595655500      14.628680278800       9.916716460000
       245    1       36.900445655500      14.628680278800       9.916716460000
       246    1       39.192506479000      12.197169087600       7.389672120000
       247    1       43.763985175400      17.058869087600       7.389672120000
       248    1       36.903126107400       9.766980278800       9.916716460000
       249    1       43.763161828400      16.689117355800      10.393486610000
       250    1       39.189835175400      17.058869087600       7.389672120000
       251    1       36.908468714600      14.258384036600       6.912919080000
       252    1       39.191683132000      11.827417355800      10.393486610000
       253    1       36.905797411000      19.120084036600       6.912919080000
       254    1       39.189011828400      16.689117355800      10.393486610000
       255    1       41.477276107400       9.766980278800       9.916716460000
       256    1       43.765833132000      11.827417355800      10.393486610000
       257    1       52.914956479000      12.197169087600       7.389672120000
       258    1       50.630918714600      14.258384036600       6.912919080000
       259    1       50.628247411000      19.120084036600       6.912919080000
       260    1       50.622895655500      14.628680278800       9.916716460000
       261    1       46.048745655500      14.628680278800       9.916716460000
       262    1       48.340806479000      12.197169087600       7.389672120000
       263    1       52.912285175400      17.058869087600       7.389672120000
       264    1       46.051426107400       9.766980278800       9.916716460000
       265    1       52.911461828400      16.689117355800      10.393486610000
       266    1       48.338135175400      17.058869087600       7.389672120000
       267    1       46.056768714600      14.258384036600       6.912919080000
       268    1       48.339983132000      11.827417355800      10.393486610000
       269    1       46.054097411000      19.120084036600       6.912919080000
       270    1       48.337311828400      16.689117355800      10.393486610000
       271    1       50.625576107400       9.766980278800       9.916716460000
       272    1       52.914133132000      11.827417355800      10.393486610000
       273    1       62.063256479000      12.197169087600       7.389672120000
       274    1       59.779218714600      14.258384036600       6.912919080000
       275    1       59.776547411000      19.120084036600       6.912919080000
       276    1       59.771195655500      14.628680278800       9.916716460000
       277    1       55.197045655500      14.628680278800       9.916716460000
       278    1       57.489106479000      12.197169087600       7.389672120000
       279    1       62.060585175400      17.058869087600       7.389672120000
       280    1       55.199726107400       9.766980278800       9.916716460000
       281    1       62.059761828400      16.689117355800      10.393486610000
       282    1       57.486435175400      17.058869087600       7.389672120000
       283    1       55.205068714600      14.258384036600       6.912919080000
       284    1       57.488283132000      11.827417355800      10.393486610000
       285    1       55.202397411000      19.120084036600       6.912919080000
       286    1       57.485611828400      16.689117355800      10.393486610000
       287    1       59.773876107400       9.766980278800       9.916716460000
       288    1       62.062433132000      11.827417355800      10.393486610000
       289    1       71.211556479000      12.197169087600       7.389672120000
       290    1       68.927518714600      14.258384036600       6.912919080000
       291    1       68.924847411000      19.120084036600       6.912919080000
       292    1       68.919495655500      14.628680278800       9.916716460000
       293    1       64.345345655500      14.628680278800       9.916716460000
       294    1       66.637406479000      12.197169087600       7.389672120000
       295    1       71.208885175400      17.058869087600       7.389672120000
       296    1       64.348026107400       9.766980278800       9.916716460000
       297    1       71.208061828400      16.689117355800      10.393486610000
       298    1       66.634735175400      17.058869087600       7.389672120000
       299    1       64.353368714600      14.258384036600       6.912919080000
       300    1       66.636583132000      11.827417355800      10.393486610000
       301    1       64.350697411000      19.120084036600       6.912919080000
       302    1       66.633911828400      16.689117355800      10.393486610000
       303    1       68.922176107400       9.766980278800       9.916716460000
       304    1       71.210733132000      11.827417355800      10.393486610000
       305    1       80.359856479000      12.197169087600       7.389672120000
       306    1       78.075818714600      14.258384036600       6.912919080000
       307    1       78.073147411000      19.120084036600       6.912919080000
       308    1       78.067795655500      14.628680278800       9.916716460000
       309    1       73.493645655500      14.628680278800       9.916716460000
       310    1       75.785706479000      12.197169087600       7.389672120000
       311    1       80.357185175400      17.058869087600       7.389672120000
       312    1       73.496326107400       9.766980278800       9.916716460000
       313    1       80.356361828400      16.689117355800      10.393486610000
       314    1       75.783035175400      17.058869087600       7.389672120000
       315    1       73.501668714600      14.258384036600       6.912919080000
       316    1       75.784883132000      11.827417355800      10.393486610000
       317    1       73.498997411000      19.120084036600       6.912919080000
       318    1       75.782211828400      16.689117355800      10.393486610000
       319    1       78.070476107400       9.766980278800       9.916716460000
       320    1       80.359033132000      11.827417355800      10.393486610000
       321    1       89.508156479000      12.197169087600       7.389672120000
       322    1       87.224118714600      14.258384036600       6.912919080000
       323    1       87.221447411000      19.120084036600       6.912919080000
       324    1       87.216095655500      14.628680278800       9.916716460000
       325    1       82.641945655500      14.628680278800       9.916716460000
       326    1       84.934006479000      12.197169087600       7.389672120000
       327    1       89.505485175400      17.058869087600       7.389672120000
       328    1       82.644626107400       9.766980278800       9.916716460000
       329    1       89.504661828400      16.689117355800      10.393486610000
       330    1       84.931335175400      17.058869087600       7.389672120000
       331    1       82.649968714600      14.258384036600       6.912919080000
       332    1       84.933183132000      11.827417355800      10.393486610000
       333    1       82.647297411000      19.120084036600       6.912919080000
       334    1       84.930511828400      16.689117355800      10.393486610000
       335    1       87.218776107400       9.766980278800       9.916716460000
       336    1       89.507333132000      11.827417355800      10.393486610000
       337    1       98.656456479000      12.197169087600       7.389672120000
       338    1       96.372418714600      14.258384036600       6.912919080000
       339    1       96.369747411000      19.120084036600       6.912919080000
       340    1       96.364395655500      14.628680278800       9.916716460000
       341    1       91.790245655500      14.628680278800       9.916716460000
       342    1       94.082306479000      12.197169087600       7.389672120000
       343    1       98.653785175400      17.058869087600       7.389672120000
       344    1       91.792926107400       9.766980278800       9.916716460000
       345    1       98.652961828400      16.689117355800      10.393486610000
       346    1       94.079635175400      17.058869087600       7.389672120000
       347    1       91.798268714600      14.258384036600       6.912919080000
       348    1       94.081483132000      11.827417355800      10.393486610000
       349    1       91.795597411000      19.120084036600       6.912919080000
       350    1       94.078811828400      16.689117355800      10.393486610000
       351    1       96.367076107400       9.766980278800       9.916716460000
       352    1       98.655633132000      11.827417355800      10.393486610000
       353    1        7.173456479000      21.920569087600       7.389672120000
       354    1        4.889418714600      23.981784036600       6.912919080000
       355    1        4.886747411000      28.843484036600       6.912919080000
       356    1        4.881395655500      24.352080278800       9.916716460000
       357    1        0.307245655500      24.352080278800       9.916716460000
       358    1        2.599306479000      21.920569087600       7.389672120000
       359    1        7.170785175400      26.782269087600       7.389672120000
       360    1        0.309926107400      19.490380278800       9.916716460000
       361    1        7.169961828400      26.412517355800      10.393486610000
       362    1        2.596635175400      26.782269087600       7.389672120000
       363    1        0.315268714600      23.981784036600       6.912919080000
       364    1        2.598483132000      21.550817355800      10.393486610000
       365    1        0.312597411000      28.843484036600       6.912919080000
       366    1        2.595811828400      26.412517355800      10.393486610000
       367    1        4.884076107400      19.490380278800       9.916716460000
       368    1        7.172633132000      21.550817355800      10.393486610000
       369    1       16.321756479000      21.920569087600       7.389672120000
       370    1       14.037718714600      23.981784036600       6.912919080000
       371    1       14.035047411000      28.843484036600       6.912919080000