 # C8 S8
  
        3456  atoms
           2  atom types
 
      0.000000000000     103.752000000000  xlo xhi
      0.000000000000     100.620000000000  ylo yhi
      0.000000000000     105.000000000000  zlo zhi
 
Masses
 
            1   12.01100000             # C
            2   32.06000000             # S
 
Atoms # atomic
 
         1    1        0.099999636000       0.099999510000      51.766680000000
         2    2        1.225899048000       0.099999510000      53.233320000000
         3    1        2.261499636000       1.497499510000      52.985100000000
         4    2        3.387399048000       1.497499510000      51.518355000000
         5    1        4.422999636000       0.099999510000      51.766680000000
         6    2        5.548899048000       0.099999510000      53.233320000000
         7    1        6.584499636000       1.497499510000      52.985100000000
         8    2        7.710399048000       1.497499510000      51.518355000000
         9    1        0.099999636000       2.894999510000      51.766680000000
        10    2        1.225899048000       2.894999510000      53.233320000000
        11    1        2.261499636000       4.292499510000      52.985100000000
        12    2        3.387399048000       4.292499510000      51.518355000000
        13    1        4.422999636000       2.894999510000      51.766680000000
        14    2        5.548899048000       2.894999510000      53.233320000000
        15    1        6.584499636000       4.292499510000      52.985100000000
        16    2        7.710399048000       4.292499510000      51.518355000000
        17    1        8.745999636000       0.099999510000      51.766680000000
        18    2        9.871899048000       0.099999510000      53.233320000000
        19    1       10.907499636000       1.497499510000      52.985100000000
        20    2       12.033399048000       1.497499510000      51.518355000000
        21    1       13.068999636000       0.099999510000      51.766680000000
        22    2       14.194899048000       0.099999510000      53.233320000000
        23    1       15.230499636000       1.497499510000      52.985100000000
        24    2       16.356399048000       1.497499510000      51.518355000000
        25    1        8.745999636000       2.894999510000      51.766680000000
        26    2        9.871899048000       2.894999510000      53.233320000000
        27    1       10.907499636000       4.292499510000      52.985100000000
        28    2       12.033399048000       4.292499510000      51.518355000000
        29    1       13.068999636000       2.894999510000      51.766680000000
        30    2       14.194899048000       2.894999510000      53.233320000000
        31    1       15.230499636000       4.292499510000      52.985100000000
        32    2       16.356399048000       4.292499510000      51.518355000000
        33    1       17.391999636000       0.099999510000      51.766680000000
        34    2       18.517899048000       0.099999510000      53.233320000000
        35    1       19.553499636000       1.497499510000      52.985100000000
        36    2       20.679399048000       1.497499510000      51.518355000000
        37    1       21.714999636000       0.099999510000      51.766680000000
        38    2       22.840899048000       0.099999510000      53.233320000000
        39    1       23.876499636000       1.497499510000      52.985100000000
        40    2       25.002399048000       1.497499510000      51.518355000000
        41    1       17.391999636000       2.894999510000      51.766680000000
        42    2       18.517899048000       2.894999510000      53.233320000000
        43    1       19.553499636000       4.292499510000      52.985100000000
        44    2       20.679399048000       4.292499510000      51.518355000000
        45    1       21.714999636000       2.894999510000      51.766680000000
        46    2       22.840899048000       2.894999510000      53.233320000000
        47    1       23.876499636000       4.292499510000      52.985100000000
        48    2       25.002399048000       4.292499510000      51.518355000000
        49    1       26.037999636000       0.099999510000      51.766680000000
        50    2       27.163899048000       0.099999510000      53.233320000000
        51    1       28.199499636000       1.497499510000      52.985100000000
        52    2       29.325399048000       1.497499510000      51.518355000000
        53    1       30.360999636000       0.099999510000      51.766680000000
        54    2       31.486899048000       0.099999510000      53.233320000000
        55    1       32.522499636000       1.497499510000      52.985100000000
        56    2       33.648399048000       1.497499510000      51.518355000000
        57    1       26.037999636000       2.894999510000      51.766680000000
        58    2       27.163899048000       2.894999510000      53.233320000000
        59    1       28.199499636000       4.292499510000      52.985100000000
        60    2       29.325399048000       4.292499510000      51.518355000000
        61    1       30.360999636000       2.894999510000      51.766680000000
        62    2       31.486899048000       2.894999510000      53.233320000000
        63    1       32.522499636000       4.292499510000      52.985100000000
        64    2       33.648399048000       4.292499510000      51.518355000000
        65    1       34.683999636000       0.099999510000      51.766680000000
        66    2       35.809899048000       0.099999510000      53.233320000000
        67    1       36.845499636000       1.497499510000      52.985100000000
        68    2       37.971399048000       1.497499510000      51.518355000000
        69    1       39.006999636000       0.099999510000      51.766680000000
        70    2       40.132899048000       0.099999510000      53.233320000000
        71    1       41.168499636000       1.497499510000      52.985100000000
        72    2       42.294399048000       1.497499510000      51.518355000000
        73    1       34.683999636000       2.894999510000      51.766680000000
        74    2       35.809899048000       2.894999510000      53.233320000000
        75    1       36.845499636000       4.292499510000      52.985100000000
        76    2       37.971399048000       4.292499510000      51.518355000000
        77    1       39.006999636000       2.894999510000      51.766680000000
        78    2       40.132899048000       2.894999510000      53.233320000000
        79    1       41.168499636000       4.292499510000      52.985100000000
        80    2       42.294399048000       4.292499510000      51.518355000000
        81    1       43.329999636000       0.099999510000      51.766680000000
        82    2       44.455899048000       0.099999510000      53.233320000000
        83    1       45.491499636000       1.497499510000      52.985100000000
        84    2       46.617399048000       1.497499510000      51.518355000000
        85    1       47.652999636000       0.099999510000      51.766680000000
        86    2       48.778899048000       0.099999510000      53.233320000000
        87    1       49.814499636000       1.497499510000      52.985100000000
        88    2       50.940399048000       1.497499510000      51.518355000000
        89    1       43.329999636000       2.894999510000      51.766680000000
        90    2       44.455899048000       2.894999510000      53.233320000000
        91    1       45.491499636000       4.292499510000      52.985100000000
        92    2       46.617399048000       4.292499510000      51.518355000000
        93    1       47.652999636000       2.894999510000      51.766680000000
        94    2       48.778899048000       2.894999510000      53.233320000000
        95    1       49.814499636000       4.292499510000      52.985100000000
        96    2       50.940399048000       4.292499510000      51.518355000000
        97    1       51.975999636000       0.099999510000      51.766680000000
        98    2       53.101899048000       0.099999510000      53.233320000000
        99    1       54.137499636000       1.497499510000      52.985100000000
       100    2       55.263399048000       1.497499510000      51.518355000000
       101    1       56.298999636000       0.099999510000      51.766680000000
       102    2       57.424899048000       0.099999510000      53.233320000000
       103    1       58.460499636000       1.497499510000      52.985100000000
       104    2       59.586399048000       1.497499510000      51.518355000000
       105    1       51.975999636000       2.894999510000      51.766680000000
       106    2       53.101899048000       2.894999510000      53.233320000000
       107    1       54.137499636000       4.292499510000      52.985100000000
       108    2       55.263399048000       4.292499510000      51.518355000000
       109    1       56.298999636000       2.894999510000      51.766680000000
       110    2       57.424899048000       2.894999510000      53.233320000000
       111    1       58.460499636000       4.292499510000      52.985100000000
       112    2       59.586399048000       4.292499510000      51.518355000000
       113    1       60.621999636000       0.099999510000      51.766680000000
       114    2       61.747899048000       0.099999510000      53.233320000000
       115    1       62.783499636000       1.497499510000      52.985100000000
       116    2       63.909399048000       1.497499510000      51.518355000000
       117    1       64.944999636000       0.099999510000      51.766680000000
       118    2       66.070899048000       0.099999510000      53.233320000000
       119    1       67.106499636000       1.497499510000      52.985100000000
       120    2       68.232399048000       1.497499510000      51.518355000000
       121    1       60.621999636000       2.894999510000      51.766680000000
       122    2       61.747899048000       2.894999510000      53.233320000000
       123    1       62.783499636000       4.292499510000      52.985100000000
       124    2       63.909399048000       4.292499510000      51.518355000000
       125    1       64.944999636000       2.894999510000      51.766680000000
       126    2       66.070899048000       2.894999510000      53.233320000000
       127    1       67.106499636000       4.292499510000      52.985100000000
       128    2       68.232399048000       4.292499510000      51.518355000000
       129    1       69.267999636000       0.099999510000      51.766680000000
       130    2       70.393899048000       0.099999510000      53.233320000000
       131    1       71.429499636000       1.497499510000      52.985100000000
       132    2       72.555399048000       1.497499510000      51.518355000000
       133    1       73.590999636000       0.099999510000      51.766680000000
       134    2       74.716899048000       0.099999510000      53.233320000000
       135    1       75.752499636000       1.497499510000      52.985100000000
       136    2       76.878399048000       1.497499510000      51.518355000000
       137    1       69.267999636000       2.894999510000      51.766680000000
       138    2       70.393899048000       2.894999510000      53.233320000000
       139    1       71.429499636000       4.292499510000      52.985100000000
       140    2       72.555399048000       4.292499510000      51.518355000000
       141    1       73.590999636000       2.894999510000      51.766680000000
       142    2       74.716899048000       2.894999510000      53.233320000000
       143    1       75.752499636000       4.292499510000      52.985100000000
       144    2       76.878399048000       4.292499510000      51.518355000000
       145    1       77.913999636000       0.099999510000      51.766680000000
       146    2       79.039899048000       0.099999510000      53.233320000000
       147    1       80.075499636000       1.497499510000      52.985100000000
       148    2       81.201399048000       1.497499510000      51.518355000000
       149    1       82.236999636000       0.099999510000      51.766680000000
       150    2       83.362899048000       0.099999510000      53.233320000000
       151    1       84.398499636000       1.497499510000      52.985100000000
       152    2       85.524399048000       1.497499510000      51.518355000000
       153    1       77.913999636000       2.894999510000      51.766680000000
       154    2       79.039899048000       2.894999510000      53.233320000000
       155    1       80.075499636000       4.292499510000      52.985100000000
       156    2       81.201399048000       4.292499510000      51.518355000000
       157    1       82.236999636000       2.894999510000      51.766680000000
       158    2       83.362899048000       2.894999510000      53.233320000000
       159    1       84.398499636000       4.292499510000      52.985100000000
       160    2       85.524399048000       4.292499510000      51.518355000000
       161    1       86.559999636000       0.099999510000      51.766680000000
       162    2       87.685899048000       0.099999510000      53.233320000000
       163    1       88.721499636000       1.497499510000      52.985100000000
       164    2       89.847399048000       1.497499510000      51.518355000000
       165    1       90.882999636000       0.099999510000      51.766680000000
       166    2       92.008899048000       0.099999510000      53.233320000000
       167    1       93.044499636000       1.497499510000      52.985100000000
       168    2       94.170399048000       1.497499510000      51.518355000000
       169    1       86.559999636000       2.894999510000      51.766680000000
       170    2       87.685899048000       2.894999510000      53.233320000000
       171    1       88.721499636000       4.292499510000      52.985100000000
       172    2       89.847399048000       4.292499510000      51.518355000000
       173    1       90.882999636000       2.894999510000      51.766680000000
       174    2       92.008899048000       2.894999510000      53.233320000000
       175    1       93.044499636000       4.292499510000      52.985100000000
       176    2       94.170399048000       4.292499510000      51.518355000000
       177    1       95.205999636000       0.099999510000      51.766680000000
       178    2       96.331899048000       0.099999510000      53.233320000000
       179    1       97.367499636000       1.497499510000      52.985100000000
       180    2       98.493399048000       1.497499510000      51.518355000000
       181    1       99.528999636000       0.099999510000      51.766680000000
       182    2      100.654899048000       0.099999510000      53.233320000000
       183    1      101.690499636000       1.497499510000      52.985100000000
       184    2      102.816399048000       1.497499510000      51.518355000000
       185    1       95.205999636000       2.894999510000      51.766680000000
       186    2       96.331899048000       2.894999510000      53.233320000000
       187    1       97.367499636000       4.292499510000      52.985100000000
       188    2       98.493399048000       4.292499510000      51.518355000000
       189    1       99.528999636000       2.894999510000      51.766680000000
       190    2      100.654899048000       2.894999510000      53.233320000000
       191    1      101.690499636000       4.292499510000      52.985100000000
       192    2      102.816399048000       4.292499510000      51.518355000000
       193    1        0.099999636000       5.689999510000      51.766680000000
       194    2        1.225899048000       5.689999510000      53.233320000000
       195    1        2.261499636000       7.087499510000      52.985100000000
       196    2        3.387399048000       7.087499510000      51.518355000000
       197    1        4.422999636000       5.689999510000      51.766680000000
       198    2        5.548899048000       5.689999510000      53.233320000000
       199    1        6.584499636000       7.087499510000      52.985100000000
       200    2        7.710399048000       7.087499510000      51.518355000000
       201    1        0.099999636000       8.484999510000      51.766680000000
       202    2        1.225899048000       8.484999510000      53.233320000000
       203    1        2.261499636000       9.882499510000      52.985100000000
       204    2        3.387399048000       9.882499510000      51.518355000000
       205    1        4.422999636000       8.484999510000      51.766680000000
       206    2        5.548899048000       8.484999510000      53.233320000000
       207    1        6.584499636000       9.882499510000      52.985100000000
       208    2        7.710399048000       9.882499510000      51.518355000000
       209    1        8.745999636000       5.689999510000      51.766680000000
       210    2        9.871899048000       5.689999510000      53.233320000000
       211    1       10.907499636000       7.087499510000      52.985100000000
       212    2       12.033399048000       7.087499510000      51.518355000000
       213    1       13.068999636000       5.689999510000      51.766680000000
       214    2       14.194899048000       5.689999510000      53.233320000000
       215    1       15.230499636000       7.087499510000      52.985100000000
       216    2       16.356399048000       7.087499510000      51.518355000000
       217    1        8.745999636000       8.484999510000      51.766680000000
       218    2        9.871899048000       8.484999510000      53.233320000000
       219    1       10.907499636000       9.882499510000      52.985100000000
       220    2       12.033399048000       9.882499510000      51.518355000000
       221    1       13.068999636000       8.484999510000      51.766680000000
       222    2       14.194899048000       8.484999510000      53.233320000000
       223    1       15.230499636000       9.882499510000      52.985100000000
       224    2       16.356399048000       9.882499510000      51.518355000000
       225    1       17.391999636000       5.689999510000      51.766680000000
       226    2       18.517899048000       5.689999510000      53.233320000000
       227    1       19.553499636000       7.087499510000      52.985100000000
       228    2       20.679399048000       7.087499510000      51.518355000000
       229    1       21.714999636000       5.689999510000      51.766680000000
       230    2       22.840899048000       5.689999510000      53.233320000000
       231    1       23.876499636000       7.087499510000      52.985100000000
       232    2       25.002399048000       7.087499510000      51.518355000000
       233    1       17.391999636000       8.484999510000      51.766680000000
       234    2       18.517899048000       8.484999510000      53.233320000000
       235    1       19.553499636000       9.882499510000      52.985100000000
       236    2       20.679399048000       9.882499510000      51.518355000000
       237    1       21.714999636000       8.484999510000      51.766680000000
       238    2       22.840899048000       8.484999510000      53.233320000000
       239    1       23.876499636000       9.882499510000      52.985100000000
       240    2       25.002399048000       9.882499510000      51.518355000000
       241    1       26.037999636000       5.689999510000      51.766680000000
       242    2       27.163899048000       5.689999510000      53.233320000000
       243    1       28.199499636000       7.087499510000      52.985100000000
       244    2       29.325399048000       7.087499510000      51.518355000000
       245    1       30.360999636000       5.689999510000      51.766680000000
       246    2       31.486899048000       5.689999510000      53.233320000000
       247    1       32.522499636000       7.087499510000      52.985100000000
       248    2       33.648399048000       7.087499510000      51.518355000000
       249    1       26.037999636000       8.484999510000      51.766680000000
       250    2       27.163899048000       8.484999510000      53.233320000000
       251    1       28.199499636000       9.882499510000      52.985100000000
       252    2       29.325399048000       9.882499510000      51.518355000000
       253    1       30.360999636000       8.484999510000      51.766680000000
       254    2       31.486899048000       8.484999510000      53.233320000000
       255    1       32.522499636000       9.882499510000      52.985100000000
       256    2       33.648399048000       9.882499510000      51.518355000000
       257    1       34.683999636000       5.689999510000      51.766680000000
       258    2       35.809899048000       5.689999510000      53.233320000000
       259    1       36.845499636000       7.087499510000      52.985100000000
       260    2       37.971399048000       7.087499510000      51.518355000000
       261    1       39.006999636000       5.689999510000      51.766680000000
       262    2       40.132899048000       5.689999510000      53.233320000000
       263    1       41.168499636000       7.087499510000      52.985100000000
       264    2       42.294399048000       7.087499510000      51.518355000000
       265    1       34.683999636000       8.484999510000      51.766680000000
       266    2       35.809899048000       8.484999510000      53.233320000000
       267    1       36.845499636000       9.882499510000      52.985100000000
       268    2       37.971399048000       9.882499510000      51.518355000000
       269    1       39.006999636000       8.484999510000      51.766680000000
       270    2       40.132899048000       8.484999510000      53.233320000000
       271    1       41.168499636000       9.882499510000      52.985100000000
       272    2       42.294399048000       9.882499510000      51.518355000000
       273    1       43.329999636000       5.689999510000      51.766680000000
       274    2       44.455899048000       5.689999510000      53.233320000000
       275    1       45.491499636000       7.087499510000      52.985100000000
       276    2       46.617399048000       7.087499510000      51.518355000000
       277    1       47.652999636000       5.689999510000      51.766680000000
       278    2       48.778899048000       5.689999510000      53.233320000000
       279    1       49.814499636000       7.087499510000      52.985100000000
       280    2       50.940399048000       7.087499510000      51.518355000000
       281    1       43.329999636000       8.484999510000      51.766680000000
       282    2       44.455899048000       8.484999510000      53.233320000000
       283    1       45.491499636000       9.882499510000      52.985100000000
       284    2       46.617399048000       9.882499510000      51.518355000000
       285    1       47.652999636000       8.484999510000      51.766680000000
       286    2       48.778899048000       8.484999510000      53.233320000000
       287    1       49.814499636000       9.882499510000      52.985100000000
       288    2       50.940399048000       9.882499510000      51.518355000000
       289    1       51.975999636000       5.689999510000      51.766680000000
       290    2       53.101899048000       5.689999510000      53.233320000000
       291    1       54.137499636000       7.087499510000      52.985100000000
       292    2       55.263399048000       7.087499510000      51.518355000000
       293    1       56.298999636000       5.689999510000      51.766680000000
       294    2       57.424899048000       5.689999510000      53.233320000000
       295    1       58.460499636000       7.087499510000      52.985100000000
       296    2       59.586399048000       7.087499510000      51.518355000000
       297    1       51.975999636000       8.484999510000      51.766680000000
       298    2       53.101899048000       8.484999510000      53.233320000000
       299    1       54.137499636000       9.882499510000      52.985100000000
       300    2       55.263399048000       9.882499510000      51.518355000000
       301    1       56.298999636000       8.484999510000      51.766680000000
       302    2       57.424899048000       8.484999510000      53.233320000000
       303    1       58.460499636000       9.882499510000      52.985100000000
       304    2       59.586399048000       9.882499510000      51.518355000000
       305    1       60.621999636000       5.689999510000      51.766680000000
       306    2       61.747899048000       5.689999510000      53.233320000000
       307    1       62.783499636000       7.087499510000      52.985100000000
       308    2       63.909399048000       7.087499510000      51.518355000000
       309    1       64.944999636000       5.689999510000      51.766680000000
       310    2       66.070899048000       5.689999510000      53.233320000000
       311    1       67.106499636000       7.087499510000      52.985100000000
       312    2       68.232399048000       7.087499510000      51.518355000000
       313    1       60.621999636000       8.484999510000      51.766680000000
       314    2       61.747899048000       8.484999510000      53.233320000000
       315    1       62.783499636000       9.882499510000      52.985100000000
       316    2       63.909399048000       9.882499510000      51.518355000000
       317    1       64.944999636000       8.484999510000      51.766680000000
       318    2       66.070899048000       8.484999510000      53.233320000000
       319    1       67.106499636000       9.882499510000      52.985100000000
       320    2       68.232399048000       9.882499510000      51.518355000000
       321    1       69.267999636000       5.689999510000      51.766680000000
       322    2       70.393899048000       5.689999510000      53.233320000000
       323    1       71.429499636000       7.087499510000      52.985100000000
       324    2       72.555399048000       7.087499510000      51.518355000000
       325    1       73.590999636000       5.689999510000      51.766680000000
       326    2       74.716899048000       5.689999510000      53.233320000000
       327    1       75.752499636000       7.087499510000      52.985100000000
       328    2       76.878399048000       7.087499510000      51.518355000000
       329    1       69.267999636000       8.484999510000      51.766680000000
       330    2       70.393899048000       8.484999510000      53.233320000000
       331    1       71.429499636000       9.882499510000      52.985100000000
       332    2       72.555399048000       9.882499510000      51.518355000000
       333    1       73.590999636000       8.484999510000      51.766680000000
       334    2       74.716899048000       8.484999510000      53.233320000000
       335    1       75.752499636000       9.882499510000      52.985100000000
       336    2       76.878399048000       9.882499510000      51.518355000000
       337    1       77.913999636000       5.689999510000      51.766680000000
       338    2       79.039899048000       5.689999510000      53.233320000000
       339    1       80.075499636000       7.087499510000      52.985100000000
       340    2       81.201399048000       7.087499510000      51.518355000000
       341    1       82.236999636000       5.689999510000      51.766680000000
       342    2       83.362899048000       5.689999510000      53.233320000000
       343    1       84.398499636000       7.087499510000      52.985100000000
       344    2       85.524399048000       7.087499510000      51.518355000000
       345    1       77.913999636000       8.484999510000      51.766680000000
       346    2       79.039899048000       8.484999510000      53.233320000000
       347    1       80.075499636000       9.882499510000      52.985100000000
       348    2       81.201399048000       9.882499510000      51.518355000000
       349    1       82.236999636000       8.484999510000      51.766680000000
       350    2       83.362899048000       8.484999510000      53.233320000000
       351    1       84.398499636000       9.882499510000      52.985100000000
       352    2       85.524399048000       9.882499510000      51.518355000000
       353    1       86.559999636000       5.689999510000      51.766680000000
       354    2       87.685899048000       5.689999510000      53.233320000000
       355    1       88.721499636000       7.087499510000      52.985100000000
       356    2       89.847399048000       7.087499510000      51.518355000000
       357    1       90.882999636000       5.689999510000      51.766680000000
       358    2       92.008899048000       5.689999510000      53.233320000000
       359    1       93.044499636000       7.087499510000      52.985100000000
       360    2       94.170399048000       7.087499510000      51.518355000000
       361    1       86.559999636000       8.484999510000      51.766680000000
       362    2       87.685899048000       8.484999510000      53.233320000000
       363    1       88.721499636000       9.882499510000      52.985100000000
       364    2       89.847399048000       9.882499510000      51.518355000000
       365    1       90.882999636000       8.484999510000      51.766680000000
       366    2       92.008899048000       8.484999510000      53.233320000000
       367    1       93.044499636000       9.882499510000      52.985100000000
       368    2       94.170399048000       9.882499510000      51.518355000000
       369    1       95.205999636000       5.689999510000      51.766680000000
       370    2       96.331899048000       5.689999510000      53.233320000000