 # S8 Ge8
  
        2464  atoms
           2  atom types
 
      0.000000000000      98.598500000000  xlo xhi
      0.000000000000     102.258800000000  ylo yhi
      0.000000000000      17.109800000000  zlo zhi
 
Masses
 
            1   32.06000000             # S
            2   72.63000000             # Ge
 
Atoms # atomic
 
         1    1        0.136603740000       3.651822440400       7.487231370200
         2    1        2.377487703500       1.825677485800       9.622671288600
         3    2        0.731134768000       3.651822440400       9.836646447400
         4    2        2.972027695000       1.825699398400       7.272999564400
         5    1        4.618353740000       3.651822440400       7.487231370200
         6    1        6.859237703500       1.825677485800       9.622671288600
         7    2        5.212884768000       3.651822440400       9.836646447400
         8    2        7.453777695000       1.825699398400       7.272999564400
         9    1        0.136603740000       7.303922440400       7.487231370200
        10    1        2.377487703500       5.477777485800       9.622671288600
        11    2        0.731134768000       7.303922440400       9.836646447400
        12    2        2.972027695000       5.477799398400       7.272999564400
        13    1        4.618353740000       7.303922440400       7.487231370200
        14    1        6.859237703500       5.477777485800       9.622671288600
        15    2        5.212884768000       7.303922440400       9.836646447400
        16    2        7.453777695000       5.477799398400       7.272999564400
        17    1        9.100103740000       3.651822440400       7.487231370200
        18    1       11.340987703500       1.825677485800       9.622671288600
        19    2        9.694634768000       3.651822440400       9.836646447400
        20    2       11.935527695000       1.825699398400       7.272999564400
        21    1       13.581853740000       3.651822440400       7.487231370200
        22    1       15.822737703500       1.825677485800       9.622671288600
        23    2       14.176384768000       3.651822440400       9.836646447400
        24    2       16.417277695000       1.825699398400       7.272999564400
        25    1        9.100103740000       7.303922440400       7.487231370200
        26    1       11.340987703500       5.477777485800       9.622671288600
        27    2        9.694634768000       7.303922440400       9.836646447400
        28    2       11.935527695000       5.477799398400       7.272999564400
        29    1       13.581853740000       7.303922440400       7.487231370200
        30    1       15.822737703500       5.477777485800       9.622671288600
        31    2       14.176384768000       7.303922440400       9.836646447400
        32    2       16.417277695000       5.477799398400       7.272999564400
        33    1       18.063603740000       3.651822440400       7.487231370200
        34    1       20.304487703500       1.825677485800       9.622671288600
        35    2       18.658134768000       3.651822440400       9.836646447400
        36    2       20.899027695000       1.825699398400       7.272999564400
        37    1       22.545353740000       3.651822440400       7.487231370200
        38    1       24.786237703500       1.825677485800       9.622671288600
        39    2       23.139884768000       3.651822440400       9.836646447400
        40    2       25.380777695000       1.825699398400       7.272999564400
        41    1       18.063603740000       7.303922440400       7.487231370200
        42    1       20.304487703500       5.477777485800       9.622671288600
        43    2       18.658134768000       7.303922440400       9.836646447400
        44    2       20.899027695000       5.477799398400       7.272999564400
        45    1       22.545353740000       7.303922440400       7.487231370200
        46    1       24.786237703500       5.477777485800       9.622671288600
        47    2       23.139884768000       7.303922440400       9.836646447400
        48    2       25.380777695000       5.477799398400       7.272999564400
        49    1       27.027103740000       3.651822440400       7.487231370200
        50    1       29.267987703500       1.825677485800       9.622671288600
        51    2       27.621634768000       3.651822440400       9.836646447400
        52    2       29.862527695000       1.825699398400       7.272999564400
        53    1       31.508853740000       3.651822440400       7.487231370200
        54    1       33.749737703500       1.825677485800       9.622671288600
        55    2       32.103384768000       3.651822440400       9.836646447400
        56    2       34.344277695000       1.825699398400       7.272999564400
        57    1       27.027103740000       7.303922440400       7.487231370200
        58    1       29.267987703500       5.477777485800       9.622671288600
        59    2       27.621634768000       7.303922440400       9.836646447400
        60    2       29.862527695000       5.477799398400       7.272999564400
        61    1       31.508853740000       7.303922440400       7.487231370200
        62    1       33.749737703500       5.477777485800       9.622671288600
        63    2       32.103384768000       7.303922440400       9.836646447400
        64    2       34.344277695000       5.477799398400       7.272999564400
        65    1       35.990603740000       3.651822440400       7.487231370200
        66    1       38.231487703500       1.825677485800       9.622671288600
        67    2       36.585134768000       3.651822440400       9.836646447400
        68    2       38.826027695000       1.825699398400       7.272999564400
        69    1       40.472353740000       3.651822440400       7.487231370200
        70    1       42.713237703500       1.825677485800       9.622671288600
        71    2       41.066884768000       3.651822440400       9.836646447400
        72    2       43.307777695000       1.825699398400       7.272999564400
        73    1       35.990603740000       7.303922440400       7.487231370200
        74    1       38.231487703500       5.477777485800       9.622671288600
        75    2       36.585134768000       7.303922440400       9.836646447400
        76    2       38.826027695000       5.477799398400       7.272999564400
        77    1       40.472353740000       7.303922440400       7.487231370200
        78    1       42.713237703500       5.477777485800       9.622671288600
        79    2       41.066884768000       7.303922440400       9.836646447400
        80    2       43.307777695000       5.477799398400       7.272999564400
        81    1       44.954103740000       3.651822440400       7.487231370200
        82    1       47.194987703500       1.825677485800       9.622671288600
        83    2       45.548634768000       3.651822440400       9.836646447400
        84    2       47.789527695000       1.825699398400       7.272999564400
        85    1       49.435853740000       3.651822440400       7.487231370200
        86    1       51.676737703500       1.825677485800       9.622671288600
        87    2       50.030384768000       3.651822440400       9.836646447400
        88    2       52.271277695000       1.825699398400       7.272999564400
        89    1       44.954103740000       7.303922440400       7.487231370200
        90    1       47.194987703500       5.477777485800       9.622671288600
        91    2       45.548634768000       7.303922440400       9.836646447400
        92    2       47.789527695000       5.477799398400       7.272999564400
        93    1       49.435853740000       7.303922440400       7.487231370200
        94    1       51.676737703500       5.477777485800       9.622671288600
        95    2       50.030384768000       7.303922440400       9.836646447400
        96    2       52.271277695000       5.477799398400       7.272999564400
        97    1       53.917603740000       3.651822440400       7.487231370200
        98    1       56.158487703500       1.825677485800       9.622671288600
        99    2       54.512134768000       3.651822440400       9.836646447400
       100    2       56.753027695000       1.825699398400       7.272999564400
       101    1       58.399353740000       3.651822440400       7.487231370200
       102    1       60.640237703500       1.825677485800       9.622671288600
       103    2       58.993884768000       3.651822440400       9.836646447400
       104    2       61.234777695000       1.825699398400       7.272999564400
       105    1       53.917603740000       7.303922440400       7.487231370200
       106    1       56.158487703500       5.477777485800       9.622671288600
       107    2       54.512134768000       7.303922440400       9.836646447400
       108    2       56.753027695000       5.477799398400       7.272999564400
       109    1       58.399353740000       7.303922440400       7.487231370200
       110    1       60.640237703500       5.477777485800       9.622671288600
       111    2       58.993884768000       7.303922440400       9.836646447400
       112    2       61.234777695000       5.477799398400       7.272999564400
       113    1       62.881103740000       3.651822440400       7.487231370200
       114    1       65.121987703500       1.825677485800       9.622671288600
       115    2       63.475634768000       3.651822440400       9.836646447400
       116    2       65.716527695000       1.825699398400       7.272999564400
       117    1       67.362853740000       3.651822440400       7.487231370200
       118    1       69.603737703500       1.825677485800       9.622671288600
       119    2       67.957384768000       3.651822440400       9.836646447400
       120    2       70.198277695000       1.825699398400       7.272999564400
       121    1       62.881103740000       7.303922440400       7.487231370200
       122    1       65.121987703500       5.477777485800       9.622671288600
       123    2       63.475634768000       7.303922440400       9.836646447400
       124    2       65.716527695000       5.477799398400       7.272999564400
       125    1       67.362853740000       7.303922440400       7.487231370200
       126    1       69.603737703500       5.477777485800       9.622671288600
       127    2       67.957384768000       7.303922440400       9.836646447400
       128    2       70.198277695000       5.477799398400       7.272999564400
       129    1       71.844603740000       3.651822440400       7.487231370200
       130    1       74.085487703500       1.825677485800       9.622671288600
       131    2       72.439134768000       3.651822440400       9.836646447400
       132    2       74.680027695000       1.825699398400       7.272999564400
       133    1       76.326353740000       3.651822440400       7.487231370200
       134    1       78.567237703500       1.825677485800       9.622671288600
       135    2       76.920884768000       3.651822440400       9.836646447400
       136    2       79.161777695000       1.825699398400       7.272999564400
       137    1       71.844603740000       7.303922440400       7.487231370200
       138    1       74.085487703500       5.477777485800       9.622671288600
       139    2       72.439134768000       7.303922440400       9.836646447400
       140    2       74.680027695000       5.477799398400       7.272999564400
       141    1       76.326353740000       7.303922440400       7.487231370200
       142    1       78.567237703500       5.477777485800       9.622671288600
       143    2       76.920884768000       7.303922440400       9.836646447400
       144    2       79.161777695000       5.477799398400       7.272999564400
       145    1       80.808103740000       3.651822440400       7.487231370200
       146    1       83.048987703500       1.825677485800       9.622671288600
       147    2       81.402634768000       3.651822440400       9.836646447400
       148    2       83.643527695000       1.825699398400       7.272999564400
       149    1       85.289853740000       3.651822440400       7.487231370200
       150    1       87.530737703500       1.825677485800       9.622671288600
       151    2       85.884384768000       3.651822440400       9.836646447400
       152    2       88.125277695000       1.825699398400       7.272999564400
       153    1       80.808103740000       7.303922440400       7.487231370200
       154    1       83.048987703500       5.477777485800       9.622671288600
       155    2       81.402634768000       7.303922440400       9.836646447400
       156    2       83.643527695000       5.477799398400       7.272999564400
       157    1       85.289853740000       7.303922440400       7.487231370200
       158    1       87.530737703500       5.477777485800       9.622671288600
       159    2       85.884384768000       7.303922440400       9.836646447400
       160    2       88.125277695000       5.477799398400       7.272999564400
       161    1       89.771603740000       3.651822440400       7.487231370200
       162    1       92.012487703500       1.825677485800       9.622671288600
       163    2       90.366134768000       3.651822440400       9.836646447400
       164    2       92.607027695000       1.825699398400       7.272999564400
       165    1       94.253353740000       3.651822440400       7.487231370200
       166    1       96.494237703500       1.825677485800       9.622671288600
       167    2       94.847884768000       3.651822440400       9.836646447400
       168    2       97.088777695000       1.825699398400       7.272999564400
       169    1       89.771603740000       7.303922440400       7.487231370200
       170    1       92.012487703500       5.477777485800       9.622671288600
       171    2       90.366134768000       7.303922440400       9.836646447400
       172    2       92.607027695000       5.477799398400       7.272999564400
       173    1       94.253353740000       7.303922440400       7.487231370200
       174    1       96.494237703500       5.477777485800       9.622671288600
       175    2       94.847884768000       7.303922440400       9.836646447400
       176    2       97.088777695000       5.477799398400       7.272999564400
       177    1        0.136603740000      10.956022440400       7.487231370200
       178    1        2.377487703500       9.129877485800       9.622671288600
       179    2        0.731134768000      10.956022440400       9.836646447400
       180    2        2.972027695000       9.129899398400       7.272999564400
       181    1        4.618353740000      10.956022440400       7.487231370200
       182    1        6.859237703500       9.129877485800       9.622671288600
       183    2        5.212884768000      10.956022440400       9.836646447400
       184    2        7.453777695000       9.129899398400       7.272999564400
       185    1        0.136603740000      14.608122440400       7.487231370200
       186    1        2.377487703500      12.781977485800       9.622671288600
       187    2        0.731134768000      14.608122440400       9.836646447400
       188    2        2.972027695000      12.781999398400       7.272999564400
       189    1        4.618353740000      14.608122440400       7.487231370200
       190    1        6.859237703500      12.781977485800       9.622671288600
       191    2        5.212884768000      14.608122440400       9.836646447400
       192    2        7.453777695000      12.781999398400       7.272999564400
       193    1        9.100103740000      10.956022440400       7.487231370200
       194    1       11.340987703500       9.129877485800       9.622671288600
       195    2        9.694634768000      10.956022440400       9.836646447400
       196    2       11.935527695000       9.129899398400       7.272999564400
       197    1       13.581853740000      10.956022440400       7.487231370200
       198    1       15.822737703500       9.129877485800       9.622671288600
       199    2       14.176384768000      10.956022440400       9.836646447400
       200    2       16.417277695000       9.129899398400       7.272999564400
       201    1        9.100103740000      14.608122440400       7.487231370200
       202    1       11.340987703500      12.781977485800       9.622671288600
       203    2        9.694634768000      14.608122440400       9.836646447400
       204    2       11.935527695000      12.781999398400       7.272999564400
       205    1       13.581853740000      14.608122440400       7.487231370200
       206    1       15.822737703500      12.781977485800       9.622671288600
       207    2       14.176384768000      14.608122440400       9.836646447400
       208    2       16.417277695000      12.781999398400       7.272999564400
       209    1       18.063603740000      10.956022440400       7.487231370200
       210    1       20.304487703500       9.129877485800       9.622671288600
       211    2       18.658134768000      10.956022440400       9.836646447400
       212    2       20.899027695000       9.129899398400       7.272999564400
       213    1       22.545353740000      10.956022440400       7.487231370200
       214    1       24.786237703500       9.129877485800       9.622671288600
       215    2       23.139884768000      10.956022440400       9.836646447400
       216    2       25.380777695000       9.129899398400       7.272999564400
       217    1       18.063603740000      14.608122440400       7.487231370200
       218    1       20.304487703500      12.781977485800       9.622671288600
       219    2       18.658134768000      14.608122440400       9.836646447400
       220    2       20.899027695000      12.781999398400       7.272999564400
       221    1       22.545353740000      14.608122440400       7.487231370200
       222    1       24.786237703500      12.781977485800       9.622671288600
       223    2       23.139884768000      14.608122440400       9.836646447400
       224    2       25.380777695000      12.781999398400       7.272999564400
       225    1       27.027103740000      10.956022440400       7.487231370200
       226    1       29.267987703500       9.129877485800       9.622671288600
       227    2       27.621634768000      10.956022440400       9.836646447400
       228    2       29.862527695000       9.129899398400       7.272999564400
       229    1       31.508853740000      10.956022440400       7.487231370200
       230    1       33.749737703500       9.129877485800       9.622671288600
       231    2       32.103384768000      10.956022440400       9.836646447400
       232    2       34.344277695000       9.129899398400       7.272999564400
       233    1       27.027103740000      14.608122440400       7.487231370200
       234    1       29.267987703500      12.781977485800       9.622671288600
       235    2       27.621634768000      14.608122440400       9.836646447400
       236    2       29.862527695000      12.781999398400       7.272999564400
       237    1       31.508853740000      14.608122440400       7.487231370200
       238    1       33.749737703500      12.781977485800       9.622671288600
       239    2       32.103384768000      14.608122440400       9.836646447400
       240    2       34.344277695000      12.781999398400       7.272999564400
       241    1       35.990603740000      10.956022440400       7.487231370200
       242    1       38.231487703500       9.129877485800       9.622671288600
       243    2       36.585134768000      10.956022440400       9.836646447400
       244    2       38.826027695000       9.129899398400       7.272999564400
       245    1       40.472353740000      10.956022440400       7.487231370200
       246    1       42.713237703500       9.129877485800       9.622671288600
       247    2       41.066884768000      10.956022440400       9.836646447400
       248    2       43.307777695000       9.129899398400       7.272999564400
       249    1       35.990603740000      14.608122440400       7.487231370200
       250    1       38.231487703500      12.781977485800       9.622671288600
       251    2       36.585134768000      14.608122440400       9.836646447400
       252    2       38.826027695000      12.781999398400       7.272999564400
       253    1       40.472353740000      14.608122440400       7.487231370200
       254    1       42.713237703500      12.781977485800       9.622671288600
       255    2       41.066884768000      14.608122440400       9.836646447400
       256    2       43.307777695000      12.781999398400       7.272999564400
       257    1       44.954103740000      10.956022440400       7.487231370200
       258    1       47.194987703500       9.129877485800       9.622671288600
       259    2       45.548634768000      10.956022440400       9.836646447400
       260    2       47.789527695000       9.129899398400       7.272999564400
       261    1       49.435853740000      10.956022440400       7.487231370200
       262    1       51.676737703500       9.129877485800       9.622671288600
       263    2       50.030384768000      10.956022440400       9.836646447400
       264    2       52.271277695000       9.129899398400       7.272999564400
       265    1       44.954103740000      14.608122440400       7.487231370200
       266    1       47.194987703500      12.781977485800       9.622671288600
       267    2       45.548634768000      14.608122440400       9.836646447400
       268    2       47.789527695000      12.781999398400       7.272999564400
       269    1       49.435853740000      14.608122440400       7.487231370200
       270    1       51.676737703500      12.781977485800       9.622671288600
       271    2       50.030384768000      14.608122440400       9.836646447400
       272    2       52.271277695000      12.781999398400       7.272999564400
       273    1       53.917603740000      10.956022440400       7.487231370200
       274    1       56.158487703500       9.129877485800       9.622671288600
       275    2       54.512134768000      10.956022440400       9.836646447400
       276    2       56.753027695000       9.129899398400       7.272999564400
       277    1       58.399353740000      10.956022440400       7.487231370200
       278    1       60.640237703500       9.129877485800       9.622671288600
       279    2       58.993884768000      10.956022440400       9.836646447400
       280    2       61.234777695000       9.129899398400       7.272999564400
       281    1       53.917603740000      14.608122440400       7.487231370200
       282    1       56.158487703500      12.781977485800       9.622671288600
       283    2       54.512134768000      14.608122440400       9.836646447400
       284    2       56.753027695000      12.781999398400       7.272999564400
       285    1       58.399353740000      14.608122440400       7.487231370200
       286    1       60.640237703500      12.781977485800       9.622671288600
       287    2       58.993884768000      14.608122440400       9.836646447400
       288    2       61.234777695000      12.781999398400       7.272999564400
       289    1       62.881103740000      10.956022440400       7.487231370200
       290    1       65.121987703500       9.129877485800       9.622671288600
       291    2       63.475634768000      10.956022440400       9.836646447400
       292    2       65.716527695000       9.129899398400       7.272999564400
       293    1       67.362853740000      10.956022440400       7.487231370200
       294    1       69.603737703500       9.129877485800       9.622671288600
       295    2       67.957384768000      10.956022440400       9.836646447400
       296    2       70.198277695000       9.129899398400       7.272999564400
       297    1       62.881103740000      14.608122440400       7.487231370200
       298    1       65.121987703500      12.781977485800       9.622671288600
       299    2       63.475634768000      14.608122440400       9.836646447400
       300    2       65.716527695000      12.781999398400       7.272999564400
       301    1       67.362853740000      14.608122440400       7.487231370200
       302    1       69.603737703500      12.781977485800       9.622671288600
       303    2       67.957384768000      14.608122440400       9.836646447400
       304    2       70.198277695000      12.781999398400       7.272999564400
       305    1       71.844603740000      10.956022440400       7.487231370200
       306    1       74.085487703500       9.129877485800       9.622671288600
       307    2       72.439134768000      10.956022440400       9.836646447400
       308    2       74.680027695000       9.129899398400       7.272999564400
       309    1       76.326353740000      10.956022440400       7.487231370200
       310    1       78.567237703500       9.129877485800       9.622671288600
       311    2       76.920884768000      10.956022440400       9.836646447400
       312    2       79.161777695000       9.129899398400       7.272999564400
       313    1       71.844603740000      14.608122440400       7.487231370200
       314    1       74.085487703500      12.781977485800       9.622671288600
       315    2       72.439134768000      14.608122440400       9.836646447400
       316    2       74.680027695000      12.781999398400       7.272999564400
       317    1       76.326353740000      14.608122440400       7.487231370200
       318    1       78.567237703500      12.781977485800       9.622671288600
       319    2       76.920884768000      14.608122440400       9.836646447400
       320    2       79.161777695000      12.781999398400       7.272999564400
       321    1       80.808103740000      10.956022440400       7.487231370200
       322    1       83.048987703500       9.129877485800       9.622671288600
       323    2       81.402634768000      10.956022440400       9.836646447400
       324    2       83.643527695000       9.129899398400       7.272999564400
       325    1       85.289853740000      10.956022440400       7.487231370200
       326    1       87.530737703500       9.129877485800       9.622671288600
       327    2       85.884384768000      10.956022440400       9.836646447400
       328    2       88.125277695000       9.129899398400       7.272999564400
       329    1       80.808103740000      14.608122440400       7.487231370200
       330    1       83.048987703500      12.781977485800       9.622671288600
       331    2       81.402634768000      14.608122440400       9.836646447400
       332    2       83.643527695000      12.781999398400       7.272999564400
       333    1       85.289853740000      14.608122440400       7.487231370200
       334    1       87.530737703500      12.781977485800       9.622671288600
       335    2       85.884384768000      14.608122440400       9.836646447400
       336    2       88.125277695000      12.781999398400       7.272999564400
       337    1       89.771603740000      10.956022440400       7.487231370200
       338    1       92.012487703500       9.129877485800       9.622671288600
       339    2       90.366134768000      10.956022440400       9.836646447400
       340    2       92.607027695000       9.129899398400       7.272999564400
       341    1       94.253353740000      10.956022440400       7.487231370200
       342    1       96.494237703500       9.129877485800       9.622671288600
       343    2       94.847884768000      10.956022440400       9.836646447400
       344    2       97.088777695000       9.129899398400       7.272999564400
       345    1       89.771603740000      14.608122440400       7.487231370200
       346    1       92.012487703500      12.781977485800       9.622671288600
       347    2       90.366134768000      14.608122440400       9.836646447400
       348    2       92.607027695000      12.781999398400       7.272999564400
       349    1       94.253353740000      14.608122440400       7.487231370200
       350    1       96.494237703500      12.781977485800       9.622671288600
       351    2       94.847884768000      14.608122440400       9.836646447400
       352    2       97.088777695000      12.781999398400       7.272999564400
       353    1        0.136603740000      18.260222440400       7.487231370200
       354    1        2.377487703500      16.434077485800       9.622671288600
       355    2        0.731134768000      18.260222440400       9.836646447400
       356    2        2.972027695000      16.434099398400       7.272999564400
       357    1        4.618353740000      18.260222440400       7.487231370200
       358    1        6.859237703500      16.434077485800       9.622671288600
       359    2        5.212884768000      18.260222440400       9.836646447400
       360    2        7.453777695000      16.434099398400       7.272999564400
       361    1        0.136603740000      21.912322440400       7.487231370200
       362    1        2.377487703500      20.086177485800       9.622671288600
       363    2        0.731134768000      21.912322440400       9.836646447400
       364    2        2.972027695000      20.086199398400       7.272999564400
       365    1        4.618353740000      21.912322440400       7.487231370200
       366    1        6.859237703500      20.086177485800       9.622671288600
       367    2        5.212884768000      21.912322440400       9.836646447400
       368    2        7.453777695000      20.086199398400       7.272999564400
       369    1        9.100103740000      18.260222440400       7.487231370200
       370    1       11.340987703500      16.434077485800       9.622671288600