 # Se8 Ge8
  
        2496  atoms
           2  atom types
 
      0.000000000000     102.567600000000  xlo xhi
      0.000000000000     103.311000000000  ylo yhi
      0.000000000000      17.109800000000  zlo zhi
 
Masses
 
            1   78.96000000             # Se
            2   72.63000000             # Ge
 
Atoms # atomic
 
         1    1        0.230580512100       3.973190067000       7.252108498600
         2    1        2.367858519000       1.986344703000       9.857383525000
         3    2        0.597003263100       3.973198014000       9.764939275600
         4    2        2.734289817300       1.986368544000       7.344450089200
         5    1        4.504230512100       3.973190067000       7.252108498600
         6    1        6.641508519000       1.986344703000       9.857383525000
         7    2        4.870653263100       3.973198014000       9.764939275600
         8    2        7.007939817300       1.986368544000       7.344450089200
         9    1        0.230580512100       7.946690067000       7.252108498600
        10    1        2.367858519000       5.959844703000       9.857383525000
        11    2        0.597003263100       7.946698014000       9.764939275600
        12    2        2.734289817300       5.959868544000       7.344450089200
        13    1        4.504230512100       7.946690067000       7.252108498600
        14    1        6.641508519000       5.959844703000       9.857383525000
        15    2        4.870653263100       7.946698014000       9.764939275600
        16    2        7.007939817300       5.959868544000       7.344450089200
        17    1        8.777880512100       3.973190067000       7.252108498600
        18    1       10.915158519000       1.986344703000       9.857383525000
        19    2        9.144303263100       3.973198014000       9.764939275600
        20    2       11.281589817300       1.986368544000       7.344450089200
        21    1       13.051530512100       3.973190067000       7.252108498600
        22    1       15.188808519000       1.986344703000       9.857383525000
        23    2       13.417953263100       3.973198014000       9.764939275600
        24    2       15.555239817300       1.986368544000       7.344450089200
        25    1        8.777880512100       7.946690067000       7.252108498600
        26    1       10.915158519000       5.959844703000       9.857383525000
        27    2        9.144303263100       7.946698014000       9.764939275600
        28    2       11.281589817300       5.959868544000       7.344450089200
        29    1       13.051530512100       7.946690067000       7.252108498600
        30    1       15.188808519000       5.959844703000       9.857383525000
        31    2       13.417953263100       7.946698014000       9.764939275600
        32    2       15.555239817300       5.959868544000       7.344450089200
        33    1       17.325180512100       3.973190067000       7.252108498600
        34    1       19.462458519000       1.986344703000       9.857383525000
        35    2       17.691603263100       3.973198014000       9.764939275600
        36    2       19.828889817300       1.986368544000       7.344450089200
        37    1       21.598830512100       3.973190067000       7.252108498600
        38    1       23.736108519000       1.986344703000       9.857383525000
        39    2       21.965253263100       3.973198014000       9.764939275600
        40    2       24.102539817300       1.986368544000       7.344450089200
        41    1       17.325180512100       7.946690067000       7.252108498600
        42    1       19.462458519000       5.959844703000       9.857383525000
        43    2       17.691603263100       7.946698014000       9.764939275600
        44    2       19.828889817300       5.959868544000       7.344450089200
        45    1       21.598830512100       7.946690067000       7.252108498600
        46    1       23.736108519000       5.959844703000       9.857383525000
        47    2       21.965253263100       7.946698014000       9.764939275600
        48    2       24.102539817300       5.959868544000       7.344450089200
        49    1       25.872480512100       3.973190067000       7.252108498600
        50    1       28.009758519000       1.986344703000       9.857383525000
        51    2       26.238903263100       3.973198014000       9.764939275600
        52    2       28.376189817300       1.986368544000       7.344450089200
        53    1       30.146130512100       3.973190067000       7.252108498600
        54    1       32.283408519000       1.986344703000       9.857383525000
        55    2       30.512553263100       3.973198014000       9.764939275600
        56    2       32.649839817300       1.986368544000       7.344450089200
        57    1       25.872480512100       7.946690067000       7.252108498600
        58    1       28.009758519000       5.959844703000       9.857383525000
        59    2       26.238903263100       7.946698014000       9.764939275600
        60    2       28.376189817300       5.959868544000       7.344450089200
        61    1       30.146130512100       7.946690067000       7.252108498600
        62    1       32.283408519000       5.959844703000       9.857383525000
        63    2       30.512553263100       7.946698014000       9.764939275600
        64    2       32.649839817300       5.959868544000       7.344450089200
        65    1       34.419780512100       3.973190067000       7.252108498600
        66    1       36.557058519000       1.986344703000       9.857383525000
        67    2       34.786203263100       3.973198014000       9.764939275600
        68    2       36.923489817300       1.986368544000       7.344450089200
        69    1       38.693430512100       3.973190067000       7.252108498600
        70    1       40.830708519000       1.986344703000       9.857383525000
        71    2       39.059853263100       3.973198014000       9.764939275600
        72    2       41.197139817300       1.986368544000       7.344450089200
        73    1       34.419780512100       7.946690067000       7.252108498600
        74    1       36.557058519000       5.959844703000       9.857383525000
        75    2       34.786203263100       7.946698014000       9.764939275600
        76    2       36.923489817300       5.959868544000       7.344450089200
        77    1       38.693430512100       7.946690067000       7.252108498600
        78    1       40.830708519000       5.959844703000       9.857383525000
        79    2       39.059853263100       7.946698014000       9.764939275600
        80    2       41.197139817300       5.959868544000       7.344450089200
        81    1       42.967080512100       3.973190067000       7.252108498600
        82    1       45.104358519000       1.986344703000       9.857383525000
        83    2       43.333503263100       3.973198014000       9.764939275600
        84    2       45.470789817300       1.986368544000       7.344450089200
        85    1       47.240730512100       3.973190067000       7.252108498600
        86    1       49.378008519000       1.986344703000       9.857383525000
        87    2       47.607153263100       3.973198014000       9.764939275600
        88    2       49.744439817300       1.986368544000       7.344450089200
        89    1       42.967080512100       7.946690067000       7.252108498600
        90    1       45.104358519000       5.959844703000       9.857383525000
        91    2       43.333503263100       7.946698014000       9.764939275600
        92    2       45.470789817300       5.959868544000       7.344450089200
        93    1       47.240730512100       7.946690067000       7.252108498600
        94    1       49.378008519000       5.959844703000       9.857383525000
        95    2       47.607153263100       7.946698014000       9.764939275600
        96    2       49.744439817300       5.959868544000       7.344450089200
        97    1       51.514380512100       3.973190067000       7.252108498600
        98    1       53.651658519000       1.986344703000       9.857383525000
        99    2       51.880803263100       3.973198014000       9.764939275600
       100    2       54.018089817300       1.986368544000       7.344450089200
       101    1       55.788030512100       3.973190067000       7.252108498600
       102    1       57.925308519000       1.986344703000       9.857383525000
       103    2       56.154453263100       3.973198014000       9.764939275600
       104    2       58.291739817300       1.986368544000       7.344450089200
       105    1       51.514380512100       7.946690067000       7.252108498600
       106    1       53.651658519000       5.959844703000       9.857383525000
       107    2       51.880803263100       7.946698014000       9.764939275600
       108    2       54.018089817300       5.959868544000       7.344450089200
       109    1       55.788030512100       7.946690067000       7.252108498600
       110    1       57.925308519000       5.959844703000       9.857383525000
       111    2       56.154453263100       7.946698014000       9.764939275600
       112    2       58.291739817300       5.959868544000       7.344450089200
       113    1       60.061680512100       3.973190067000       7.252108498600
       114    1       62.198958519000       1.986344703000       9.857383525000
       115    2       60.428103263100       3.973198014000       9.764939275600
       116    2       62.565389817300       1.986368544000       7.344450089200
       117    1       64.335330512100       3.973190067000       7.252108498600
       118    1       66.472608519000       1.986344703000       9.857383525000
       119    2       64.701753263100       3.973198014000       9.764939275600
       120    2       66.839039817300       1.986368544000       7.344450089200
       121    1       60.061680512100       7.946690067000       7.252108498600
       122    1       62.198958519000       5.959844703000       9.857383525000
       123    2       60.428103263100       7.946698014000       9.764939275600
       124    2       62.565389817300       5.959868544000       7.344450089200
       125    1       64.335330512100       7.946690067000       7.252108498600
       126    1       66.472608519000       5.959844703000       9.857383525000
       127    2       64.701753263100       7.946698014000       9.764939275600
       128    2       66.839039817300       5.959868544000       7.344450089200
       129    1       68.608980512100       3.973190067000       7.252108498600
       130    1       70.746258519000       1.986344703000       9.857383525000
       131    2       68.975403263100       3.973198014000       9.764939275600
       132    2       71.112689817300       1.986368544000       7.344450089200
       133    1       72.882630512100       3.973190067000       7.252108498600
       134    1       75.019908519000       1.986344703000       9.857383525000
       135    2       73.249053263100       3.973198014000       9.764939275600
       136    2       75.386339817300       1.986368544000       7.344450089200
       137    1       68.608980512100       7.946690067000       7.252108498600
       138    1       70.746258519000       5.959844703000       9.857383525000
       139    2       68.975403263100       7.946698014000       9.764939275600
       140    2       71.112689817300       5.959868544000       7.344450089200
       141    1       72.882630512100       7.946690067000       7.252108498600
       142    1       75.019908519000       5.959844703000       9.857383525000
       143    2       73.249053263100       7.946698014000       9.764939275600
       144    2       75.386339817300       5.959868544000       7.344450089200
       145    1       77.156280512100       3.973190067000       7.252108498600
       146    1       79.293558519000       1.986344703000       9.857383525000
       147    2       77.522703263100       3.973198014000       9.764939275600
       148    2       79.659989817300       1.986368544000       7.344450089200
       149    1       81.429930512100       3.973190067000       7.252108498600
       150    1       83.567208519000       1.986344703000       9.857383525000
       151    2       81.796353263100       3.973198014000       9.764939275600
       152    2       83.933639817300       1.986368544000       7.344450089200
       153    1       77.156280512100       7.946690067000       7.252108498600
       154    1       79.293558519000       5.959844703000       9.857383525000
       155    2       77.522703263100       7.946698014000       9.764939275600
       156    2       79.659989817300       5.959868544000       7.344450089200
       157    1       81.429930512100       7.946690067000       7.252108498600
       158    1       83.567208519000       5.959844703000       9.857383525000
       159    2       81.796353263100       7.946698014000       9.764939275600
       160    2       83.933639817300       5.959868544000       7.344450089200
       161    1       85.703580512100       3.973190067000       7.252108498600
       162    1       87.840858519000       1.986344703000       9.857383525000
       163    2       86.070003263100       3.973198014000       9.764939275600
       164    2       88.207289817300       1.986368544000       7.344450089200
       165    1       89.977230512100       3.973190067000       7.252108498600
       166    1       92.114508519000       1.986344703000       9.857383525000
       167    2       90.343653263100       3.973198014000       9.764939275600
       168    2       92.480939817300       1.986368544000       7.344450089200
       169    1       85.703580512100       7.946690067000       7.252108498600
       170    1       87.840858519000       5.959844703000       9.857383525000
       171    2       86.070003263100       7.946698014000       9.764939275600
       172    2       88.207289817300       5.959868544000       7.344450089200
       173    1       89.977230512100       7.946690067000       7.252108498600
       174    1       92.114508519000       5.959844703000       9.857383525000
       175    2       90.343653263100       7.946698014000       9.764939275600
       176    2       92.480939817300       5.959868544000       7.344450089200
       177    1       94.250880512100       3.973190067000       7.252108498600
       178    1       96.388158519000       1.986344703000       9.857383525000
       179    2       94.617303263100       3.973198014000       9.764939275600
       180    2       96.754589817300       1.986368544000       7.344450089200
       181    1       98.524530512100       3.973190067000       7.252108498600
       182    1      100.661808519000       1.986344703000       9.857383525000
       183    2       98.890953263100       3.973198014000       9.764939275600
       184    2      101.028239817300       1.986368544000       7.344450089200
       185    1       94.250880512100       7.946690067000       7.252108498600
       186    1       96.388158519000       5.959844703000       9.857383525000
       187    2       94.617303263100       7.946698014000       9.764939275600
       188    2       96.754589817300       5.959868544000       7.344450089200
       189    1       98.524530512100       7.946690067000       7.252108498600
       190    1      100.661808519000       5.959844703000       9.857383525000
       191    2       98.890953263100       7.946698014000       9.764939275600
       192    2      101.028239817300       5.959868544000       7.344450089200
       193    1        0.230580512100      11.920190067000       7.252108498600
       194    1        2.367858519000       9.933344703000       9.857383525000
       195    2        0.597003263100      11.920198014000       9.764939275600
       196    2        2.734289817300       9.933368544000       7.344450089200
       197    1        4.504230512100      11.920190067000       7.252108498600
       198    1        6.641508519000       9.933344703000       9.857383525000
       199    2        4.870653263100      11.920198014000       9.764939275600
       200    2        7.007939817300       9.933368544000       7.344450089200
       201    1        0.230580512100      15.893690067000       7.252108498600
       202    1        2.367858519000      13.906844703000       9.857383525000
       203    2        0.597003263100      15.893698014000       9.764939275600
       204    2        2.734289817300      13.906868544000       7.344450089200
       205    1        4.504230512100      15.893690067000       7.252108498600
       206    1        6.641508519000      13.906844703000       9.857383525000
       207    2        4.870653263100      15.893698014000       9.764939275600
       208    2        7.007939817300      13.906868544000       7.344450089200
       209    1        8.777880512100      11.920190067000       7.252108498600
       210    1       10.915158519000       9.933344703000       9.857383525000
       211    2        9.144303263100      11.920198014000       9.764939275600
       212    2       11.281589817300       9.933368544000       7.344450089200
       213    1       13.051530512100      11.920190067000       7.252108498600
       214    1       15.188808519000       9.933344703000       9.857383525000
       215    2       13.417953263100      11.920198014000       9.764939275600
       216    2       15.555239817300       9.933368544000       7.344450089200
       217    1        8.777880512100      15.893690067000       7.252108498600
       218    1       10.915158519000      13.906844703000       9.857383525000
       219    2        9.144303263100      15.893698014000       9.764939275600
       220    2       11.281589817300      13.906868544000       7.344450089200
       221    1       13.051530512100      15.893690067000       7.252108498600
       222    1       15.188808519000      13.906844703000       9.857383525000
       223    2       13.417953263100      15.893698014000       9.764939275600
       224    2       15.555239817300      13.906868544000       7.344450089200
       225    1       17.325180512100      11.920190067000       7.252108498600
       226    1       19.462458519000       9.933344703000       9.857383525000
       227    2       17.691603263100      11.920198014000       9.764939275600
       228    2       19.828889817300       9.933368544000       7.344450089200
       229    1       21.598830512100      11.920190067000       7.252108498600
       230    1       23.736108519000       9.933344703000       9.857383525000
       231    2       21.965253263100      11.920198014000       9.764939275600
       232    2       24.102539817300       9.933368544000       7.344450089200
       233    1       17.325180512100      15.893690067000       7.252108498600
       234    1       19.462458519000      13.906844703000       9.857383525000
       235    2       17.691603263100      15.893698014000       9.764939275600
       236    2       19.828889817300      13.906868544000       7.344450089200
       237    1       21.598830512100      15.893690067000       7.252108498600
       238    1       23.736108519000      13.906844703000       9.857383525000
       239    2       21.965253263100      15.893698014000       9.764939275600
       240    2       24.102539817300      13.906868544000       7.344450089200
       241    1       25.872480512100      11.920190067000       7.252108498600
       242    1       28.009758519000       9.933344703000       9.857383525000
       243    2       26.238903263100      11.920198014000       9.764939275600
       244    2       28.376189817300       9.933368544000       7.344450089200
       245    1       30.146130512100      11.920190067000       7.252108498600
       246    1       32.283408519000       9.933344703000       9.857383525000
       247    2       30.512553263100      11.920198014000       9.764939275600
       248    2       32.649839817300       9.933368544000       7.344450089200
       249    1       25.872480512100      15.893690067000       7.252108498600
       250    1       28.009758519000      13.906844703000       9.857383525000
       251    2       26.238903263100      15.893698014000       9.764939275600
       252    2       28.376189817300      13.906868544000       7.344450089200
       253    1       30.146130512100      15.893690067000       7.252108498600
       254    1       32.283408519000      13.906844703000       9.857383525000
       255    2       30.512553263100      15.893698014000       9.764939275600
       256    2       32.649839817300      13.906868544000       7.344450089200
       257    1       34.419780512100      11.920190067000       7.252108498600
       258    1       36.557058519000       9.933344703000       9.857383525000
       259    2       34.786203263100      11.920198014000       9.764939275600
       260    2       36.923489817300       9.933368544000       7.344450089200
       261    1       38.693430512100      11.920190067000       7.252108498600
       262    1       40.830708519000       9.933344703000       9.857383525000
       263    2       39.059853263100      11.920198014000       9.764939275600
       264    2       41.197139817300       9.933368544000       7.344450089200
       265    1       34.419780512100      15.893690067000       7.252108498600
       266    1       36.557058519000      13.906844703000       9.857383525000
       267    2       34.786203263100      15.893698014000       9.764939275600
       268    2       36.923489817300      13.906868544000       7.344450089200
       269    1       38.693430512100      15.893690067000       7.252108498600
       270    1       40.830708519000      13.906844703000       9.857383525000
       271    2       39.059853263100      15.893698014000       9.764939275600
       272    2       41.197139817300      13.906868544000       7.344450089200
       273    1       42.967080512100      11.920190067000       7.252108498600
       274    1       45.104358519000       9.933344703000       9.857383525000
       275    2       43.333503263100      11.920198014000       9.764939275600
       276    2       45.470789817300       9.933368544000       7.344450089200
       277    1       47.240730512100      11.920190067000       7.252108498600
       278    1       49.378008519000       9.933344703000       9.857383525000
       279    2       47.607153263100      11.920198014000       9.764939275600
       280    2       49.744439817300       9.933368544000       7.344450089200
       281    1       42.967080512100      15.893690067000       7.252108498600
       282    1       45.104358519000      13.906844703000       9.857383525000
       283    2       43.333503263100      15.893698014000       9.764939275600
       284    2       45.470789817300      13.906868544000       7.344450089200
       285    1       47.240730512100      15.893690067000       7.252108498600
       286    1       49.378008519000      13.906844703000       9.857383525000
       287    2       47.607153263100      15.893698014000       9.764939275600
       288    2       49.744439817300      13.906868544000       7.344450089200
       289    1       51.514380512100      11.920190067000       7.252108498600
       290    1       53.651658519000       9.933344703000       9.857383525000
       291    2       51.880803263100      11.920198014000       9.764939275600
       292    2       54.018089817300       9.933368544000       7.344450089200
       293    1       55.788030512100      11.920190067000       7.252108498600
       294    1       57.925308519000       9.933344703000       9.857383525000
       295    2       56.154453263100      11.920198014000       9.764939275600
       296    2       58.291739817300       9.933368544000       7.344450089200
       297    1       51.514380512100      15.893690067000       7.252108498600
       298    1       53.651658519000      13.906844703000       9.857383525000
       299    2       51.880803263100      15.893698014000       9.764939275600
       300    2       54.018089817300      13.906868544000       7.344450089200
       301    1       55.788030512100      15.893690067000       7.252108498600
       302    1       57.925308519000      13.906844703000       9.857383525000
       303    2       56.154453263100      15.893698014000       9.764939275600
       304    2       58.291739817300      13.906868544000       7.344450089200
       305    1       60.061680512100      11.920190067000       7.252108498600
       306    1       62.198958519000       9.933344703000       9.857383525000
       307    2       60.428103263100      11.920198014000       9.764939275600
       308    2       62.565389817300       9.933368544000       7.344450089200
       309    1       64.335330512100      11.920190067000       7.252108498600
       310    1       66.472608519000       9.933344703000       9.857383525000
       311    2       64.701753263100      11.920198014000       9.764939275600
       312    2       66.839039817300       9.933368544000       7.344450089200
       313    1       60.061680512100      15.893690067000       7.252108498600
       314    1       62.198958519000      13.906844703000       9.857383525000
       315    2       60.428103263100      15.893698014000       9.764939275600
       316    2       62.565389817300      13.906868544000       7.344450089200
       317    1       64.335330512100      15.893690067000       7.252108498600
       318    1       66.472608519000      13.906844703000       9.857383525000
       319    2       64.701753263100      15.893698014000       9.764939275600
       320    2       66.839039817300      13.906868544000       7.344450089200
       321    1       68.608980512100      11.920190067000       7.252108498600
       322    1       70.746258519000       9.933344703000       9.857383525000
       323    2       68.975403263100      11.920198014000       9.764939275600
       324    2       71.112689817300       9.933368544000       7.344450089200
       325    1       72.882630512100      11.920190067000       7.252108498600
       326    1       75.019908519000       9.933344703000       9.857383525000
       327    2       73.249053263100      11.920198014000       9.764939275600
       328    2       75.386339817300       9.933368544000       7.344450089200
       329    1       68.608980512100      15.893690067000       7.252108498600
       330    1       70.746258519000      13.906844703000       9.857383525000
       331    2       68.975403263100      15.893698014000       9.764939275600
       332    2       71.112689817300      13.906868544000       7.344450089200
       333    1       72.882630512100      15.893690067000       7.252108498600
       334    1       75.019908519000      13.906844703000       9.857383525000
       335    2       73.249053263100      15.893698014000       9.764939275600
       336    2       75.386339817300      13.906868544000       7.344450089200
       337    1       77.156280512100      11.920190067000       7.252108498600
       338    1       79.293558519000       9.933344703000       9.857383525000
       339    2       77.522703263100      11.920198014000       9.764939275600
       340    2       79.659989817300       9.933368544000       7.344450089200
       341    1       81.429930512100      11.920190067000       7.252108498600
       342    1       83.567208519000       9.933344703000       9.857383525000
       343    2       81.796353263100      11.920198014000       9.764939275600
       344    2       83.933639817300       9.933368544000       7.344450089200
       345    1       77.156280512100      15.893690067000       7.252108498600
       346    1       79.293558519000      13.906844703000       9.857383525000
       347    2       77.522703263100      15.893698014000       9.764939275600
       348    2       79.659989817300      13.906868544000       7.344450089200
       349    1       81.429930512100      15.893690067000       7.252108498600
       350    1       83.567208519000      13.906844703000       9.857383525000
       351    2       81.796353263100      15.893698014000       9.764939275600
       352    2       83.933639817300      13.906868544000       7.344450089200
       353    1       85.703580512100      11.920190067000       7.252108498600
       354    1       87.840858519000       9.933344703000       9.857383525000
       355    2       86.070003263100      11.920198014000       9.764939275600
       356    2       88.207289817300       9.933368544000       7.344450089200
       357    1       89.977230512100      11.920190067000       7.252108498600
       358    1       92.114508519000       9.933344703000       9.857383525000
       359    2       90.343653263100      11.920198014000       9.764939275600
       360    2       92.480939817300       9.933368544000       7.344450089200
       361    1       85.703580512100      15.893690067000       7.252108498600
       362    1       87.840858519000      13.906844703000       9.857383525000
       363    2       86.070003263100      15.893698014000       9.764939275600
       364    2       88.207289817300      13.906868544000       7.344450089200
       365    1       89.977230512100      15.893690067000       7.252108498600
       366    1       92.114508519000      13.906844703000       9.857383525000
       367    2       90.343653263100      15.893698014000       9.764939275600
       368    2       92.480939817300      13.906868544000       7.344450089200
       369    1       94.250880512100      11.920190067000       7.252108498600
       370    1       96.388158519000       9.933344703000       9.857383525000