 # Se8 Si8
  
        2240  atoms
           2  atom types
 
      0.000000000000      95.561000000000  xlo xhi
      0.000000000000     100.987600000000  ylo yhi
      0.000000000000      17.109800000000  zlo zhi
 
Masses
 
            1   78.96000000             # Se
            2   28.08500000             # Si
 
Atoms # atomic
 
         1    1        0.119174123100       3.606382610400       7.431658739800
         2    1        2.508199123100       1.803039823800       9.678124150400
         3    2        0.811398894900       3.606382610400       9.810725100400
         4    2        3.200423894900       1.803032610400       7.299074899600
         5    1        4.897224123100       3.606382610400       7.431658739800
         6    1        7.286249123100       1.803039823800       9.678124150400
         7    2        5.589448894900       3.606382610400       9.810725100400
         8    2        7.978473894900       1.803032610400       7.299074899600
         9    1        0.119174123100       7.213082610400       7.431658739800
        10    1        2.508199123100       5.409739823800       9.678124150400
        11    2        0.811398894900       7.213082610400       9.810725100400
        12    2        3.200423894900       5.409732610400       7.299074899600
        13    1        4.897224123100       7.213082610400       7.431658739800
        14    1        7.286249123100       5.409739823800       9.678124150400
        15    2        5.589448894900       7.213082610400       9.810725100400
        16    2        7.978473894900       5.409732610400       7.299074899600
        17    1        9.675274123100       3.606382610400       7.431658739800
        18    1       12.064299123100       1.803039823800       9.678124150400
        19    2       10.367498894900       3.606382610400       9.810725100400
        20    2       12.756523894900       1.803032610400       7.299074899600
        21    1       14.453324123100       3.606382610400       7.431658739800
        22    1       16.842349123100       1.803039823800       9.678124150400
        23    2       15.145548894900       3.606382610400       9.810725100400
        24    2       17.534573894900       1.803032610400       7.299074899600
        25    1        9.675274123100       7.213082610400       7.431658739800
        26    1       12.064299123100       5.409739823800       9.678124150400
        27    2       10.367498894900       7.213082610400       9.810725100400
        28    2       12.756523894900       5.409732610400       7.299074899600
        29    1       14.453324123100       7.213082610400       7.431658739800
        30    1       16.842349123100       5.409739823800       9.678124150400
        31    2       15.145548894900       7.213082610400       9.810725100400
        32    2       17.534573894900       5.409732610400       7.299074899600
        33    1       19.231374123100       3.606382610400       7.431658739800
        34    1       21.620399123100       1.803039823800       9.678124150400
        35    2       19.923598894900       3.606382610400       9.810725100400
        36    2       22.312623894900       1.803032610400       7.299074899600
        37    1       24.009424123100       3.606382610400       7.431658739800
        38    1       26.398449123100       1.803039823800       9.678124150400
        39    2       24.701648894900       3.606382610400       9.810725100400
        40    2       27.090673894900       1.803032610400       7.299074899600
        41    1       19.231374123100       7.213082610400       7.431658739800
        42    1       21.620399123100       5.409739823800       9.678124150400
        43    2       19.923598894900       7.213082610400       9.810725100400
        44    2       22.312623894900       5.409732610400       7.299074899600
        45    1       24.009424123100       7.213082610400       7.431658739800
        46    1       26.398449123100       5.409739823800       9.678124150400
        47    2       24.701648894900       7.213082610400       9.810725100400
        48    2       27.090673894900       5.409732610400       7.299074899600
        49    1       28.787474123100       3.606382610400       7.431658739800
        50    1       31.176499123100       1.803039823800       9.678124150400
        51    2       29.479698894900       3.606382610400       9.810725100400
        52    2       31.868723894900       1.803032610400       7.299074899600
        53    1       33.565524123100       3.606382610400       7.431658739800
        54    1       35.954549123100       1.803039823800       9.678124150400
        55    2       34.257748894900       3.606382610400       9.810725100400
        56    2       36.646773894900       1.803032610400       7.299074899600
        57    1       28.787474123100       7.213082610400       7.431658739800
        58    1       31.176499123100       5.409739823800       9.678124150400
        59    2       29.479698894900       7.213082610400       9.810725100400
        60    2       31.868723894900       5.409732610400       7.299074899600
        61    1       33.565524123100       7.213082610400       7.431658739800
        62    1       35.954549123100       5.409739823800       9.678124150400
        63    2       34.257748894900       7.213082610400       9.810725100400
        64    2       36.646773894900       5.409732610400       7.299074899600
        65    1       38.343574123100       3.606382610400       7.431658739800
        66    1       40.732599123100       1.803039823800       9.678124150400
        67    2       39.035798894900       3.606382610400       9.810725100400
        68    2       41.424823894900       1.803032610400       7.299074899600
        69    1       43.121624123100       3.606382610400       7.431658739800
        70    1       45.510649123100       1.803039823800       9.678124150400
        71    2       43.813848894900       3.606382610400       9.810725100400
        72    2       46.202873894900       1.803032610400       7.299074899600
        73    1       38.343574123100       7.213082610400       7.431658739800
        74    1       40.732599123100       5.409739823800       9.678124150400
        75    2       39.035798894900       7.213082610400       9.810725100400
        76    2       41.424823894900       5.409732610400       7.299074899600
        77    1       43.121624123100       7.213082610400       7.431658739800
        78    1       45.510649123100       5.409739823800       9.678124150400
        79    2       43.813848894900       7.213082610400       9.810725100400
        80    2       46.202873894900       5.409732610400       7.299074899600
        81    1       47.899674123100       3.606382610400       7.431658739800
        82    1       50.288699123100       1.803039823800       9.678124150400
        83    2       48.591898894900       3.606382610400       9.810725100400
        84    2       50.980923894900       1.803032610400       7.299074899600
        85    1       52.677724123100       3.606382610400       7.431658739800
        86    1       55.066749123100       1.803039823800       9.678124150400
        87    2       53.369948894900       3.606382610400       9.810725100400
        88    2       55.758973894900       1.803032610400       7.299074899600
        89    1       47.899674123100       7.213082610400       7.431658739800
        90    1       50.288699123100       5.409739823800       9.678124150400
        91    2       48.591898894900       7.213082610400       9.810725100400
        92    2       50.980923894900       5.409732610400       7.299074899600
        93    1       52.677724123100       7.213082610400       7.431658739800
        94    1       55.066749123100       5.409739823800       9.678124150400
        95    2       53.369948894900       7.213082610400       9.810725100400
        96    2       55.758973894900       5.409732610400       7.299074899600
        97    1       57.455774123100       3.606382610400       7.431658739800
        98    1       59.844799123100       1.803039823800       9.678124150400
        99    2       58.147998894900       3.606382610400       9.810725100400
       100    2       60.537023894900       1.803032610400       7.299074899600
       101    1       62.233824123100       3.606382610400       7.431658739800
       102    1       64.622849123100       1.803039823800       9.678124150400
       103    2       62.926048894900       3.606382610400       9.810725100400
       104    2       65.315073894900       1.803032610400       7.299074899600
       105    1       57.455774123100       7.213082610400       7.431658739800
       106    1       59.844799123100       5.409739823800       9.678124150400
       107    2       58.147998894900       7.213082610400       9.810725100400
       108    2       60.537023894900       5.409732610400       7.299074899600
       109    1       62.233824123100       7.213082610400       7.431658739800
       110    1       64.622849123100       5.409739823800       9.678124150400
       111    2       62.926048894900       7.213082610400       9.810725100400
       112    2       65.315073894900       5.409732610400       7.299074899600
       113    1       67.011874123100       3.606382610400       7.431658739800
       114    1       69.400899123100       1.803039823800       9.678124150400
       115    2       67.704098894900       3.606382610400       9.810725100400
       116    2       70.093123894900       1.803032610400       7.299074899600
       117    1       71.789924123100       3.606382610400       7.431658739800
       118    1       74.178949123100       1.803039823800       9.678124150400
       119    2       72.482148894900       3.606382610400       9.810725100400
       120    2       74.871173894900       1.803032610400       7.299074899600
       121    1       67.011874123100       7.213082610400       7.431658739800
       122    1       69.400899123100       5.409739823800       9.678124150400
       123    2       67.704098894900       7.213082610400       9.810725100400
       124    2       70.093123894900       5.409732610400       7.299074899600
       125    1       71.789924123100       7.213082610400       7.431658739800
       126    1       74.178949123100       5.409739823800       9.678124150400
       127    2       72.482148894900       7.213082610400       9.810725100400
       128    2       74.871173894900       5.409732610400       7.299074899600
       129    1       76.567974123100       3.606382610400       7.431658739800
       130    1       78.956999123100       1.803039823800       9.678124150400
       131    2       77.260198894900       3.606382610400       9.810725100400
       132    2       79.649223894900       1.803032610400       7.299074899600
       133    1       81.346024123100       3.606382610400       7.431658739800
       134    1       83.735049123100       1.803039823800       9.678124150400
       135    2       82.038248894900       3.606382610400       9.810725100400
       136    2       84.427273894900       1.803032610400       7.299074899600
       137    1       76.567974123100       7.213082610400       7.431658739800
       138    1       78.956999123100       5.409739823800       9.678124150400
       139    2       77.260198894900       7.213082610400       9.810725100400
       140    2       79.649223894900       5.409732610400       7.299074899600
       141    1       81.346024123100       7.213082610400       7.431658739800
       142    1       83.735049123100       5.409739823800       9.678124150400
       143    2       82.038248894900       7.213082610400       9.810725100400
       144    2       84.427273894900       5.409732610400       7.299074899600
       145    1       86.124074123100       3.606382610400       7.431658739800
       146    1       88.513099123100       1.803039823800       9.678124150400
       147    2       86.816298894900       3.606382610400       9.810725100400
       148    2       89.205323894900       1.803032610400       7.299074899600
       149    1       90.902124123100       3.606382610400       7.431658739800
       150    1       93.291149123100       1.803039823800       9.678124150400
       151    2       91.594348894900       3.606382610400       9.810725100400
       152    2       93.983373894900       1.803032610400       7.299074899600
       153    1       86.124074123100       7.213082610400       7.431658739800
       154    1       88.513099123100       5.409739823800       9.678124150400
       155    2       86.816298894900       7.213082610400       9.810725100400
       156    2       89.205323894900       5.409732610400       7.299074899600
       157    1       90.902124123100       7.213082610400       7.431658739800
       158    1       93.291149123100       5.409739823800       9.678124150400
       159    2       91.594348894900       7.213082610400       9.810725100400
       160    2       93.983373894900       5.409732610400       7.299074899600
       161    1        0.119174123100      10.819782610400       7.431658739800
       162    1        2.508199123100       9.016439823800       9.678124150400
       163    2        0.811398894900      10.819782610400       9.810725100400
       164    2        3.200423894900       9.016432610400       7.299074899600
       165    1        4.897224123100      10.819782610400       7.431658739800
       166    1        7.286249123100       9.016439823800       9.678124150400
       167    2        5.589448894900      10.819782610400       9.810725100400
       168    2        7.978473894900       9.016432610400       7.299074899600
       169    1        0.119174123100      14.426482610400       7.431658739800
       170    1        2.508199123100      12.623139823800       9.678124150400
       171    2        0.811398894900      14.426482610400       9.810725100400
       172    2        3.200423894900      12.623132610400       7.299074899600
       173    1        4.897224123100      14.426482610400       7.431658739800
       174    1        7.286249123100      12.623139823800       9.678124150400
       175    2        5.589448894900      14.426482610400       9.810725100400
       176    2        7.978473894900      12.623132610400       7.299074899600
       177    1        9.675274123100      10.819782610400       7.431658739800
       178    1       12.064299123100       9.016439823800       9.678124150400
       179    2       10.367498894900      10.819782610400       9.810725100400
       180    2       12.756523894900       9.016432610400       7.299074899600
       181    1       14.453324123100      10.819782610400       7.431658739800
       182    1       16.842349123100       9.016439823800       9.678124150400
       183    2       15.145548894900      10.819782610400       9.810725100400
       184    2       17.534573894900       9.016432610400       7.299074899600
       185    1        9.675274123100      14.426482610400       7.431658739800
       186    1       12.064299123100      12.623139823800       9.678124150400
       187    2       10.367498894900      14.426482610400       9.810725100400
       188    2       12.756523894900      12.623132610400       7.299074899600
       189    1       14.453324123100      14.426482610400       7.431658739800
       190    1       16.842349123100      12.623139823800       9.678124150400
       191    2       15.145548894900      14.426482610400       9.810725100400
       192    2       17.534573894900      12.623132610400       7.299074899600
       193    1       19.231374123100      10.819782610400       7.431658739800
       194    1       21.620399123100       9.016439823800       9.678124150400
       195    2       19.923598894900      10.819782610400       9.810725100400
       196    2       22.312623894900       9.016432610400       7.299074899600
       197    1       24.009424123100      10.819782610400       7.431658739800
       198    1       26.398449123100       9.016439823800       9.678124150400
       199    2       24.701648894900      10.819782610400       9.810725100400
       200    2       27.090673894900       9.016432610400       7.299074899600
       201    1       19.231374123100      14.426482610400       7.431658739800
       202    1       21.620399123100      12.623139823800       9.678124150400
       203    2       19.923598894900      14.426482610400       9.810725100400
       204    2       22.312623894900      12.623132610400       7.299074899600
       205    1       24.009424123100      14.426482610400       7.431658739800
       206    1       26.398449123100      12.623139823800       9.678124150400
       207    2       24.701648894900      14.426482610400       9.810725100400
       208    2       27.090673894900      12.623132610400       7.299074899600
       209    1       28.787474123100      10.819782610400       7.431658739800
       210    1       31.176499123100       9.016439823800       9.678124150400
       211    2       29.479698894900      10.819782610400       9.810725100400
       212    2       31.868723894900       9.016432610400       7.299074899600
       213    1       33.565524123100      10.819782610400       7.431658739800
       214    1       35.954549123100       9.016439823800       9.678124150400
       215    2       34.257748894900      10.819782610400       9.810725100400
       216    2       36.646773894900       9.016432610400       7.299074899600
       217    1       28.787474123100      14.426482610400       7.431658739800
       218    1       31.176499123100      12.623139823800       9.678124150400
       219    2       29.479698894900      14.426482610400       9.810725100400
       220    2       31.868723894900      12.623132610400       7.299074899600
       221    1       33.565524123100      14.426482610400       7.431658739800
       222    1       35.954549123100      12.623139823800       9.678124150400
       223    2       34.257748894900      14.426482610400       9.810725100400
       224    2       36.646773894900      12.623132610400       7.299074899600
       225    1       38.343574123100      10.819782610400       7.431658739800
       226    1       40.732599123100       9.016439823800       9.678124150400
       227    2       39.035798894900      10.819782610400       9.810725100400
       228    2       41.424823894900       9.016432610400       7.299074899600
       229    1       43.121624123100      10.819782610400       7.431658739800
       230    1       45.510649123100       9.016439823800       9.678124150400
       231    2       43.813848894900      10.819782610400       9.810725100400
       232    2       46.202873894900       9.016432610400       7.299074899600
       233    1       38.343574123100      14.426482610400       7.431658739800
       234    1       40.732599123100      12.623139823800       9.678124150400
       235    2       39.035798894900      14.426482610400       9.810725100400
       236    2       41.424823894900      12.623132610400       7.299074899600
       237    1       43.121624123100      14.426482610400       7.431658739800
       238    1       45.510649123100      12.623139823800       9.678124150400
       239    2       43.813848894900      14.426482610400       9.810725100400
       240    2       46.202873894900      12.623132610400       7.299074899600
       241    1       47.899674123100      10.819782610400       7.431658739800
       242    1       50.288699123100       9.016439823800       9.678124150400
       243    2       48.591898894900      10.819782610400       9.810725100400
       244    2       50.980923894900       9.016432610400       7.299074899600
       245    1       52.677724123100      10.819782610400       7.431658739800
       246    1       55.066749123100       9.016439823800       9.678124150400
       247    2       53.369948894900      10.819782610400       9.810725100400
       248    2       55.758973894900       9.016432610400       7.299074899600
       249    1       47.899674123100      14.426482610400       7.431658739800
       250    1       50.288699123100      12.623139823800       9.678124150400
       251    2       48.591898894900      14.426482610400       9.810725100400
       252    2       50.980923894900      12.623132610400       7.299074899600
       253    1       52.677724123100      14.426482610400       7.431658739800
       254    1       55.066749123100      12.623139823800       9.678124150400
       255    2       53.369948894900      14.426482610400       9.810725100400
       256    2       55.758973894900      12.623132610400       7.299074899600
       257    1       57.455774123100      10.819782610400       7.431658739800
       258    1       59.844799123100       9.016439823800       9.678124150400
       259    2       58.147998894900      10.819782610400       9.810725100400
       260    2       60.537023894900       9.016432610400       7.299074899600
       261    1       62.233824123100      10.819782610400       7.431658739800
       262    1       64.622849123100       9.016439823800       9.678124150400
       263    2       62.926048894900      10.819782610400       9.810725100400
       264    2       65.315073894900       9.016432610400       7.299074899600
       265    1       57.455774123100      14.426482610400       7.431658739800
       266    1       59.844799123100      12.623139823800       9.678124150400
       267    2       58.147998894900      14.426482610400       9.810725100400
       268    2       60.537023894900      12.623132610400       7.299074899600
       269    1       62.233824123100      14.426482610400       7.431658739800
       270    1       64.622849123100      12.623139823800       9.678124150400
       271    2       62.926048894900      14.426482610400       9.810725100400
       272    2       65.315073894900      12.623132610400       7.299074899600
       273    1       67.011874123100      10.819782610400       7.431658739800
       274    1       69.400899123100       9.016439823800       9.678124150400
       275    2       67.704098894900      10.819782610400       9.810725100400
       276    2       70.093123894900       9.016432610400       7.299074899600
       277    1       71.789924123100      10.819782610400       7.431658739800
       278    1       74.178949123100       9.016439823800       9.678124150400
       279    2       72.482148894900      10.819782610400       9.810725100400
       280    2       74.871173894900       9.016432610400       7.299074899600
       281    1       67.011874123100      14.426482610400       7.431658739800
       282    1       69.400899123100      12.623139823800       9.678124150400
       283    2       67.704098894900      14.426482610400       9.810725100400
       284    2       70.093123894900      12.623132610400       7.299074899600
       285    1       71.789924123100      14.426482610400       7.431658739800
       286    1       74.178949123100      12.623139823800       9.678124150400
       287    2       72.482148894900      14.426482610400       9.810725100400
       288    2       74.871173894900      12.623132610400       7.299074899600
       289    1       76.567974123100      10.819782610400       7.431658739800
       290    1       78.956999123100       9.016439823800       9.678124150400
       291    2       77.260198894900      10.819782610400       9.810725100400
       292    2       79.649223894900       9.016432610400       7.299074899600
       293    1       81.346024123100      10.819782610400       7.431658739800
       294    1       83.735049123100       9.016439823800       9.678124150400
       295    2       82.038248894900      10.819782610400       9.810725100400
       296    2       84.427273894900       9.016432610400       7.299074899600
       297    1       76.567974123100      14.426482610400       7.431658739800
       298    1       78.956999123100      12.623139823800       9.678124150400
       299    2       77.260198894900      14.426482610400       9.810725100400
       300    2       79.649223894900      12.623132610400       7.299074899600
       301    1       81.346024123100      14.426482610400       7.431658739800
       302    1       83.735049123100      12.623139823800       9.678124150400
       303    2       82.038248894900      14.426482610400       9.810725100400
       304    2       84.427273894900      12.623132610400       7.299074899600
       305    1       86.124074123100      10.819782610400       7.431658739800
       306    1       88.513099123100       9.016439823800       9.678124150400
       307    2       86.816298894900      10.819782610400       9.810725100400
       308    2       89.205323894900       9.016432610400       7.299074899600
       309    1       90.902124123100      10.819782610400       7.431658739800
       310    1       93.291149123100       9.016439823800       9.678124150400
       311    2       91.594348894900      10.819782610400       9.810725100400
       312    2       93.983373894900       9.016432610400       7.299074899600
       313    1       86.124074123100      14.426482610400       7.431658739800
       314    1       88.513099123100      12.623139823800       9.678124150400
       315    2       86.816298894900      14.426482610400       9.810725100400
       316    2       89.205323894900      12.623132610400       7.299074899600
       317    1       90.902124123100      14.426482610400       7.431658739800
       318    1       93.291149123100      12.623139823800       9.678124150400
       319    2       91.594348894900      14.426482610400       9.810725100400
       320    2       93.983373894900      12.623132610400       7.299074899600
       321    1        0.119174123100      18.033182610400       7.431658739800
       322    1        2.508199123100      16.229839823800       9.678124150400
       323    2        0.811398894900      18.033182610400       9.810725100400
       324    2        3.200423894900      16.229832610400       7.299074899600
       325    1        4.897224123100      18.033182610400       7.431658739800
       326    1        7.286249123100      16.229839823800       9.678124150400
       327    2        5.589448894900      18.033182610400       9.810725100400
       328    2        7.978473894900      16.229832610400       7.299074899600
       329    1        0.119174123100      21.639882610400       7.431658739800
       330    1        2.508199123100      19.836539823800       9.678124150400
       331    2        0.811398894900      21.639882610400       9.810725100400
       332    2        3.200423894900      19.836532610400       7.299074899600
       333    1        4.897224123100      21.639882610400       7.431658739800
       334    1        7.286249123100      19.836539823800       9.678124150400
       335    2        5.589448894900      21.639882610400       9.810725100400
       336    2        7.978473894900      19.836532610400       7.299074899600
       337    1        9.675274123100      18.033182610400       7.431658739800
       338    1       12.064299123100      16.229839823800       9.678124150400
       339    2       10.367498894900      18.033182610400       9.810725100400
       340    2       12.756523894900      16.229832610400       7.299074899600
       341    1       14.453324123100      18.033182610400       7.431658739800
       342    1       16.842349123100      16.229839823800       9.678124150400
       343    2       15.145548894900      18.033182610400       9.810725100400
       344    2       17.534573894900      16.229832610400       7.299074899600
       345    1        9.675274123100      21.639882610400       7.431658739800
       346    1       12.064299123100      19.836539823800       9.678124150400
       347    2       10.367498894900      21.639882610400       9.810725100400
       348    2       12.756523894900      19.836532610400       7.299074899600
       349    1       14.453324123100      21.639882610400       7.431658739800
       350    1       16.842349123100      19.836539823800       9.678124150400
       351    2       15.145548894900      21.639882610400       9.810725100400
       352    2       17.534573894900      19.836532610400       7.299074899600
       353    1       19.231374123100      18.033182610400       7.431658739800
       354    1       21.620399123100      16.229839823800       9.678124150400
       355    2       19.923598894900      18.033182610400       9.810725100400
       356    2       22.312623894900      16.229832610400       7.299074899600
       357    1       24.009424123100      18.033182610400       7.431658739800
       358    1       26.398449123100      16.229839823800       9.678124150400
       359    2       24.701648894900      18.033182610400       9.810725100400
       360    2       27.090673894900      16.229832610400       7.299074899600
       361    1       19.231374123100      21.639882610400       7.431658739800
       362    1       21.620399123100      19.836539823800       9.678124150400
       363    2       19.923598894900      21.639882610400       9.810725100400
       364    2       22.312623894900      19.836532610400       7.299074899600
       365    1       24.009424123100      21.639882610400       7.431658739800
       366    1       26.398449123100      19.836539823800       9.678124150400
       367    2       24.701648894900      21.639882610400       9.810725100400
       368    2       27.090673894900      19.836532610400       7.299074899600
       369    1       28.787474123100      18.033182610400       7.431658739800
       370    1       31.176499123100      16.229839823800       9.678124150400