 # Sn8 O8
  
        2400  atoms
           2  atom types
 
      0.000000000000     100.495000000000  xlo xhi
      0.000000000000     100.185000000000  ylo yhi
      0.000000000000      32.150000000000  zlo zhi
 
Masses
 
            1   118.71000000            # Sn
            2   15.99900000             # O
 
Atoms # atomic
 
         1    1        0.199914703500       0.000000000000      17.260177600000
         2    2        1.059599181000       1.669750000000      16.211798250000
         3    1        2.712289703500       1.669750000000      14.889822400000
         4    2        3.571974181000       0.000000000000      15.938201750000
         5    1        5.224664703500       0.000000000000      17.260177600000
         6    2        6.084349181000       1.669750000000      16.211798250000
         7    1        7.737039703500       1.669750000000      14.889822400000
         8    2        8.596724181000       0.000000000000      15.938201750000
         9    1        0.199914703500       3.339500000000      17.260177600000
        10    2        1.059599181000       5.009250000000      16.211798250000
        11    1        2.712289703500       5.009250000000      14.889822400000
        12    2        3.571974181000       3.339500000000      15.938201750000
        13    1        5.224664703500       3.339500000000      17.260177600000
        14    2        6.084349181000       5.009250000000      16.211798250000
        15    1        7.737039703500       5.009250000000      14.889822400000
        16    2        8.596724181000       3.339500000000      15.938201750000
        17    1       10.249414703500       0.000000000000      17.260177600000
        18    2       11.109099181000       1.669750000000      16.211798250000
        19    1       12.761789703500       1.669750000000      14.889822400000
        20    2       13.621474181000       0.000000000000      15.938201750000
        21    1       15.274164703500       0.000000000000      17.260177600000
        22    2       16.133849181000       1.669750000000      16.211798250000
        23    1       17.786539703500       1.669750000000      14.889822400000
        24    2       18.646224181000       0.000000000000      15.938201750000
        25    1       10.249414703500       3.339500000000      17.260177600000
        26    2       11.109099181000       5.009250000000      16.211798250000
        27    1       12.761789703500       5.009250000000      14.889822400000
        28    2       13.621474181000       3.339500000000      15.938201750000
        29    1       15.274164703500       3.339500000000      17.260177600000
        30    2       16.133849181000       5.009250000000      16.211798250000
        31    1       17.786539703500       5.009250000000      14.889822400000
        32    2       18.646224181000       3.339500000000      15.938201750000
        33    1       20.298914703500       0.000000000000      17.260177600000
        34    2       21.158599181000       1.669750000000      16.211798250000
        35    1       22.811289703500       1.669750000000      14.889822400000
        36    2       23.670974181000       0.000000000000      15.938201750000
        37    1       25.323664703500       0.000000000000      17.260177600000
        38    2       26.183349181000       1.669750000000      16.211798250000
        39    1       27.836039703500       1.669750000000      14.889822400000
        40    2       28.695724181000       0.000000000000      15.938201750000
        41    1       20.298914703500       3.339500000000      17.260177600000
        42    2       21.158599181000       5.009250000000      16.211798250000
        43    1       22.811289703500       5.009250000000      14.889822400000
        44    2       23.670974181000       3.339500000000      15.938201750000
        45    1       25.323664703500       3.339500000000      17.260177600000
        46    2       26.183349181000       5.009250000000      16.211798250000
        47    1       27.836039703500       5.009250000000      14.889822400000
        48    2       28.695724181000       3.339500000000      15.938201750000
        49    1       30.348414703500       0.000000000000      17.260177600000
        50    2       31.208099181000       1.669750000000      16.211798250000
        51    1       32.860789703500       1.669750000000      14.889822400000
        52    2       33.720474181000       0.000000000000      15.938201750000
        53    1       35.373164703500       0.000000000000      17.260177600000
        54    2       36.232849181000       1.669750000000      16.211798250000
        55    1       37.885539703500       1.669750000000      14.889822400000
        56    2       38.745224181000       0.000000000000      15.938201750000
        57    1       30.348414703500       3.339500000000      17.260177600000
        58    2       31.208099181000       5.009250000000      16.211798250000
        59    1       32.860789703500       5.009250000000      14.889822400000
        60    2       33.720474181000       3.339500000000      15.938201750000
        61    1       35.373164703500       3.339500000000      17.260177600000
        62    2       36.232849181000       5.009250000000      16.211798250000
        63    1       37.885539703500       5.009250000000      14.889822400000
        64    2       38.745224181000       3.339500000000      15.938201750000
        65    1       40.397914703500       0.000000000000      17.260177600000
        66    2       41.257599181000       1.669750000000      16.211798250000
        67    1       42.910289703500       1.669750000000      14.889822400000
        68    2       43.769974181000       0.000000000000      15.938201750000
        69    1       45.422664703500       0.000000000000      17.260177600000
        70    2       46.282349181000       1.669750000000      16.211798250000
        71    1       47.935039703500       1.669750000000      14.889822400000
        72    2       48.794724181000       0.000000000000      15.938201750000
        73    1       40.397914703500       3.339500000000      17.260177600000
        74    2       41.257599181000       5.009250000000      16.211798250000
        75    1       42.910289703500       5.009250000000      14.889822400000
        76    2       43.769974181000       3.339500000000      15.938201750000
        77    1       45.422664703500       3.339500000000      17.260177600000
        78    2       46.282349181000       5.009250000000      16.211798250000
        79    1       47.935039703500       5.009250000000      14.889822400000
        80    2       48.794724181000       3.339500000000      15.938201750000
        81    1       50.447414703500       0.000000000000      17.260177600000
        82    2       51.307099181000       1.669750000000      16.211798250000
        83    1       52.959789703500       1.669750000000      14.889822400000
        84    2       53.819474181000       0.000000000000      15.938201750000
        85    1       55.472164703500       0.000000000000      17.260177600000
        86    2       56.331849181000       1.669750000000      16.211798250000
        87    1       57.984539703500       1.669750000000      14.889822400000
        88    2       58.844224181000       0.000000000000      15.938201750000
        89    1       50.447414703500       3.339500000000      17.260177600000
        90    2       51.307099181000       5.009250000000      16.211798250000
        91    1       52.959789703500       5.009250000000      14.889822400000
        92    2       53.819474181000       3.339500000000      15.938201750000
        93    1       55.472164703500       3.339500000000      17.260177600000
        94    2       56.331849181000       5.009250000000      16.211798250000
        95    1       57.984539703500       5.009250000000      14.889822400000
        96    2       58.844224181000       3.339500000000      15.938201750000
        97    1       60.496914703500       0.000000000000      17.260177600000
        98    2       61.356599181000       1.669750000000      16.211798250000
        99    1       63.009289703500       1.669750000000      14.889822400000
       100    2       63.868974181000       0.000000000000      15.938201750000
       101    1       65.521664703500       0.000000000000      17.260177600000
       102    2       66.381349181000       1.669750000000      16.211798250000
       103    1       68.034039703500       1.669750000000      14.889822400000
       104    2       68.893724181000       0.000000000000      15.938201750000
       105    1       60.496914703500       3.339500000000      17.260177600000
       106    2       61.356599181000       5.009250000000      16.211798250000
       107    1       63.009289703500       5.009250000000      14.889822400000
       108    2       63.868974181000       3.339500000000      15.938201750000
       109    1       65.521664703500       3.339500000000      17.260177600000
       110    2       66.381349181000       5.009250000000      16.211798250000
       111    1       68.034039703500       5.009250000000      14.889822400000
       112    2       68.893724181000       3.339500000000      15.938201750000
       113    1       70.546414703500       0.000000000000      17.260177600000
       114    2       71.406099181000       1.669750000000      16.211798250000
       115    1       73.058789703500       1.669750000000      14.889822400000
       116    2       73.918474181000       0.000000000000      15.938201750000
       117    1       75.571164703500       0.000000000000      17.260177600000
       118    2       76.430849181000       1.669750000000      16.211798250000
       119    1       78.083539703500       1.669750000000      14.889822400000
       120    2       78.943224181000       0.000000000000      15.938201750000
       121    1       70.546414703500       3.339500000000      17.260177600000
       122    2       71.406099181000       5.009250000000      16.211798250000
       123    1       73.058789703500       5.009250000000      14.889822400000
       124    2       73.918474181000       3.339500000000      15.938201750000
       125    1       75.571164703500       3.339500000000      17.260177600000
       126    2       76.430849181000       5.009250000000      16.211798250000
       127    1       78.083539703500       5.009250000000      14.889822400000
       128    2       78.943224181000       3.339500000000      15.938201750000
       129    1       80.595914703500       0.000000000000      17.260177600000
       130    2       81.455599181000       1.669750000000      16.211798250000
       131    1       83.108289703500       1.669750000000      14.889822400000
       132    2       83.967974181000       0.000000000000      15.938201750000
       133    1       85.620664703500       0.000000000000      17.260177600000
       134    2       86.480349181000       1.669750000000      16.211798250000
       135    1       88.133039703500       1.669750000000      14.889822400000
       136    2       88.992724181000       0.000000000000      15.938201750000
       137    1       80.595914703500       3.339500000000      17.260177600000
       138    2       81.455599181000       5.009250000000      16.211798250000
       139    1       83.108289703500       5.009250000000      14.889822400000
       140    2       83.967974181000       3.339500000000      15.938201750000
       141    1       85.620664703500       3.339500000000      17.260177600000
       142    2       86.480349181000       5.009250000000      16.211798250000
       143    1       88.133039703500       5.009250000000      14.889822400000
       144    2       88.992724181000       3.339500000000      15.938201750000
       145    1       90.645414703500       0.000000000000      17.260177600000
       146    2       91.505099181000       1.669750000000      16.211798250000
       147    1       93.157789703500       1.669750000000      14.889822400000
       148    2       94.017474181000       0.000000000000      15.938201750000
       149    1       95.670164703500       0.000000000000      17.260177600000
       150    2       96.529849181000       1.669750000000      16.211798250000
       151    1       98.182539703500       1.669750000000      14.889822400000
       152    2       99.042224181000       0.000000000000      15.938201750000
       153    1       90.645414703500       3.339500000000      17.260177600000
       154    2       91.505099181000       5.009250000000      16.211798250000
       155    1       93.157789703500       5.009250000000      14.889822400000
       156    2       94.017474181000       3.339500000000      15.938201750000
       157    1       95.670164703500       3.339500000000      17.260177600000
       158    2       96.529849181000       5.009250000000      16.211798250000
       159    1       98.182539703500       5.009250000000      14.889822400000
       160    2       99.042224181000       3.339500000000      15.938201750000
       161    1        0.199914703500       6.679000000000      17.260177600000
       162    2        1.059599181000       8.348750000000      16.211798250000
       163    1        2.712289703500       8.348750000000      14.889822400000
       164    2        3.571974181000       6.679000000000      15.938201750000
       165    1        5.224664703500       6.679000000000      17.260177600000
       166    2        6.084349181000       8.348750000000      16.211798250000
       167    1        7.737039703500       8.348750000000      14.889822400000
       168    2        8.596724181000       6.679000000000      15.938201750000
       169    1        0.199914703500      10.018500000000      17.260177600000
       170    2        1.059599181000      11.688250000000      16.211798250000
       171    1        2.712289703500      11.688250000000      14.889822400000
       172    2        3.571974181000      10.018500000000      15.938201750000
       173    1        5.224664703500      10.018500000000      17.260177600000
       174    2        6.084349181000      11.688250000000      16.211798250000
       175    1        7.737039703500      11.688250000000      14.889822400000
       176    2        8.596724181000      10.018500000000      15.938201750000
       177    1       10.249414703500       6.679000000000      17.260177600000
       178    2       11.109099181000       8.348750000000      16.211798250000
       179    1       12.761789703500       8.348750000000      14.889822400000
       180    2       13.621474181000       6.679000000000      15.938201750000
       181    1       15.274164703500       6.679000000000      17.260177600000
       182    2       16.133849181000       8.348750000000      16.211798250000
       183    1       17.786539703500       8.348750000000      14.889822400000
       184    2       18.646224181000       6.679000000000      15.938201750000
       185    1       10.249414703500      10.018500000000      17.260177600000
       186    2       11.109099181000      11.688250000000      16.211798250000
       187    1       12.761789703500      11.688250000000      14.889822400000
       188    2       13.621474181000      10.018500000000      15.938201750000
       189    1       15.274164703500      10.018500000000      17.260177600000
       190    2       16.133849181000      11.688250000000      16.211798250000
       191    1       17.786539703500      11.688250000000      14.889822400000
       192    2       18.646224181000      10.018500000000      15.938201750000
       193    1       20.298914703500       6.679000000000      17.260177600000
       194    2       21.158599181000       8.348750000000      16.211798250000
       195    1       22.811289703500       8.348750000000      14.889822400000
       196    2       23.670974181000       6.679000000000      15.938201750000
       197    1       25.323664703500       6.679000000000      17.260177600000
       198    2       26.183349181000       8.348750000000      16.211798250000
       199    1       27.836039703500       8.348750000000      14.889822400000
       200    2       28.695724181000       6.679000000000      15.938201750000
       201    1       20.298914703500      10.018500000000      17.260177600000
       202    2       21.158599181000      11.688250000000      16.211798250000
       203    1       22.811289703500      11.688250000000      14.889822400000
       204    2       23.670974181000      10.018500000000      15.938201750000
       205    1       25.323664703500      10.018500000000      17.260177600000
       206    2       26.183349181000      11.688250000000      16.211798250000
       207    1       27.836039703500      11.688250000000      14.889822400000
       208    2       28.695724181000      10.018500000000      15.938201750000
       209    1       30.348414703500       6.679000000000      17.260177600000
       210    2       31.208099181000       8.348750000000      16.211798250000
       211    1       32.860789703500       8.348750000000      14.889822400000
       212    2       33.720474181000       6.679000000000      15.938201750000
       213    1       35.373164703500       6.679000000000      17.260177600000
       214    2       36.232849181000       8.348750000000      16.211798250000
       215    1       37.885539703500       8.348750000000      14.889822400000
       216    2       38.745224181000       6.679000000000      15.938201750000
       217    1       30.348414703500      10.018500000000      17.260177600000
       218    2       31.208099181000      11.688250000000      16.211798250000
       219    1       32.860789703500      11.688250000000      14.889822400000
       220    2       33.720474181000      10.018500000000      15.938201750000
       221    1       35.373164703500      10.018500000000      17.260177600000
       222    2       36.232849181000      11.688250000000      16.211798250000
       223    1       37.885539703500      11.688250000000      14.889822400000
       224    2       38.745224181000      10.018500000000      15.938201750000
       225    1       40.397914703500       6.679000000000      17.260177600000
       226    2       41.257599181000       8.348750000000      16.211798250000
       227    1       42.910289703500       8.348750000000      14.889822400000
       228    2       43.769974181000       6.679000000000      15.938201750000
       229    1       45.422664703500       6.679000000000      17.260177600000
       230    2       46.282349181000       8.348750000000      16.211798250000
       231    1       47.935039703500       8.348750000000      14.889822400000
       232    2       48.794724181000       6.679000000000      15.938201750000
       233    1       40.397914703500      10.018500000000      17.260177600000
       234    2       41.257599181000      11.688250000000      16.211798250000
       235    1       42.910289703500      11.688250000000      14.889822400000
       236    2       43.769974181000      10.018500000000      15.938201750000
       237    1       45.422664703500      10.018500000000      17.260177600000
       238    2       46.282349181000      11.688250000000      16.211798250000
       239    1       47.935039703500      11.688250000000      14.889822400000
       240    2       48.794724181000      10.018500000000      15.938201750000
       241    1       50.447414703500       6.679000000000      17.260177600000
       242    2       51.307099181000       8.348750000000      16.211798250000
       243    1       52.959789703500       8.348750000000      14.889822400000
       244    2       53.819474181000       6.679000000000      15.938201750000
       245    1       55.472164703500       6.679000000000      17.260177600000
       246    2       56.331849181000       8.348750000000      16.211798250000
       247    1       57.984539703500       8.348750000000      14.889822400000
       248    2       58.844224181000       6.679000000000      15.938201750000
       249    1       50.447414703500      10.018500000000      17.260177600000
       250    2       51.307099181000      11.688250000000      16.211798250000
       251    1       52.959789703500      11.688250000000      14.889822400000
       252    2       53.819474181000      10.018500000000      15.938201750000
       253    1       55.472164703500      10.018500000000      17.260177600000
       254    2       56.331849181000      11.688250000000      16.211798250000
       255    1       57.984539703500      11.688250000000      14.889822400000
       256    2       58.844224181000      10.018500000000      15.938201750000
       257    1       60.496914703500       6.679000000000      17.260177600000
       258    2       61.356599181000       8.348750000000      16.211798250000
       259    1       63.009289703500       8.348750000000      14.889822400000
       260    2       63.868974181000       6.679000000000      15.938201750000
       261    1       65.521664703500       6.679000000000      17.260177600000
       262    2       66.381349181000       8.348750000000      16.211798250000
       263    1       68.034039703500       8.348750000000      14.889822400000
       264    2       68.893724181000       6.679000000000      15.938201750000
       265    1       60.496914703500      10.018500000000      17.260177600000
       266    2       61.356599181000      11.688250000000      16.211798250000
       267    1       63.009289703500      11.688250000000      14.889822400000
       268    2       63.868974181000      10.018500000000      15.938201750000
       269    1       65.521664703500      10.018500000000      17.260177600000
       270    2       66.381349181000      11.688250000000      16.211798250000
       271    1       68.034039703500      11.688250000000      14.889822400000
       272    2       68.893724181000      10.018500000000      15.938201750000
       273    1       70.546414703500       6.679000000000      17.260177600000
       274    2       71.406099181000       8.348750000000      16.211798250000
       275    1       73.058789703500       8.348750000000      14.889822400000
       276    2       73.918474181000       6.679000000000      15.938201750000
       277    1       75.571164703500       6.679000000000      17.260177600000
       278    2       76.430849181000       8.348750000000      16.211798250000
       279    1       78.083539703500       8.348750000000      14.889822400000
       280    2       78.943224181000       6.679000000000      15.938201750000
       281    1       70.546414703500      10.018500000000      17.260177600000
       282    2       71.406099181000      11.688250000000      16.211798250000
       283    1       73.058789703500      11.688250000000      14.889822400000
       284    2       73.918474181000      10.018500000000      15.938201750000
       285    1       75.571164703500      10.018500000000      17.260177600000
       286    2       76.430849181000      11.688250000000      16.211798250000
       287    1       78.083539703500      11.688250000000      14.889822400000
       288    2       78.943224181000      10.018500000000      15.938201750000
       289    1       80.595914703500       6.679000000000      17.260177600000
       290    2       81.455599181000       8.348750000000      16.211798250000
       291    1       83.108289703500       8.348750000000      14.889822400000
       292    2       83.967974181000       6.679000000000      15.938201750000
       293    1       85.620664703500       6.679000000000      17.260177600000
       294    2       86.480349181000       8.348750000000      16.211798250000
       295    1       88.133039703500       8.348750000000      14.889822400000
       296    2       88.992724181000       6.679000000000      15.938201750000
       297    1       80.595914703500      10.018500000000      17.260177600000
       298    2       81.455599181000      11.688250000000      16.211798250000
       299    1       83.108289703500      11.688250000000      14.889822400000
       300    2       83.967974181000      10.018500000000      15.938201750000
       301    1       85.620664703500      10.018500000000      17.260177600000
       302    2       86.480349181000      11.688250000000      16.211798250000
       303    1       88.133039703500      11.688250000000      14.889822400000
       304    2       88.992724181000      10.018500000000      15.938201750000
       305    1       90.645414703500       6.679000000000      17.260177600000
       306    2       91.505099181000       8.348750000000      16.211798250000
       307    1       93.157789703500       8.348750000000      14.889822400000
       308    2       94.017474181000       6.679000000000      15.938201750000
       309    1       95.670164703500       6.679000000000      17.260177600000
       310    2       96.529849181000       8.348750000000      16.211798250000
       311    1       98.182539703500       8.348750000000      14.889822400000
       312    2       99.042224181000       6.679000000000      15.938201750000
       313    1       90.645414703500      10.018500000000      17.260177600000
       314    2       91.505099181000      11.688250000000      16.211798250000
       315    1       93.157789703500      11.688250000000      14.889822400000
       316    2       94.017474181000      10.018500000000      15.938201750000
       317    1       95.670164703500      10.018500000000      17.260177600000
       318    2       96.529849181000      11.688250000000      16.211798250000
       319    1       98.182539703500      11.688250000000      14.889822400000
       320    2       99.042224181000      10.018500000000      15.938201750000
       321    1        0.199914703500      13.358000000000      17.260177600000
       322    2        1.059599181000      15.027750000000      16.211798250000
       323    1        2.712289703500      15.027750000000      14.889822400000
       324    2        3.571974181000      13.358000000000      15.938201750000
       325    1        5.224664703500      13.358000000000      17.260177600000
       326    2        6.084349181000      15.027750000000      16.211798250000
       327    1        7.737039703500      15.027750000000      14.889822400000
       328    2        8.596724181000      13.358000000000      15.938201750000
       329    1        0.199914703500      16.697500000000      17.260177600000
       330    2        1.059599181000      18.367250000000      16.211798250000
       331    1        2.712289703500      18.367250000000      14.889822400000
       332    2        3.571974181000      16.697500000000      15.938201750000
       333    1        5.224664703500      16.697500000000      17.260177600000
       334    2        6.084349181000      18.367250000000      16.211798250000
       335    1        7.737039703500      18.367250000000      14.889822400000
       336    2        8.596724181000      16.697500000000      15.938201750000
       337    1       10.249414703500      13.358000000000      17.260177600000
       338    2       11.109099181000      15.027750000000      16.211798250000
       339    1       12.761789703500      15.027750000000      14.889822400000
       340    2       13.621474181000      13.358000000000      15.938201750000
       341    1       15.274164703500      13.358000000000      17.260177600000
       342    2       16.133849181000      15.027750000000      16.211798250000
       343    1       17.786539703500      15.027750000000      14.889822400000
       344    2       18.646224181000      13.358000000000      15.938201750000
       345    1       10.249414703500      16.697500000000      17.260177600000
       346    2       11.109099181000      18.367250000000      16.211798250000
       347    1       12.761789703500      18.367250000000      14.889822400000
       348    2       13.621474181000      16.697500000000      15.938201750000
       349    1       15.274164703500      16.697500000000      17.260177600000
       350    2       16.133849181000      18.367250000000      16.211798250000
       351    1       17.786539703500      18.367250000000      14.889822400000
       352    2       18.646224181000      16.697500000000      15.938201750000
       353    1       20.298914703500      13.358000000000      17.260177600000
       354    2       21.158599181000      15.027750000000      16.211798250000
       355    1       22.811289703500      15.027750000000      14.889822400000
       356    2       23.670974181000      13.358000000000      15.938201750000
       357    1       25.323664703500      13.358000000000      17.260177600000
       358    2       26.183349181000      15.027750000000      16.211798250000
       359    1       27.836039703500      15.027750000000      14.889822400000
       360    2       28.695724181000      13.358000000000      15.938201750000
       361    1       20.298914703500      16.697500000000      17.260177600000
       362    2       21.158599181000      18.367250000000      16.211798250000
       363    1       22.811289703500      18.367250000000      14.889822400000
       364    2       23.670974181000      16.697500000000      15.938201750000
       365    1       25.323664703500      16.697500000000      17.260177600000
       366    2       26.183349181000      18.367250000000      16.211798250000
       367    1       27.836039703500      18.367250000000      14.889822400000
       368    2       28.695724181000      16.697500000000      15.938201750000
       369    1       30.348414703500      13.358000000000      17.260177600000
       370    2       31.208099181000      15.027750000000      16.211798250000