 # Si16
  
        1456  atoms
           1  atom types
 
      0.000000000000     100.696700000000  xlo xhi
      0.000000000000      93.914100000000  ylo yhi
      0.000000000000      15.200000000000  zlo zhi
 
Masses
 
            1   28.08500000             # Si
 
Atoms # atomic
 
         1    1        3.872950000000       4.472095527900       7.370601600000
         2    1        7.745900000000      11.180245527900       7.370601600000
         3    1        3.872950000000       0.000000000000       7.829398400000
         4    1        0.000000000000       6.708150000000       7.829398400000
         5    1        5.809425000000       3.354075000000       7.829398400000
         6    1        1.936475000000      10.062225000000       7.829398400000
         7    1        1.936475000000       3.354075000000       7.829398400000
         8    1        5.809425000000      10.062225000000       7.829398400000
         9    1        0.000000000000       4.472095527900       7.370601600000
        10    1        3.872950000000      11.180245527900       7.370601600000
        11    1        1.936475000000       1.118020527900       7.370601600000
        12    1        5.809425000000       7.826170527900       7.370601600000
        13    1        0.000000000000       0.000000000000       7.829398400000
        14    1        3.872950000000       6.708150000000       7.829398400000
        15    1        5.809425000000       1.118020527900       7.370601600000
        16    1        1.936475000000       7.826170527900       7.370601600000
        17    1       11.618850000000       4.472095527900       7.370601600000
        18    1       15.491800000000      11.180245527900       7.370601600000
        19    1       11.618850000000       0.000000000000       7.829398400000
        20    1        7.745900000000       6.708150000000       7.829398400000
        21    1       13.555325000000       3.354075000000       7.829398400000
        22    1        9.682375000000      10.062225000000       7.829398400000
        23    1        9.682375000000       3.354075000000       7.829398400000
        24    1       13.555325000000      10.062225000000       7.829398400000
        25    1        7.745900000000       4.472095527900       7.370601600000
        26    1       11.618850000000      11.180245527900       7.370601600000
        27    1        9.682375000000       1.118020527900       7.370601600000
        28    1       13.555325000000       7.826170527900       7.370601600000
        29    1        7.745900000000       0.000000000000       7.829398400000
        30    1       11.618850000000       6.708150000000       7.829398400000
        31    1       13.555325000000       1.118020527900       7.370601600000
        32    1        9.682375000000       7.826170527900       7.370601600000
        33    1       19.364750000000       4.472095527900       7.370601600000
        34    1       23.237700000000      11.180245527900       7.370601600000
        35    1       19.364750000000       0.000000000000       7.829398400000
        36    1       15.491800000000       6.708150000000       7.829398400000
        37    1       21.301225000000       3.354075000000       7.829398400000
        38    1       17.428275000000      10.062225000000       7.829398400000
        39    1       17.428275000000       3.354075000000       7.829398400000
        40    1       21.301225000000      10.062225000000       7.829398400000
        41    1       15.491800000000       4.472095527900       7.370601600000
        42    1       19.364750000000      11.180245527900       7.370601600000
        43    1       17.428275000000       1.118020527900       7.370601600000
        44    1       21.301225000000       7.826170527900       7.370601600000
        45    1       15.491800000000       0.000000000000       7.829398400000
        46    1       19.364750000000       6.708150000000       7.829398400000
        47    1       21.301225000000       1.118020527900       7.370601600000
        48    1       17.428275000000       7.826170527900       7.370601600000
        49    1       27.110650000000       4.472095527900       7.370601600000
        50    1       30.983600000000      11.180245527900       7.370601600000
        51    1       27.110650000000       0.000000000000       7.829398400000
        52    1       23.237700000000       6.708150000000       7.829398400000
        53    1       29.047125000000       3.354075000000       7.829398400000
        54    1       25.174175000000      10.062225000000       7.829398400000
        55    1       25.174175000000       3.354075000000       7.829398400000
        56    1       29.047125000000      10.062225000000       7.829398400000
        57    1       23.237700000000       4.472095527900       7.370601600000
        58    1       27.110650000000      11.180245527900       7.370601600000
        59    1       25.174175000000       1.118020527900       7.370601600000
        60    1       29.047125000000       7.826170527900       7.370601600000
        61    1       23.237700000000       0.000000000000       7.829398400000
        62    1       27.110650000000       6.708150000000       7.829398400000
        63    1       29.047125000000       1.118020527900       7.370601600000
        64    1       25.174175000000       7.826170527900       7.370601600000
        65    1       34.856550000000       4.472095527900       7.370601600000
        66    1       38.729500000000      11.180245527900       7.370601600000
        67    1       34.856550000000       0.000000000000       7.829398400000
        68    1       30.983600000000       6.708150000000       7.829398400000
        69    1       36.793025000000       3.354075000000       7.829398400000
        70    1       32.920075000000      10.062225000000       7.829398400000
        71    1       32.920075000000       3.354075000000       7.829398400000
        72    1       36.793025000000      10.062225000000       7.829398400000
        73    1       30.983600000000       4.472095527900       7.370601600000
        74    1       34.856550000000      11.180245527900       7.370601600000
        75    1       32.920075000000       1.118020527900       7.370601600000
        76    1       36.793025000000       7.826170527900       7.370601600000
        77    1       30.983600000000       0.000000000000       7.829398400000
        78    1       34.856550000000       6.708150000000       7.829398400000
        79    1       36.793025000000       1.118020527900       7.370601600000
        80    1       32.920075000000       7.826170527900       7.370601600000
        81    1       42.602450000000       4.472095527900       7.370601600000
        82    1       46.475400000000      11.180245527900       7.370601600000
        83    1       42.602450000000       0.000000000000       7.829398400000
        84    1       38.729500000000       6.708150000000       7.829398400000
        85    1       44.538925000000       3.354075000000       7.829398400000
        86    1       40.665975000000      10.062225000000       7.829398400000
        87    1       40.665975000000       3.354075000000       7.829398400000
        88    1       44.538925000000      10.062225000000       7.829398400000
        89    1       38.729500000000       4.472095527900       7.370601600000
        90    1       42.602450000000      11.180245527900       7.370601600000
        91    1       40.665975000000       1.118020527900       7.370601600000
        92    1       44.538925000000       7.826170527900       7.370601600000
        93    1       38.729500000000       0.000000000000       7.829398400000
        94    1       42.602450000000       6.708150000000       7.829398400000
        95    1       44.538925000000       1.118020527900       7.370601600000
        96    1       40.665975000000       7.826170527900       7.370601600000
        97    1       50.348350000000       4.472095527900       7.370601600000
        98    1       54.221300000000      11.180245527900       7.370601600000
        99    1       50.348350000000       0.000000000000       7.829398400000
       100    1       46.475400000000       6.708150000000       7.829398400000
       101    1       52.284825000000       3.354075000000       7.829398400000
       102    1       48.411875000000      10.062225000000       7.829398400000
       103    1       48.411875000000       3.354075000000       7.829398400000
       104    1       52.284825000000      10.062225000000       7.829398400000
       105    1       46.475400000000       4.472095527900       7.370601600000
       106    1       50.348350000000      11.180245527900       7.370601600000
       107    1       48.411875000000       1.118020527900       7.370601600000
       108    1       52.284825000000       7.826170527900       7.370601600000
       109    1       46.475400000000       0.000000000000       7.829398400000
       110    1       50.348350000000       6.708150000000       7.829398400000
       111    1       52.284825000000       1.118020527900       7.370601600000
       112    1       48.411875000000       7.826170527900       7.370601600000
       113    1       58.094250000000       4.472095527900       7.370601600000
       114    1       61.967200000000      11.180245527900       7.370601600000
       115    1       58.094250000000       0.000000000000       7.829398400000
       116    1       54.221300000000       6.708150000000       7.829398400000
       117    1       60.030725000000       3.354075000000       7.829398400000
       118    1       56.157775000000      10.062225000000       7.829398400000
       119    1       56.157775000000       3.354075000000       7.829398400000
       120    1       60.030725000000      10.062225000000       7.829398400000
       121    1       54.221300000000       4.472095527900       7.370601600000
       122    1       58.094250000000      11.180245527900       7.370601600000
       123    1       56.157775000000       1.118020527900       7.370601600000
       124    1       60.030725000000       7.826170527900       7.370601600000
       125    1       54.221300000000       0.000000000000       7.829398400000
       126    1       58.094250000000       6.708150000000       7.829398400000
       127    1       60.030725000000       1.118020527900       7.370601600000
       128    1       56.157775000000       7.826170527900       7.370601600000
       129    1       65.840150000000       4.472095527900       7.370601600000
       130    1       69.713100000000      11.180245527900       7.370601600000
       131    1       65.840150000000       0.000000000000       7.829398400000
       132    1       61.967200000000       6.708150000000       7.829398400000
       133    1       67.776625000000       3.354075000000       7.829398400000
       134    1       63.903675000000      10.062225000000       7.829398400000
       135    1       63.903675000000       3.354075000000       7.829398400000
       136    1       67.776625000000      10.062225000000       7.829398400000
       137    1       61.967200000000       4.472095527900       7.370601600000
       138    1       65.840150000000      11.180245527900       7.370601600000
       139    1       63.903675000000       1.118020527900       7.370601600000
       140    1       67.776625000000       7.826170527900       7.370601600000
       141    1       61.967200000000       0.000000000000       7.829398400000
       142    1       65.840150000000       6.708150000000       7.829398400000
       143    1       67.776625000000       1.118020527900       7.370601600000
       144    1       63.903675000000       7.826170527900       7.370601600000
       145    1       73.586050000000       4.472095527900       7.370601600000
       146    1       77.459000000000      11.180245527900       7.370601600000
       147    1       73.586050000000       0.000000000000       7.829398400000
       148    1       69.713100000000       6.708150000000       7.829398400000
       149    1       75.522525000000       3.354075000000       7.829398400000
       150    1       71.649575000000      10.062225000000       7.829398400000
       151    1       71.649575000000       3.354075000000       7.829398400000
       152    1       75.522525000000      10.062225000000       7.829398400000
       153    1       69.713100000000       4.472095527900       7.370601600000
       154    1       73.586050000000      11.180245527900       7.370601600000
       155    1       71.649575000000       1.118020527900       7.370601600000
       156    1       75.522525000000       7.826170527900       7.370601600000
       157    1       69.713100000000       0.000000000000       7.829398400000
       158    1       73.586050000000       6.708150000000       7.829398400000
       159    1       75.522525000000       1.118020527900       7.370601600000
       160    1       71.649575000000       7.826170527900       7.370601600000
       161    1       81.331950000000       4.472095527900       7.370601600000
       162    1       85.204900000000      11.180245527900       7.370601600000
       163    1       81.331950000000       0.000000000000       7.829398400000
       164    1       77.459000000000       6.708150000000       7.829398400000
       165    1       83.268425000000       3.354075000000       7.829398400000
       166    1       79.395475000000      10.062225000000       7.829398400000
       167    1       79.395475000000       3.354075000000       7.829398400000
       168    1       83.268425000000      10.062225000000       7.829398400000
       169    1       77.459000000000       4.472095527900       7.370601600000
       170    1       81.331950000000      11.180245527900       7.370601600000
       171    1       79.395475000000       1.118020527900       7.370601600000
       172    1       83.268425000000       7.826170527900       7.370601600000
       173    1       77.459000000000       0.000000000000       7.829398400000
       174    1       81.331950000000       6.708150000000       7.829398400000
       175    1       83.268425000000       1.118020527900       7.370601600000
       176    1       79.395475000000       7.826170527900       7.370601600000
       177    1       89.077850000000       4.472095527900       7.370601600000
       178    1       92.950800000000      11.180245527900       7.370601600000
       179    1       89.077850000000       0.000000000000       7.829398400000
       180    1       85.204900000000       6.708150000000       7.829398400000
       181    1       91.014325000000       3.354075000000       7.829398400000
       182    1       87.141375000000      10.062225000000       7.829398400000
       183    1       87.141375000000       3.354075000000       7.829398400000
       184    1       91.014325000000      10.062225000000       7.829398400000
       185    1       85.204900000000       4.472095527900       7.370601600000
       186    1       89.077850000000      11.180245527900       7.370601600000
       187    1       87.141375000000       1.118020527900       7.370601600000
       188    1       91.014325000000       7.826170527900       7.370601600000
       189    1       85.204900000000       0.000000000000       7.829398400000
       190    1       89.077850000000       6.708150000000       7.829398400000
       191    1       91.014325000000       1.118020527900       7.370601600000
       192    1       87.141375000000       7.826170527900       7.370601600000
       193    1       96.823750000000       4.472095527900       7.370601600000
       194    1      100.696700000000      11.180245527900       7.370601600000
       195    1       96.823750000000       0.000000000000       7.829398400000
       196    1       92.950800000000       6.708150000000       7.829398400000
       197    1       98.760225000000       3.354075000000       7.829398400000
       198    1       94.887275000000      10.062225000000       7.829398400000
       199    1       94.887275000000       3.354075000000       7.829398400000
       200    1       98.760225000000      10.062225000000       7.829398400000
       201    1       92.950800000000       4.472095527900       7.370601600000
       202    1       96.823750000000      11.180245527900       7.370601600000
       203    1       94.887275000000       1.118020527900       7.370601600000
       204    1       98.760225000000       7.826170527900       7.370601600000
       205    1       92.950800000000       0.000000000000       7.829398400000
       206    1       96.823750000000       6.708150000000       7.829398400000
       207    1       98.760225000000       1.118020527900       7.370601600000
       208    1       94.887275000000       7.826170527900       7.370601600000
       209    1        3.872950000000      17.888395527900       7.370601600000
       210    1        7.745900000000      24.596545527900       7.370601600000
       211    1        3.872950000000      13.416300000000       7.829398400000
       212    1        0.000000000000      20.124450000000       7.829398400000
       213    1        5.809425000000      16.770375000000       7.829398400000
       214    1        1.936475000000      23.478525000000       7.829398400000
       215    1        1.936475000000      16.770375000000       7.829398400000
       216    1        5.809425000000      23.478525000000       7.829398400000
       217    1        0.000000000000      17.888395527900       7.370601600000
       218    1        3.872950000000      24.596545527900       7.370601600000
       219    1        1.936475000000      14.534320527900       7.370601600000
       220    1        5.809425000000      21.242470527900       7.370601600000
       221    1        0.000000000000      13.416300000000       7.829398400000
       222    1        3.872950000000      20.124450000000       7.829398400000
       223    1        5.809425000000      14.534320527900       7.370601600000
       224    1        1.936475000000      21.242470527900       7.370601600000
       225    1       11.618850000000      17.888395527900       7.370601600000
       226    1       15.491800000000      24.596545527900       7.370601600000
       227    1       11.618850000000      13.416300000000       7.829398400000
       228    1        7.745900000000      20.124450000000       7.829398400000
       229    1       13.555325000000      16.770375000000       7.829398400000
       230    1        9.682375000000      23.478525000000       7.829398400000
       231    1        9.682375000000      16.770375000000       7.829398400000
       232    1       13.555325000000      23.478525000000       7.829398400000
       233    1        7.745900000000      17.888395527900       7.370601600000
       234    1       11.618850000000      24.596545527900       7.370601600000
       235    1        9.682375000000      14.534320527900       7.370601600000
       236    1       13.555325000000      21.242470527900       7.370601600000
       237    1        7.745900000000      13.416300000000       7.829398400000
       238    1       11.618850000000      20.124450000000       7.829398400000
       239    1       13.555325000000      14.534320527900       7.370601600000
       240    1        9.682375000000      21.242470527900       7.370601600000
       241    1       19.364750000000      17.888395527900       7.370601600000
       242    1       23.237700000000      24.596545527900       7.370601600000
       243    1       19.364750000000      13.416300000000       7.829398400000
       244    1       15.491800000000      20.124450000000       7.829398400000
       245    1       21.301225000000      16.770375000000       7.829398400000
       246    1       17.428275000000      23.478525000000       7.829398400000
       247    1       17.428275000000      16.770375000000       7.829398400000
       248    1       21.301225000000      23.478525000000       7.829398400000
       249    1       15.491800000000      17.888395527900       7.370601600000
       250    1       19.364750000000      24.596545527900       7.370601600000
       251    1       17.428275000000      14.534320527900       7.370601600000
       252    1       21.301225000000      21.242470527900       7.370601600000
       253    1       15.491800000000      13.416300000000       7.829398400000
       254    1       19.364750000000      20.124450000000       7.829398400000
       255    1       21.301225000000      14.534320527900       7.370601600000
       256    1       17.428275000000      21.242470527900       7.370601600000
       257    1       27.110650000000      17.888395527900       7.370601600000
       258    1       30.983600000000      24.596545527900       7.370601600000
       259    1       27.110650000000      13.416300000000       7.829398400000
       260    1       23.237700000000      20.124450000000       7.829398400000
       261    1       29.047125000000      16.770375000000       7.829398400000
       262    1       25.174175000000      23.478525000000       7.829398400000
       263    1       25.174175000000      16.770375000000       7.829398400000
       264    1       29.047125000000      23.478525000000       7.829398400000
       265    1       23.237700000000      17.888395527900       7.370601600000
       266    1       27.110650000000      24.596545527900       7.370601600000
       267    1       25.174175000000      14.534320527900       7.370601600000
       268    1       29.047125000000      21.242470527900       7.370601600000
       269    1       23.237700000000      13.416300000000       7.829398400000
       270    1       27.110650000000      20.124450000000       7.829398400000
       271    1       29.047125000000      14.534320527900       7.370601600000
       272    1       25.174175000000      21.242470527900       7.370601600000
       273    1       34.856550000000      17.888395527900       7.370601600000
       274    1       38.729500000000      24.596545527900       7.370601600000
       275    1       34.856550000000      13.416300000000       7.829398400000
       276    1       30.983600000000      20.124450000000       7.829398400000
       277    1       36.793025000000      16.770375000000       7.829398400000
       278    1       32.920075000000      23.478525000000       7.829398400000
       279    1       32.920075000000      16.770375000000       7.829398400000
       280    1       36.793025000000      23.478525000000       7.829398400000
       281    1       30.983600000000      17.888395527900       7.370601600000
       282    1       34.856550000000      24.596545527900       7.370601600000
       283    1       32.920075000000      14.534320527900       7.370601600000
       284    1       36.793025000000      21.242470527900       7.370601600000
       285    1       30.983600000000      13.416300000000       7.829398400000
       286    1       34.856550000000      20.124450000000       7.829398400000
       287    1       36.793025000000      14.534320527900       7.370601600000
       288    1       32.920075000000      21.242470527900       7.370601600000
       289    1       42.602450000000      17.888395527900       7.370601600000
       290    1       46.475400000000      24.596545527900       7.370601600000
       291    1       42.602450000000      13.416300000000       7.829398400000
       292    1       38.729500000000      20.124450000000       7.829398400000
       293    1       44.538925000000      16.770375000000       7.829398400000
       294    1       40.665975000000      23.478525000000       7.829398400000
       295    1       40.665975000000      16.770375000000       7.829398400000
       296    1       44.538925000000      23.478525000000       7.829398400000
       297    1       38.729500000000      17.888395527900       7.370601600000
       298    1       42.602450000000      24.596545527900       7.370601600000
       299    1       40.665975000000      14.534320527900       7.370601600000
       300    1       44.538925000000      21.242470527900       7.370601600000
       301    1       38.729500000000      13.416300000000       7.829398400000
       302    1       42.602450000000      20.124450000000       7.829398400000
       303    1       44.538925000000      14.534320527900       7.370601600000
       304    1       40.665975000000      21.242470527900       7.370601600000
       305    1       50.348350000000      17.888395527900       7.370601600000
       306    1       54.221300000000      24.596545527900       7.370601600000
       307    1       50.348350000000      13.416300000000       7.829398400000
       308    1       46.475400000000      20.124450000000       7.829398400000
       309    1       52.284825000000      16.770375000000       7.829398400000
       310    1       48.411875000000      23.478525000000       7.829398400000
       311    1       48.411875000000      16.770375000000       7.829398400000
       312    1       52.284825000000      23.478525000000       7.829398400000
       313    1       46.475400000000      17.888395527900       7.370601600000
       314    1       50.348350000000      24.596545527900       7.370601600000
       315    1       48.411875000000      14.534320527900       7.370601600000
       316    1       52.284825000000      21.242470527900       7.370601600000
       317    1       46.475400000000      13.416300000000       7.829398400000
       318    1       50.348350000000      20.124450000000       7.829398400000
       319    1       52.284825000000      14.534320527900       7.370601600000
       320    1       48.411875000000      21.242470527900       7.370601600000
       321    1       58.094250000000      17.888395527900       7.370601600000
       322    1       61.967200000000      24.596545527900       7.370601600000
       323    1       58.094250000000      13.416300000000       7.829398400000
       324    1       54.221300000000      20.124450000000       7.829398400000
       325    1       60.030725000000      16.770375000000       7.829398400000
       326    1       56.157775000000      23.478525000000       7.829398400000
       327    1       56.157775000000      16.770375000000       7.829398400000
       328    1       60.030725000000      23.478525000000       7.829398400000
       329    1       54.221300000000      17.888395527900       7.370601600000
       330    1       58.094250000000      24.596545527900       7.370601600000
       331    1       56.157775000000      14.534320527900       7.370601600000
       332    1       60.030725000000      21.242470527900       7.370601600000
       333    1       54.221300000000      13.416300000000       7.829398400000
       334    1       58.094250000000      20.124450000000       7.829398400000
       335    1       60.030725000000      14.534320527900       7.370601600000
       336    1       56.157775000000      21.242470527900       7.370601600000
       337    1       65.840150000000      17.888395527900       7.370601600000
       338    1       69.713100000000      24.596545527900       7.370601600000
       339    1       65.840150000000      13.416300000000       7.829398400000
       340    1       61.967200000000      20.124450000000       7.829398400000
       341    1       67.776625000000      16.770375000000       7.829398400000
       342    1       63.903675000000      23.478525000000       7.829398400000
       343    1       63.903675000000      16.770375000000       7.829398400000
       344    1       67.776625000000      23.478525000000       7.829398400000
       345    1       61.967200000000      17.888395527900       7.370601600000
       346    1       65.840150000000      24.596545527900       7.370601600000
       347    1       63.903675000000      14.534320527900       7.370601600000
       348    1       67.776625000000      21.242470527900       7.370601600000
       349    1       61.967200000000      13.416300000000       7.829398400000
       350    1       65.840150000000      20.124450000000       7.829398400000
       351    1       67.776625000000      14.534320527900       7.370601600000
       352    1       63.903675000000      21.242470527900       7.370601600000
       353    1       73.586050000000      17.888395527900       7.370601600000
       354    1       77.459000000000      24.596545527900       7.370601600000
       355    1       73.586050000000      13.416300000000       7.829398400000
       356    1       69.713100000000      20.124450000000       7.829398400000
       357    1       75.522525000000      16.770375000000       7.829398400000
       358    1       71.649575000000      23.478525000000       7.829398400000
       359    1       71.649575000000      16.770375000000       7.829398400000
       360    1       75.522525000000      23.478525000000       7.829398400000
       361    1       69.713100000000      17.888395527900       7.370601600000
       362    1       73.586050000000      24.596545527900       7.370601600000
       363    1       71.649575000000      14.534320527900       7.370601600000
       364    1       75.522525000000      21.242470527900       7.370601600000
       365    1       69.713100000000      13.416300000000       7.829398400000
       366    1       73.586050000000      20.124450000000       7.829398400000
       367    1       75.522525000000      14.534320527900       7.370601600000
       368    1       71.649575000000      21.242470527900       7.370601600000
       369    1       81.331950000000      17.888395527900       7.370601600000
       370    1       85.204900000000      24.596545527900       7.370601600000
       371    1       81.331950000000      13.416300000000       7.829398400000