 # Co8 Te16
  
        2688  atoms
           2  atom types
 
      0.000000000000     101.453800000000  xlo xhi
      0.000000000000     100.412800000000  ylo yhi
      0.000000000000      17.845600000000  zlo zhi
 
Masses
 
            1   58.93319500             # Co
            2   127.60000000            # Te
 
Atoms # atomic
 
         1    1        0.000000000000       0.000000000000       8.922800000000
         2    1        3.623350000000       6.275800000000       8.922800000000
         3    2        0.000000000000       4.183862482800      10.379411408800
         4    2        3.623350000000      10.459662482800      10.379411408800
         5    2        5.435025000000       5.229837517200       7.466188591200
         6    2        1.811675000000      11.505637517200       7.466188591200
         7    1        5.435025000000       3.137900000000       8.922800000000
         8    1        1.811675000000       9.413700000000       8.922800000000
         9    2        1.811675000000       5.229837517200       7.466188591200
        10    2        5.435025000000      11.505637517200       7.466188591200
        11    2        0.000000000000       2.091937517200       7.466188591200
        12    2        3.623350000000       8.367737517200       7.466188591200
        13    1        1.811675000000       3.137900000000       8.922800000000
        14    1        5.435025000000       9.413700000000       8.922800000000
        15    2        1.811675000000       1.045962482800      10.379411408800
        16    2        5.435025000000       7.321762482800      10.379411408800
        17    1        3.623350000000       0.000000000000       8.922800000000
        18    1        0.000000000000       6.275800000000       8.922800000000
        19    2        3.623350000000       4.183862482800      10.379411408800
        20    2        0.000000000000      10.459662482800      10.379411408800
        21    2        3.623350000000       2.091937517200       7.466188591200
        22    2        0.000000000000       8.367737517200       7.466188591200
        23    2        5.435025000000       1.045962482800      10.379411408800
        24    2        1.811675000000       7.321762482800      10.379411408800
        25    1        7.246700000000       0.000000000000       8.922800000000
        26    1       10.870050000000       6.275800000000       8.922800000000
        27    2        7.246700000000       4.183862482800      10.379411408800
        28    2       10.870050000000      10.459662482800      10.379411408800
        29    2       12.681725000000       5.229837517200       7.466188591200
        30    2        9.058375000000      11.505637517200       7.466188591200
        31    1       12.681725000000       3.137900000000       8.922800000000
        32    1        9.058375000000       9.413700000000       8.922800000000
        33    2        9.058375000000       5.229837517200       7.466188591200
        34    2       12.681725000000      11.505637517200       7.466188591200
        35    2        7.246700000000       2.091937517200       7.466188591200
        36    2       10.870050000000       8.367737517200       7.466188591200
        37    1        9.058375000000       3.137900000000       8.922800000000
        38    1       12.681725000000       9.413700000000       8.922800000000
        39    2        9.058375000000       1.045962482800      10.379411408800
        40    2       12.681725000000       7.321762482800      10.379411408800
        41    1       10.870050000000       0.000000000000       8.922800000000
        42    1        7.246700000000       6.275800000000       8.922800000000
        43    2       10.870050000000       4.183862482800      10.379411408800
        44    2        7.246700000000      10.459662482800      10.379411408800
        45    2       10.870050000000       2.091937517200       7.466188591200
        46    2        7.246700000000       8.367737517200       7.466188591200
        47    2       12.681725000000       1.045962482800      10.379411408800
        48    2        9.058375000000       7.321762482800      10.379411408800
        49    1       14.493400000000       0.000000000000       8.922800000000
        50    1       18.116750000000       6.275800000000       8.922800000000
        51    2       14.493400000000       4.183862482800      10.379411408800
        52    2       18.116750000000      10.459662482800      10.379411408800
        53    2       19.928425000000       5.229837517200       7.466188591200
        54    2       16.305075000000      11.505637517200       7.466188591200
        55    1       19.928425000000       3.137900000000       8.922800000000
        56    1       16.305075000000       9.413700000000       8.922800000000
        57    2       16.305075000000       5.229837517200       7.466188591200
        58    2       19.928425000000      11.505637517200       7.466188591200
        59    2       14.493400000000       2.091937517200       7.466188591200
        60    2       18.116750000000       8.367737517200       7.466188591200
        61    1       16.305075000000       3.137900000000       8.922800000000
        62    1       19.928425000000       9.413700000000       8.922800000000
        63    2       16.305075000000       1.045962482800      10.379411408800
        64    2       19.928425000000       7.321762482800      10.379411408800
        65    1       18.116750000000       0.000000000000       8.922800000000
        66    1       14.493400000000       6.275800000000       8.922800000000
        67    2       18.116750000000       4.183862482800      10.379411408800
        68    2       14.493400000000      10.459662482800      10.379411408800
        69    2       18.116750000000       2.091937517200       7.466188591200
        70    2       14.493400000000       8.367737517200       7.466188591200
        71    2       19.928425000000       1.045962482800      10.379411408800
        72    2       16.305075000000       7.321762482800      10.379411408800
        73    1       21.740100000000       0.000000000000       8.922800000000
        74    1       25.363450000000       6.275800000000       8.922800000000
        75    2       21.740100000000       4.183862482800      10.379411408800
        76    2       25.363450000000      10.459662482800      10.379411408800
        77    2       27.175125000000       5.229837517200       7.466188591200
        78    2       23.551775000000      11.505637517200       7.466188591200
        79    1       27.175125000000       3.137900000000       8.922800000000
        80    1       23.551775000000       9.413700000000       8.922800000000
        81    2       23.551775000000       5.229837517200       7.466188591200
        82    2       27.175125000000      11.505637517200       7.466188591200
        83    2       21.740100000000       2.091937517200       7.466188591200
        84    2       25.363450000000       8.367737517200       7.466188591200
        85    1       23.551775000000       3.137900000000       8.922800000000
        86    1       27.175125000000       9.413700000000       8.922800000000
        87    2       23.551775000000       1.045962482800      10.379411408800
        88    2       27.175125000000       7.321762482800      10.379411408800
        89    1       25.363450000000       0.000000000000       8.922800000000
        90    1       21.740100000000       6.275800000000       8.922800000000
        91    2       25.363450000000       4.183862482800      10.379411408800
        92    2       21.740100000000      10.459662482800      10.379411408800
        93    2       25.363450000000       2.091937517200       7.466188591200
        94    2       21.740100000000       8.367737517200       7.466188591200
        95    2       27.175125000000       1.045962482800      10.379411408800
        96    2       23.551775000000       7.321762482800      10.379411408800
        97    1       28.986800000000       0.000000000000       8.922800000000
        98    1       32.610150000000       6.275800000000       8.922800000000
        99    2       28.986800000000       4.183862482800      10.379411408800
       100    2       32.610150000000      10.459662482800      10.379411408800
       101    2       34.421825000000       5.229837517200       7.466188591200
       102    2       30.798475000000      11.505637517200       7.466188591200
       103    1       34.421825000000       3.137900000000       8.922800000000
       104    1       30.798475000000       9.413700000000       8.922800000000
       105    2       30.798475000000       5.229837517200       7.466188591200
       106    2       34.421825000000      11.505637517200       7.466188591200
       107    2       28.986800000000       2.091937517200       7.466188591200
       108    2       32.610150000000       8.367737517200       7.466188591200
       109    1       30.798475000000       3.137900000000       8.922800000000
       110    1       34.421825000000       9.413700000000       8.922800000000
       111    2       30.798475000000       1.045962482800      10.379411408800
       112    2       34.421825000000       7.321762482800      10.379411408800
       113    1       32.610150000000       0.000000000000       8.922800000000
       114    1       28.986800000000       6.275800000000       8.922800000000
       115    2       32.610150000000       4.183862482800      10.379411408800
       116    2       28.986800000000      10.459662482800      10.379411408800
       117    2       32.610150000000       2.091937517200       7.466188591200
       118    2       28.986800000000       8.367737517200       7.466188591200
       119    2       34.421825000000       1.045962482800      10.379411408800
       120    2       30.798475000000       7.321762482800      10.379411408800
       121    1       36.233500000000       0.000000000000       8.922800000000
       122    1       39.856850000000       6.275800000000       8.922800000000
       123    2       36.233500000000       4.183862482800      10.379411408800
       124    2       39.856850000000      10.459662482800      10.379411408800
       125    2       41.668525000000       5.229837517200       7.466188591200
       126    2       38.045175000000      11.505637517200       7.466188591200
       127    1       41.668525000000       3.137900000000       8.922800000000
       128    1       38.045175000000       9.413700000000       8.922800000000
       129    2       38.045175000000       5.229837517200       7.466188591200
       130    2       41.668525000000      11.505637517200       7.466188591200
       131    2       36.233500000000       2.091937517200       7.466188591200
       132    2       39.856850000000       8.367737517200       7.466188591200
       133    1       38.045175000000       3.137900000000       8.922800000000
       134    1       41.668525000000       9.413700000000       8.922800000000
       135    2       38.045175000000       1.045962482800      10.379411408800
       136    2       41.668525000000       7.321762482800      10.379411408800
       137    1       39.856850000000       0.000000000000       8.922800000000
       138    1       36.233500000000       6.275800000000       8.922800000000
       139    2       39.856850000000       4.183862482800      10.379411408800
       140    2       36.233500000000      10.459662482800      10.379411408800
       141    2       39.856850000000       2.091937517200       7.466188591200
       142    2       36.233500000000       8.367737517200       7.466188591200
       143    2       41.668525000000       1.045962482800      10.379411408800
       144    2       38.045175000000       7.321762482800      10.379411408800
       145    1       43.480200000000       0.000000000000       8.922800000000
       146    1       47.103550000000       6.275800000000       8.922800000000
       147    2       43.480200000000       4.183862482800      10.379411408800
       148    2       47.103550000000      10.459662482800      10.379411408800
       149    2       48.915225000000       5.229837517200       7.466188591200
       150    2       45.291875000000      11.505637517200       7.466188591200
       151    1       48.915225000000       3.137900000000       8.922800000000
       152    1       45.291875000000       9.413700000000       8.922800000000
       153    2       45.291875000000       5.229837517200       7.466188591200
       154    2       48.915225000000      11.505637517200       7.466188591200
       155    2       43.480200000000       2.091937517200       7.466188591200
       156    2       47.103550000000       8.367737517200       7.466188591200
       157    1       45.291875000000       3.137900000000       8.922800000000
       158    1       48.915225000000       9.413700000000       8.922800000000
       159    2       45.291875000000       1.045962482800      10.379411408800
       160    2       48.915225000000       7.321762482800      10.379411408800
       161    1       47.103550000000       0.000000000000       8.922800000000
       162    1       43.480200000000       6.275800000000       8.922800000000
       163    2       47.103550000000       4.183862482800      10.379411408800
       164    2       43.480200000000      10.459662482800      10.379411408800
       165    2       47.103550000000       2.091937517200       7.466188591200
       166    2       43.480200000000       8.367737517200       7.466188591200
       167    2       48.915225000000       1.045962482800      10.379411408800
       168    2       45.291875000000       7.321762482800      10.379411408800
       169    1       50.726900000000       0.000000000000       8.922800000000
       170    1       54.350250000000       6.275800000000       8.922800000000
       171    2       50.726900000000       4.183862482800      10.379411408800
       172    2       54.350250000000      10.459662482800      10.379411408800
       173    2       56.161925000000       5.229837517200       7.466188591200
       174    2       52.538575000000      11.505637517200       7.466188591200
       175    1       56.161925000000       3.137900000000       8.922800000000
       176    1       52.538575000000       9.413700000000       8.922800000000
       177    2       52.538575000000       5.229837517200       7.466188591200
       178    2       56.161925000000      11.505637517200       7.466188591200
       179    2       50.726900000000       2.091937517200       7.466188591200
       180    2       54.350250000000       8.367737517200       7.466188591200
       181    1       52.538575000000       3.137900000000       8.922800000000
       182    1       56.161925000000       9.413700000000       8.922800000000
       183    2       52.538575000000       1.045962482800      10.379411408800
       184    2       56.161925000000       7.321762482800      10.379411408800
       185    1       54.350250000000       0.000000000000       8.922800000000
       186    1       50.726900000000       6.275800000000       8.922800000000
       187    2       54.350250000000       4.183862482800      10.379411408800
       188    2       50.726900000000      10.459662482800      10.379411408800
       189    2       54.350250000000       2.091937517200       7.466188591200
       190    2       50.726900000000       8.367737517200       7.466188591200
       191    2       56.161925000000       1.045962482800      10.379411408800
       192    2       52.538575000000       7.321762482800      10.379411408800
       193    1       57.973600000000       0.000000000000       8.922800000000
       194    1       61.596950000000       6.275800000000       8.922800000000
       195    2       57.973600000000       4.183862482800      10.379411408800
       196    2       61.596950000000      10.459662482800      10.379411408800
       197    2       63.408625000000       5.229837517200       7.466188591200
       198    2       59.785275000000      11.505637517200       7.466188591200
       199    1       63.408625000000       3.137900000000       8.922800000000
       200    1       59.785275000000       9.413700000000       8.922800000000
       201    2       59.785275000000       5.229837517200       7.466188591200
       202    2       63.408625000000      11.505637517200       7.466188591200
       203    2       57.973600000000       2.091937517200       7.466188591200
       204    2       61.596950000000       8.367737517200       7.466188591200
       205    1       59.785275000000       3.137900000000       8.922800000000
       206    1       63.408625000000       9.413700000000       8.922800000000
       207    2       59.785275000000       1.045962482800      10.379411408800
       208    2       63.408625000000       7.321762482800      10.379411408800
       209    1       61.596950000000       0.000000000000       8.922800000000
       210    1       57.973600000000       6.275800000000       8.922800000000
       211    2       61.596950000000       4.183862482800      10.379411408800
       212    2       57.973600000000      10.459662482800      10.379411408800
       213    2       61.596950000000       2.091937517200       7.466188591200
       214    2       57.973600000000       8.367737517200       7.466188591200
       215    2       63.408625000000       1.045962482800      10.379411408800
       216    2       59.785275000000       7.321762482800      10.379411408800
       217    1       65.220300000000       0.000000000000       8.922800000000
       218    1       68.843650000000       6.275800000000       8.922800000000
       219    2       65.220300000000       4.183862482800      10.379411408800
       220    2       68.843650000000      10.459662482800      10.379411408800
       221    2       70.655325000000       5.229837517200       7.466188591200
       222    2       67.031975000000      11.505637517200       7.466188591200
       223    1       70.655325000000       3.137900000000       8.922800000000
       224    1       67.031975000000       9.413700000000       8.922800000000
       225    2       67.031975000000       5.229837517200       7.466188591200
       226    2       70.655325000000      11.505637517200       7.466188591200
       227    2       65.220300000000       2.091937517200       7.466188591200
       228    2       68.843650000000       8.367737517200       7.466188591200
       229    1       67.031975000000       3.137900000000       8.922800000000
       230    1       70.655325000000       9.413700000000       8.922800000000
       231    2       67.031975000000       1.045962482800      10.379411408800
       232    2       70.655325000000       7.321762482800      10.379411408800
       233    1       68.843650000000       0.000000000000       8.922800000000
       234    1       65.220300000000       6.275800000000       8.922800000000
       235    2       68.843650000000       4.183862482800      10.379411408800
       236    2       65.220300000000      10.459662482800      10.379411408800
       237    2       68.843650000000       2.091937517200       7.466188591200
       238    2       65.220300000000       8.367737517200       7.466188591200
       239    2       70.655325000000       1.045962482800      10.379411408800
       240    2       67.031975000000       7.321762482800      10.379411408800
       241    1       72.467000000000       0.000000000000       8.922800000000
       242    1       76.090350000000       6.275800000000       8.922800000000
       243    2       72.467000000000       4.183862482800      10.379411408800
       244    2       76.090350000000      10.459662482800      10.379411408800
       245    2       77.902025000000       5.229837517200       7.466188591200
       246    2       74.278675000000      11.505637517200       7.466188591200
       247    1       77.902025000000       3.137900000000       8.922800000000
       248    1       74.278675000000       9.413700000000       8.922800000000
       249    2       74.278675000000       5.229837517200       7.466188591200
       250    2       77.902025000000      11.505637517200       7.466188591200
       251    2       72.467000000000       2.091937517200       7.466188591200
       252    2       76.090350000000       8.367737517200       7.466188591200
       253    1       74.278675000000       3.137900000000       8.922800000000
       254    1       77.902025000000       9.413700000000       8.922800000000
       255    2       74.278675000000       1.045962482800      10.379411408800
       256    2       77.902025000000       7.321762482800      10.379411408800
       257    1       76.090350000000       0.000000000000       8.922800000000
       258    1       72.467000000000       6.275800000000       8.922800000000
       259    2       76.090350000000       4.183862482800      10.379411408800
       260    2       72.467000000000      10.459662482800      10.379411408800
       261    2       76.090350000000       2.091937517200       7.466188591200
       262    2       72.467000000000       8.367737517200       7.466188591200
       263    2       77.902025000000       1.045962482800      10.379411408800
       264    2       74.278675000000       7.321762482800      10.379411408800
       265    1       79.713700000000       0.000000000000       8.922800000000
       266    1       83.337050000000       6.275800000000       8.922800000000
       267    2       79.713700000000       4.183862482800      10.379411408800
       268    2       83.337050000000      10.459662482800      10.379411408800
       269    2       85.148725000000       5.229837517200       7.466188591200
       270    2       81.525375000000      11.505637517200       7.466188591200
       271    1       85.148725000000       3.137900000000       8.922800000000
       272    1       81.525375000000       9.413700000000       8.922800000000
       273    2       81.525375000000       5.229837517200       7.466188591200
       274    2       85.148725000000      11.505637517200       7.466188591200
       275    2       79.713700000000       2.091937517200       7.466188591200
       276    2       83.337050000000       8.367737517200       7.466188591200
       277    1       81.525375000000       3.137900000000       8.922800000000
       278    1       85.148725000000       9.413700000000       8.922800000000
       279    2       81.525375000000       1.045962482800      10.379411408800
       280    2       85.148725000000       7.321762482800      10.379411408800
       281    1       83.337050000000       0.000000000000       8.922800000000
       282    1       79.713700000000       6.275800000000       8.922800000000
       283    2       83.337050000000       4.183862482800      10.379411408800
       284    2       79.713700000000      10.459662482800      10.379411408800
       285    2       83.337050000000       2.091937517200       7.466188591200
       286    2       79.713700000000       8.367737517200       7.466188591200
       287    2       85.148725000000       1.045962482800      10.379411408800
       288    2       81.525375000000       7.321762482800      10.379411408800
       289    1       86.960400000000       0.000000000000       8.922800000000
       290    1       90.583750000000       6.275800000000       8.922800000000
       291    2       86.960400000000       4.183862482800      10.379411408800
       292    2       90.583750000000      10.459662482800      10.379411408800
       293    2       92.395425000000       5.229837517200       7.466188591200
       294    2       88.772075000000      11.505637517200       7.466188591200
       295    1       92.395425000000       3.137900000000       8.922800000000
       296    1       88.772075000000       9.413700000000       8.922800000000
       297    2       88.772075000000       5.229837517200       7.466188591200
       298    2       92.395425000000      11.505637517200       7.466188591200
       299    2       86.960400000000       2.091937517200       7.466188591200
       300    2       90.583750000000       8.367737517200       7.466188591200
       301    1       88.772075000000       3.137900000000       8.922800000000
       302    1       92.395425000000       9.413700000000       8.922800000000
       303    2       88.772075000000       1.045962482800      10.379411408800
       304    2       92.395425000000       7.321762482800      10.379411408800
       305    1       90.583750000000       0.000000000000       8.922800000000
       306    1       86.960400000000       6.275800000000       8.922800000000
       307    2       90.583750000000       4.183862482800      10.379411408800
       308    2       86.960400000000      10.459662482800      10.379411408800
       309    2       90.583750000000       2.091937517200       7.466188591200
       310    2       86.960400000000       8.367737517200       7.466188591200
       311    2       92.395425000000       1.045962482800      10.379411408800
       312    2       88.772075000000       7.321762482800      10.379411408800
       313    1       94.207100000000       0.000000000000       8.922800000000
       314    1       97.830450000000       6.275800000000       8.922800000000
       315    2       94.207100000000       4.183862482800      10.379411408800
       316    2       97.830450000000      10.459662482800      10.379411408800
       317    2       99.642125000000       5.229837517200       7.466188591200
       318    2       96.018775000000      11.505637517200       7.466188591200
       319    1       99.642125000000       3.137900000000       8.922800000000
       320    1       96.018775000000       9.413700000000       8.922800000000
       321    2       96.018775000000       5.229837517200       7.466188591200
       322    2       99.642125000000      11.505637517200       7.466188591200
       323    2       94.207100000000       2.091937517200       7.466188591200
       324    2       97.830450000000       8.367737517200       7.466188591200
       325    1       96.018775000000       3.137900000000       8.922800000000
       326    1       99.642125000000       9.413700000000       8.922800000000
       327    2       96.018775000000       1.045962482800      10.379411408800
       328    2       99.642125000000       7.321762482800      10.379411408800
       329    1       97.830450000000       0.000000000000       8.922800000000
       330    1       94.207100000000       6.275800000000       8.922800000000
       331    2       97.830450000000       4.183862482800      10.379411408800
       332    2       94.207100000000      10.459662482800      10.379411408800
       333    2       97.830450000000       2.091937517200       7.466188591200
       334    2       94.207100000000       8.367737517200       7.466188591200
       335    2       99.642125000000       1.045962482800      10.379411408800
       336    2       96.018775000000       7.321762482800      10.379411408800
       337    1        0.000000000000      12.551600000000       8.922800000000
       338    1        3.623350000000      18.827400000000       8.922800000000
       339    2        0.000000000000      16.735462482800      10.379411408800
       340    2        3.623350000000      23.011262482800      10.379411408800
       341    2        5.435025000000      17.781437517200       7.466188591200
       342    2        1.811675000000      24.057237517200       7.466188591200
       343    1        5.435025000000      15.689500000000       8.922800000000
       344    1        1.811675000000      21.965300000000       8.922800000000
       345    2        1.811675000000      17.781437517200       7.466188591200
       346    2        5.435025000000      24.057237517200       7.466188591200
       347    2        0.000000000000      14.643537517200       7.466188591200
       348    2        3.623350000000      20.919337517200       7.466188591200
       349    1        1.811675000000      15.689500000000       8.922800000000
       350    1        5.435025000000      21.965300000000       8.922800000000
       351    2        1.811675000000      13.597562482800      10.379411408800
       352    2        5.435025000000      19.873362482800      10.379411408800
       353    1        3.623350000000      12.551600000000       8.922800000000
       354    1        0.000000000000      18.827400000000       8.922800000000
       355    2        3.623350000000      16.735462482800      10.379411408800
       356    2        0.000000000000      23.011262482800      10.379411408800
       357    2        3.623350000000      14.643537517200       7.466188591200
       358    2        0.000000000000      20.919337517200       7.466188591200
       359    2        5.435025000000      13.597562482800      10.379411408800
       360    2        1.811675000000      19.873362482800      10.379411408800
       361    1        7.246700000000      12.551600000000       8.922800000000
       362    1       10.870050000000      18.827400000000       8.922800000000
       363    2        7.246700000000      16.735462482800      10.379411408800
       364    2       10.870050000000      23.011262482800      10.379411408800
       365    2       12.681725000000      17.781437517200       7.466188591200
       366    2        9.058375000000      24.057237517200       7.466188591200
       367    1       12.681725000000      15.689500000000       8.922800000000
       368    1        9.058375000000      21.965300000000       8.922800000000
       369    2        9.058375000000      17.781437517200       7.466188591200
       370    2       12.681725000000      24.057237517200       7.466188591200