 # Te16 Hf8
  
        2184  atoms
           2  atom types
 
      0.000000000000     103.405900000000  xlo xhi
      0.000000000000      96.440400000000  ylo yhi
      0.000000000000      18.553300000000  zlo zhi
 
Masses
 
            1   127.60000000            # Te
            2   178.49000000            # Hf
 
Atoms # atomic
 
         1    1        1.988575000000       5.740504592400       7.508409190200
         2    1        1.988575000000       1.148095407600      11.044890809800
         3    1        5.965725000000      12.629104592400       7.508409190200
         4    1        5.965725000000       8.036695407600      11.044890809800
         5    2        0.000000000000      13.777200000000       9.276650000000
         6    2        3.977150000000       6.888600000000       9.276650000000
         7    1        5.965725000000       5.740504592400       7.508409190200
         8    2        5.965725000000       3.444300000000       9.276650000000
         9    1        0.000000000000       2.296204592400       7.508409190200
        10    1        1.988575000000      12.629104592400       7.508409190200
        11    1        3.977150000000       2.296204592400       7.508409190200
        12    2        1.988575000000       3.444300000000       9.276650000000
        13    1        3.977150000000       9.184804592400       7.508409190200
        14    2        1.988575000000      10.332900000000       9.276650000000
        15    1        0.000000000000       9.184804592400       7.508409190200
        16    2        5.965725000000      10.332900000000       9.276650000000
        17    1        3.977150000000       4.592395407600      11.044890809800
        18    1        0.000000000000      11.480995407600      11.044890809800
        19    1        5.965725000000       1.148095407600      11.044890809800
        20    1        0.000000000000       4.592395407600      11.044890809800
        21    1        1.988575000000       8.036695407600      11.044890809800
        22    1        3.977150000000      11.480995407600      11.044890809800
        23    2        3.977150000000      13.777200000000       9.276650000000
        24    2        0.000000000000       6.888600000000       9.276650000000
        25    1        9.942875000000       5.740504592400       7.508409190200
        26    1        9.942875000000       1.148095407600      11.044890809800
        27    1       13.920025000000      12.629104592400       7.508409190200
        28    1       13.920025000000       8.036695407600      11.044890809800
        29    2        7.954300000000      13.777200000000       9.276650000000
        30    2       11.931450000000       6.888600000000       9.276650000000
        31    1       13.920025000000       5.740504592400       7.508409190200
        32    2       13.920025000000       3.444300000000       9.276650000000
        33    1        7.954300000000       2.296204592400       7.508409190200
        34    1        9.942875000000      12.629104592400       7.508409190200
        35    1       11.931450000000       2.296204592400       7.508409190200
        36    2        9.942875000000       3.444300000000       9.276650000000
        37    1       11.931450000000       9.184804592400       7.508409190200
        38    2        9.942875000000      10.332900000000       9.276650000000
        39    1        7.954300000000       9.184804592400       7.508409190200
        40    2       13.920025000000      10.332900000000       9.276650000000
        41    1       11.931450000000       4.592395407600      11.044890809800
        42    1        7.954300000000      11.480995407600      11.044890809800
        43    1       13.920025000000       1.148095407600      11.044890809800
        44    1        7.954300000000       4.592395407600      11.044890809800
        45    1        9.942875000000       8.036695407600      11.044890809800
        46    1       11.931450000000      11.480995407600      11.044890809800
        47    2       11.931450000000      13.777200000000       9.276650000000
        48    2        7.954300000000       6.888600000000       9.276650000000
        49    1       17.897175000000       5.740504592400       7.508409190200
        50    1       17.897175000000       1.148095407600      11.044890809800
        51    1       21.874325000000      12.629104592400       7.508409190200
        52    1       21.874325000000       8.036695407600      11.044890809800
        53    2       15.908600000000      13.777200000000       9.276650000000
        54    2       19.885750000000       6.888600000000       9.276650000000
        55    1       21.874325000000       5.740504592400       7.508409190200
        56    2       21.874325000000       3.444300000000       9.276650000000
        57    1       15.908600000000       2.296204592400       7.508409190200
        58    1       17.897175000000      12.629104592400       7.508409190200
        59    1       19.885750000000       2.296204592400       7.508409190200
        60    2       17.897175000000       3.444300000000       9.276650000000
        61    1       19.885750000000       9.184804592400       7.508409190200
        62    2       17.897175000000      10.332900000000       9.276650000000
        63    1       15.908600000000       9.184804592400       7.508409190200
        64    2       21.874325000000      10.332900000000       9.276650000000
        65    1       19.885750000000       4.592395407600      11.044890809800
        66    1       15.908600000000      11.480995407600      11.044890809800
        67    1       21.874325000000       1.148095407600      11.044890809800
        68    1       15.908600000000       4.592395407600      11.044890809800
        69    1       17.897175000000       8.036695407600      11.044890809800
        70    1       19.885750000000      11.480995407600      11.044890809800
        71    2       19.885750000000      13.777200000000       9.276650000000
        72    2       15.908600000000       6.888600000000       9.276650000000
        73    1       25.851475000000       5.740504592400       7.508409190200
        74    1       25.851475000000       1.148095407600      11.044890809800
        75    1       29.828625000000      12.629104592400       7.508409190200
        76    1       29.828625000000       8.036695407600      11.044890809800
        77    2       23.862900000000      13.777200000000       9.276650000000
        78    2       27.840050000000       6.888600000000       9.276650000000
        79    1       29.828625000000       5.740504592400       7.508409190200
        80    2       29.828625000000       3.444300000000       9.276650000000
        81    1       23.862900000000       2.296204592400       7.508409190200
        82    1       25.851475000000      12.629104592400       7.508409190200
        83    1       27.840050000000       2.296204592400       7.508409190200
        84    2       25.851475000000       3.444300000000       9.276650000000
        85    1       27.840050000000       9.184804592400       7.508409190200
        86    2       25.851475000000      10.332900000000       9.276650000000
        87    1       23.862900000000       9.184804592400       7.508409190200
        88    2       29.828625000000      10.332900000000       9.276650000000
        89    1       27.840050000000       4.592395407600      11.044890809800
        90    1       23.862900000000      11.480995407600      11.044890809800
        91    1       29.828625000000       1.148095407600      11.044890809800
        92    1       23.862900000000       4.592395407600      11.044890809800
        93    1       25.851475000000       8.036695407600      11.044890809800
        94    1       27.840050000000      11.480995407600      11.044890809800
        95    2       27.840050000000      13.777200000000       9.276650000000
        96    2       23.862900000000       6.888600000000       9.276650000000
        97    1       33.805775000000       5.740504592400       7.508409190200
        98    1       33.805775000000       1.148095407600      11.044890809800
        99    1       37.782925000000      12.629104592400       7.508409190200
       100    1       37.782925000000       8.036695407600      11.044890809800
       101    2       31.817200000000      13.777200000000       9.276650000000
       102    2       35.794350000000       6.888600000000       9.276650000000
       103    1       37.782925000000       5.740504592400       7.508409190200
       104    2       37.782925000000       3.444300000000       9.276650000000
       105    1       31.817200000000       2.296204592400       7.508409190200
       106    1       33.805775000000      12.629104592400       7.508409190200
       107    1       35.794350000000       2.296204592400       7.508409190200
       108    2       33.805775000000       3.444300000000       9.276650000000
       109    1       35.794350000000       9.184804592400       7.508409190200
       110    2       33.805775000000      10.332900000000       9.276650000000
       111    1       31.817200000000       9.184804592400       7.508409190200
       112    2       37.782925000000      10.332900000000       9.276650000000
       113    1       35.794350000000       4.592395407600      11.044890809800
       114    1       31.817200000000      11.480995407600      11.044890809800
       115    1       37.782925000000       1.148095407600      11.044890809800
       116    1       31.817200000000       4.592395407600      11.044890809800
       117    1       33.805775000000       8.036695407600      11.044890809800
       118    1       35.794350000000      11.480995407600      11.044890809800
       119    2       35.794350000000      13.777200000000       9.276650000000
       120    2       31.817200000000       6.888600000000       9.276650000000
       121    1       41.760075000000       5.740504592400       7.508409190200
       122    1       41.760075000000       1.148095407600      11.044890809800
       123    1       45.737225000000      12.629104592400       7.508409190200
       124    1       45.737225000000       8.036695407600      11.044890809800
       125    2       39.771500000000      13.777200000000       9.276650000000
       126    2       43.748650000000       6.888600000000       9.276650000000
       127    1       45.737225000000       5.740504592400       7.508409190200
       128    2       45.737225000000       3.444300000000       9.276650000000
       129    1       39.771500000000       2.296204592400       7.508409190200
       130    1       41.760075000000      12.629104592400       7.508409190200
       131    1       43.748650000000       2.296204592400       7.508409190200
       132    2       41.760075000000       3.444300000000       9.276650000000
       133    1       43.748650000000       9.184804592400       7.508409190200
       134    2       41.760075000000      10.332900000000       9.276650000000
       135    1       39.771500000000       9.184804592400       7.508409190200
       136    2       45.737225000000      10.332900000000       9.276650000000
       137    1       43.748650000000       4.592395407600      11.044890809800
       138    1       39.771500000000      11.480995407600      11.044890809800
       139    1       45.737225000000       1.148095407600      11.044890809800
       140    1       39.771500000000       4.592395407600      11.044890809800
       141    1       41.760075000000       8.036695407600      11.044890809800
       142    1       43.748650000000      11.480995407600      11.044890809800
       143    2       43.748650000000      13.777200000000       9.276650000000
       144    2       39.771500000000       6.888600000000       9.276650000000
       145    1       49.714375000000       5.740504592400       7.508409190200
       146    1       49.714375000000       1.148095407600      11.044890809800
       147    1       53.691525000000      12.629104592400       7.508409190200
       148    1       53.691525000000       8.036695407600      11.044890809800
       149    2       47.725800000000      13.777200000000       9.276650000000
       150    2       51.702950000000       6.888600000000       9.276650000000
       151    1       53.691525000000       5.740504592400       7.508409190200
       152    2       53.691525000000       3.444300000000       9.276650000000
       153    1       47.725800000000       2.296204592400       7.508409190200
       154    1       49.714375000000      12.629104592400       7.508409190200
       155    1       51.702950000000       2.296204592400       7.508409190200
       156    2       49.714375000000       3.444300000000       9.276650000000
       157    1       51.702950000000       9.184804592400       7.508409190200
       158    2       49.714375000000      10.332900000000       9.276650000000
       159    1       47.725800000000       9.184804592400       7.508409190200
       160    2       53.691525000000      10.332900000000       9.276650000000
       161    1       51.702950000000       4.592395407600      11.044890809800
       162    1       47.725800000000      11.480995407600      11.044890809800
       163    1       53.691525000000       1.148095407600      11.044890809800
       164    1       47.725800000000       4.592395407600      11.044890809800
       165    1       49.714375000000       8.036695407600      11.044890809800
       166    1       51.702950000000      11.480995407600      11.044890809800
       167    2       51.702950000000      13.777200000000       9.276650000000
       168    2       47.725800000000       6.888600000000       9.276650000000
       169    1       57.668675000000       5.740504592400       7.508409190200
       170    1       57.668675000000       1.148095407600      11.044890809800
       171    1       61.645825000000      12.629104592400       7.508409190200
       172    1       61.645825000000       8.036695407600      11.044890809800
       173    2       55.680100000000      13.777200000000       9.276650000000
       174    2       59.657250000000       6.888600000000       9.276650000000
       175    1       61.645825000000       5.740504592400       7.508409190200
       176    2       61.645825000000       3.444300000000       9.276650000000
       177    1       55.680100000000       2.296204592400       7.508409190200
       178    1       57.668675000000      12.629104592400       7.508409190200
       179    1       59.657250000000       2.296204592400       7.508409190200
       180    2       57.668675000000       3.444300000000       9.276650000000
       181    1       59.657250000000       9.184804592400       7.508409190200
       182    2       57.668675000000      10.332900000000       9.276650000000
       183    1       55.680100000000       9.184804592400       7.508409190200
       184    2       61.645825000000      10.332900000000       9.276650000000
       185    1       59.657250000000       4.592395407600      11.044890809800
       186    1       55.680100000000      11.480995407600      11.044890809800
       187    1       61.645825000000       1.148095407600      11.044890809800
       188    1       55.680100000000       4.592395407600      11.044890809800
       189    1       57.668675000000       8.036695407600      11.044890809800
       190    1       59.657250000000      11.480995407600      11.044890809800
       191    2       59.657250000000      13.777200000000       9.276650000000
       192    2       55.680100000000       6.888600000000       9.276650000000
       193    1       65.622975000000       5.740504592400       7.508409190200
       194    1       65.622975000000       1.148095407600      11.044890809800
       195    1       69.600125000000      12.629104592400       7.508409190200
       196    1       69.600125000000       8.036695407600      11.044890809800
       197    2       63.634400000000      13.777200000000       9.276650000000
       198    2       67.611550000000       6.888600000000       9.276650000000
       199    1       69.600125000000       5.740504592400       7.508409190200
       200    2       69.600125000000       3.444300000000       9.276650000000
       201    1       63.634400000000       2.296204592400       7.508409190200
       202    1       65.622975000000      12.629104592400       7.508409190200
       203    1       67.611550000000       2.296204592400       7.508409190200
       204    2       65.622975000000       3.444300000000       9.276650000000
       205    1       67.611550000000       9.184804592400       7.508409190200
       206    2       65.622975000000      10.332900000000       9.276650000000
       207    1       63.634400000000       9.184804592400       7.508409190200
       208    2       69.600125000000      10.332900000000       9.276650000000
       209    1       67.611550000000       4.592395407600      11.044890809800
       210    1       63.634400000000      11.480995407600      11.044890809800
       211    1       69.600125000000       1.148095407600      11.044890809800
       212    1       63.634400000000       4.592395407600      11.044890809800
       213    1       65.622975000000       8.036695407600      11.044890809800
       214    1       67.611550000000      11.480995407600      11.044890809800
       215    2       67.611550000000      13.777200000000       9.276650000000
       216    2       63.634400000000       6.888600000000       9.276650000000
       217    1       73.577275000000       5.740504592400       7.508409190200
       218    1       73.577275000000       1.148095407600      11.044890809800
       219    1       77.554425000000      12.629104592400       7.508409190200
       220    1       77.554425000000       8.036695407600      11.044890809800
       221    2       71.588700000000      13.777200000000       9.276650000000
       222    2       75.565850000000       6.888600000000       9.276650000000
       223    1       77.554425000000       5.740504592400       7.508409190200
       224    2       77.554425000000       3.444300000000       9.276650000000
       225    1       71.588700000000       2.296204592400       7.508409190200
       226    1       73.577275000000      12.629104592400       7.508409190200
       227    1       75.565850000000       2.296204592400       7.508409190200
       228    2       73.577275000000       3.444300000000       9.276650000000
       229    1       75.565850000000       9.184804592400       7.508409190200
       230    2       73.577275000000      10.332900000000       9.276650000000
       231    1       71.588700000000       9.184804592400       7.508409190200
       232    2       77.554425000000      10.332900000000       9.276650000000
       233    1       75.565850000000       4.592395407600      11.044890809800
       234    1       71.588700000000      11.480995407600      11.044890809800
       235    1       77.554425000000       1.148095407600      11.044890809800
       236    1       71.588700000000       4.592395407600      11.044890809800
       237    1       73.577275000000       8.036695407600      11.044890809800
       238    1       75.565850000000      11.480995407600      11.044890809800
       239    2       75.565850000000      13.777200000000       9.276650000000
       240    2       71.588700000000       6.888600000000       9.276650000000
       241    1       81.531575000000       5.740504592400       7.508409190200
       242    1       81.531575000000       1.148095407600      11.044890809800
       243    1       85.508725000000      12.629104592400       7.508409190200
       244    1       85.508725000000       8.036695407600      11.044890809800
       245    2       79.543000000000      13.777200000000       9.276650000000
       246    2       83.520150000000       6.888600000000       9.276650000000
       247    1       85.508725000000       5.740504592400       7.508409190200
       248    2       85.508725000000       3.444300000000       9.276650000000
       249    1       79.543000000000       2.296204592400       7.508409190200
       250    1       81.531575000000      12.629104592400       7.508409190200
       251    1       83.520150000000       2.296204592400       7.508409190200
       252    2       81.531575000000       3.444300000000       9.276650000000
       253    1       83.520150000000       9.184804592400       7.508409190200
       254    2       81.531575000000      10.332900000000       9.276650000000
       255    1       79.543000000000       9.184804592400       7.508409190200
       256    2       85.508725000000      10.332900000000       9.276650000000
       257    1       83.520150000000       4.592395407600      11.044890809800
       258    1       79.543000000000      11.480995407600      11.044890809800
       259    1       85.508725000000       1.148095407600      11.044890809800
       260    1       79.543000000000       4.592395407600      11.044890809800
       261    1       81.531575000000       8.036695407600      11.044890809800
       262    1       83.520150000000      11.480995407600      11.044890809800
       263    2       83.520150000000      13.777200000000       9.276650000000
       264    2       79.543000000000       6.888600000000       9.276650000000
       265    1       89.485875000000       5.740504592400       7.508409190200
       266    1       89.485875000000       1.148095407600      11.044890809800
       267    1       93.463025000000      12.629104592400       7.508409190200
       268    1       93.463025000000       8.036695407600      11.044890809800
       269    2       87.497300000000      13.777200000000       9.276650000000
       270    2       91.474450000000       6.888600000000       9.276650000000
       271    1       93.463025000000       5.740504592400       7.508409190200
       272    2       93.463025000000       3.444300000000       9.276650000000
       273    1       87.497300000000       2.296204592400       7.508409190200
       274    1       89.485875000000      12.629104592400       7.508409190200
       275    1       91.474450000000       2.296204592400       7.508409190200
       276    2       89.485875000000       3.444300000000       9.276650000000
       277    1       91.474450000000       9.184804592400       7.508409190200
       278    2       89.485875000000      10.332900000000       9.276650000000
       279    1       87.497300000000       9.184804592400       7.508409190200
       280    2       93.463025000000      10.332900000000       9.276650000000
       281    1       91.474450000000       4.592395407600      11.044890809800
       282    1       87.497300000000      11.480995407600      11.044890809800
       283    1       93.463025000000       1.148095407600      11.044890809800
       284    1       87.497300000000       4.592395407600      11.044890809800
       285    1       89.485875000000       8.036695407600      11.044890809800
       286    1       91.474450000000      11.480995407600      11.044890809800
       287    2       91.474450000000      13.777200000000       9.276650000000
       288    2       87.497300000000       6.888600000000       9.276650000000
       289    1       97.440175000000       5.740504592400       7.508409190200
       290    1       97.440175000000       1.148095407600      11.044890809800
       291    1      101.417325000000      12.629104592400       7.508409190200
       292    1      101.417325000000       8.036695407600      11.044890809800
       293    2       95.451600000000      13.777200000000       9.276650000000
       294    2       99.428750000000       6.888600000000       9.276650000000
       295    1      101.417325000000       5.740504592400       7.508409190200
       296    2      101.417325000000       3.444300000000       9.276650000000
       297    1       95.451600000000       2.296204592400       7.508409190200
       298    1       97.440175000000      12.629104592400       7.508409190200
       299    1       99.428750000000       2.296204592400       7.508409190200
       300    2       97.440175000000       3.444300000000       9.276650000000
       301    1       99.428750000000       9.184804592400       7.508409190200
       302    2       97.440175000000      10.332900000000       9.276650000000
       303    1       95.451600000000       9.184804592400       7.508409190200
       304    2      101.417325000000      10.332900000000       9.276650000000
       305    1       99.428750000000       4.592395407600      11.044890809800
       306    1       95.451600000000      11.480995407600      11.044890809800
       307    1      101.417325000000       1.148095407600      11.044890809800
       308    1       95.451600000000       4.592395407600      11.044890809800
       309    1       97.440175000000       8.036695407600      11.044890809800
       310    1       99.428750000000      11.480995407600      11.044890809800
       311    2       99.428750000000      13.777200000000       9.276650000000
       312    2       95.451600000000       6.888600000000       9.276650000000
       313    1        1.988575000000      19.517704592400       7.508409190200
       314    1        1.988575000000      14.925295407600      11.044890809800
       315    1        5.965725000000      26.406304592400       7.508409190200
       316    1        5.965725000000      21.813895407600      11.044890809800
       317    2        0.000000000000      27.554400000000       9.276650000000
       318    2        3.977150000000      20.665800000000       9.276650000000
       319    1        5.965725000000      19.517704592400       7.508409190200
       320    2        5.965725000000      17.221500000000       9.276650000000
       321    1        0.000000000000      16.073404592400       7.508409190200
       322    1        1.988575000000      26.406304592400       7.508409190200
       323    1        3.977150000000      16.073404592400       7.508409190200
       324    2        1.988575000000      17.221500000000       9.276650000000
       325    1        3.977150000000      22.962004592400       7.508409190200
       326    2        1.988575000000      24.110100000000       9.276650000000
       327    1        0.000000000000      22.962004592400       7.508409190200
       328    2        5.965725000000      24.110100000000       9.276650000000
       329    1        3.977150000000      18.369595407600      11.044890809800
       330    1        0.000000000000      25.258195407600      11.044890809800
       331    1        5.965725000000      14.925295407600      11.044890809800
       332    1        0.000000000000      18.369595407600      11.044890809800
       333    1        1.988575000000      21.813895407600      11.044890809800
       334    1        3.977150000000      25.258195407600      11.044890809800
       335    2        3.977150000000      27.554400000000       9.276650000000
       336    2        0.000000000000      20.665800000000       9.276650000000
       337    1        9.942875000000      19.517704592400       7.508409190200
       338    1        9.942875000000      14.925295407600      11.044890809800
       339    1       13.920025000000      26.406304592400       7.508409190200
       340    1       13.920025000000      21.813895407600      11.044890809800
       341    2        7.954300000000      27.554400000000       9.276650000000
       342    2       11.931450000000      20.665800000000       9.276650000000
       343    1       13.920025000000      19.517704592400       7.508409190200
       344    2       13.920025000000      17.221500000000       9.276650000000
       345    1        7.954300000000      16.073404592400       7.508409190200
       346    1        9.942875000000      26.406304592400       7.508409190200
       347    1       11.931450000000      16.073404592400       7.508409190200
       348    2        9.942875000000      17.221500000000       9.276650000000
       349    1       11.931450000000      22.962004592400       7.508409190200
       350    2        9.942875000000      24.110100000000       9.276650000000
       351    1        7.954300000000      22.962004592400       7.508409190200
       352    2       13.920025000000      24.110100000000       9.276650000000
       353    1       11.931450000000      18.369595407600      11.044890809800
       354    1        7.954300000000      25.258195407600      11.044890809800
       355    1       13.920025000000      14.925295407600      11.044890809800
       356    1        7.954300000000      18.369595407600      11.044890809800
       357    1        9.942875000000      21.813895407600      11.044890809800
       358    1       11.931450000000      25.258195407600      11.044890809800
       359    2       11.931450000000      27.554400000000       9.276650000000
       360    2        7.954300000000      20.665800000000       9.276650000000
       361    1       17.897175000000      19.517704592400       7.508409190200
       362    1       17.897175000000      14.925295407600      11.044890809800
       363    1       21.874325000000      26.406304592400       7.508409190200
       364    1       21.874325000000      21.813895407600      11.044890809800
       365    2       15.908600000000      27.554400000000       9.276650000000
       366    2       19.885750000000      20.665800000000       9.276650000000
       367    1       21.874325000000      19.517704592400       7.508409190200
       368    2       21.874325000000      17.221500000000       9.276650000000
       369    1       15.908600000000      16.073404592400       7.508409190200
       370    1       17.897175000000      26.406304592400       7.508409190200