 # Mn8 Se16
  
        2688  atoms
           2  atom types
 
      0.000000000000      97.837600000000  xlo xhi
      0.000000000000      96.833600000000  ylo yhi
      0.000000000000      17.960400000000  zlo zhi
 
Masses
 
            1   54.93804500             # Mn
            2   78.96000000             # Se
 
Atoms # atomic
 
         1    1        0.000000000000       0.000000000000       8.980200000000
         2    2        5.241300000000       1.008679298600      10.412146771200
         3    1        3.494200000000       6.052100000000       8.980200000000
         4    2        3.494200000000       2.017370701400       7.548253228800
         5    2        0.000000000000       2.017370701400       7.548253228800
         6    2        0.000000000000       8.069470701400       7.548253228800
         7    2        5.241300000000       5.043420701400       7.548253228800
         8    2        1.747100000000       7.060779298600      10.412146771200
         9    2        3.494200000000       8.069470701400       7.548253228800
        10    1        5.241300000000       3.026050000000       8.980200000000
        11    2        1.747100000000       5.043420701400       7.548253228800
        12    2        1.747100000000      11.095520701400       7.548253228800
        13    1        1.747100000000       9.078150000000       8.980200000000
        14    2        3.494200000000       4.034729298600      10.412146771200
        15    2        5.241300000000      11.095520701400       7.548253228800
        16    2        0.000000000000      10.086829298600      10.412146771200
        17    1        1.747100000000       3.026050000000       8.980200000000
        18    1        5.241300000000       9.078150000000       8.980200000000
        19    1        3.494200000000       0.000000000000       8.980200000000
        20    1        0.000000000000       6.052100000000       8.980200000000
        21    2        0.000000000000       4.034729298600      10.412146771200
        22    2        3.494200000000      10.086829298600      10.412146771200
        23    2        1.747100000000       1.008679298600      10.412146771200
        24    2        5.241300000000       7.060779298600      10.412146771200
        25    1        6.988400000000       0.000000000000       8.980200000000
        26    2       12.229700000000       1.008679298600      10.412146771200
        27    1       10.482600000000       6.052100000000       8.980200000000
        28    2       10.482600000000       2.017370701400       7.548253228800
        29    2        6.988400000000       2.017370701400       7.548253228800
        30    2        6.988400000000       8.069470701400       7.548253228800
        31    2       12.229700000000       5.043420701400       7.548253228800
        32    2        8.735500000000       7.060779298600      10.412146771200
        33    2       10.482600000000       8.069470701400       7.548253228800
        34    1       12.229700000000       3.026050000000       8.980200000000
        35    2        8.735500000000       5.043420701400       7.548253228800
        36    2        8.735500000000      11.095520701400       7.548253228800
        37    1        8.735500000000       9.078150000000       8.980200000000
        38    2       10.482600000000       4.034729298600      10.412146771200
        39    2       12.229700000000      11.095520701400       7.548253228800
        40    2        6.988400000000      10.086829298600      10.412146771200
        41    1        8.735500000000       3.026050000000       8.980200000000
        42    1       12.229700000000       9.078150000000       8.980200000000
        43    1       10.482600000000       0.000000000000       8.980200000000
        44    1        6.988400000000       6.052100000000       8.980200000000
        45    2        6.988400000000       4.034729298600      10.412146771200
        46    2       10.482600000000      10.086829298600      10.412146771200
        47    2        8.735500000000       1.008679298600      10.412146771200
        48    2       12.229700000000       7.060779298600      10.412146771200
        49    1       13.976800000000       0.000000000000       8.980200000000
        50    2       19.218100000000       1.008679298600      10.412146771200
        51    1       17.471000000000       6.052100000000       8.980200000000
        52    2       17.471000000000       2.017370701400       7.548253228800
        53    2       13.976800000000       2.017370701400       7.548253228800
        54    2       13.976800000000       8.069470701400       7.548253228800
        55    2       19.218100000000       5.043420701400       7.548253228800
        56    2       15.723900000000       7.060779298600      10.412146771200
        57    2       17.471000000000       8.069470701400       7.548253228800
        58    1       19.218100000000       3.026050000000       8.980200000000
        59    2       15.723900000000       5.043420701400       7.548253228800
        60    2       15.723900000000      11.095520701400       7.548253228800
        61    1       15.723900000000       9.078150000000       8.980200000000
        62    2       17.471000000000       4.034729298600      10.412146771200
        63    2       19.218100000000      11.095520701400       7.548253228800
        64    2       13.976800000000      10.086829298600      10.412146771200
        65    1       15.723900000000       3.026050000000       8.980200000000
        66    1       19.218100000000       9.078150000000       8.980200000000
        67    1       17.471000000000       0.000000000000       8.980200000000
        68    1       13.976800000000       6.052100000000       8.980200000000
        69    2       13.976800000000       4.034729298600      10.412146771200
        70    2       17.471000000000      10.086829298600      10.412146771200
        71    2       15.723900000000       1.008679298600      10.412146771200
        72    2       19.218100000000       7.060779298600      10.412146771200
        73    1       20.965200000000       0.000000000000       8.980200000000
        74    2       26.206500000000       1.008679298600      10.412146771200
        75    1       24.459400000000       6.052100000000       8.980200000000
        76    2       24.459400000000       2.017370701400       7.548253228800
        77    2       20.965200000000       2.017370701400       7.548253228800
        78    2       20.965200000000       8.069470701400       7.548253228800
        79    2       26.206500000000       5.043420701400       7.548253228800
        80    2       22.712300000000       7.060779298600      10.412146771200
        81    2       24.459400000000       8.069470701400       7.548253228800
        82    1       26.206500000000       3.026050000000       8.980200000000
        83    2       22.712300000000       5.043420701400       7.548253228800
        84    2       22.712300000000      11.095520701400       7.548253228800
        85    1       22.712300000000       9.078150000000       8.980200000000
        86    2       24.459400000000       4.034729298600      10.412146771200
        87    2       26.206500000000      11.095520701400       7.548253228800
        88    2       20.965200000000      10.086829298600      10.412146771200
        89    1       22.712300000000       3.026050000000       8.980200000000
        90    1       26.206500000000       9.078150000000       8.980200000000
        91    1       24.459400000000       0.000000000000       8.980200000000
        92    1       20.965200000000       6.052100000000       8.980200000000
        93    2       20.965200000000       4.034729298600      10.412146771200
        94    2       24.459400000000      10.086829298600      10.412146771200
        95    2       22.712300000000       1.008679298600      10.412146771200
        96    2       26.206500000000       7.060779298600      10.412146771200
        97    1       27.953600000000       0.000000000000       8.980200000000
        98    2       33.194900000000       1.008679298600      10.412146771200
        99    1       31.447800000000       6.052100000000       8.980200000000
       100    2       31.447800000000       2.017370701400       7.548253228800
       101    2       27.953600000000       2.017370701400       7.548253228800
       102    2       27.953600000000       8.069470701400       7.548253228800
       103    2       33.194900000000       5.043420701400       7.548253228800
       104    2       29.700700000000       7.060779298600      10.412146771200
       105    2       31.447800000000       8.069470701400       7.548253228800
       106    1       33.194900000000       3.026050000000       8.980200000000
       107    2       29.700700000000       5.043420701400       7.548253228800
       108    2       29.700700000000      11.095520701400       7.548253228800
       109    1       29.700700000000       9.078150000000       8.980200000000
       110    2       31.447800000000       4.034729298600      10.412146771200
       111    2       33.194900000000      11.095520701400       7.548253228800
       112    2       27.953600000000      10.086829298600      10.412146771200
       113    1       29.700700000000       3.026050000000       8.980200000000
       114    1       33.194900000000       9.078150000000       8.980200000000
       115    1       31.447800000000       0.000000000000       8.980200000000
       116    1       27.953600000000       6.052100000000       8.980200000000
       117    2       27.953600000000       4.034729298600      10.412146771200
       118    2       31.447800000000      10.086829298600      10.412146771200
       119    2       29.700700000000       1.008679298600      10.412146771200
       120    2       33.194900000000       7.060779298600      10.412146771200
       121    1       34.942000000000       0.000000000000       8.980200000000
       122    2       40.183300000000       1.008679298600      10.412146771200
       123    1       38.436200000000       6.052100000000       8.980200000000
       124    2       38.436200000000       2.017370701400       7.548253228800
       125    2       34.942000000000       2.017370701400       7.548253228800
       126    2       34.942000000000       8.069470701400       7.548253228800
       127    2       40.183300000000       5.043420701400       7.548253228800
       128    2       36.689100000000       7.060779298600      10.412146771200
       129    2       38.436200000000       8.069470701400       7.548253228800
       130    1       40.183300000000       3.026050000000       8.980200000000
       131    2       36.689100000000       5.043420701400       7.548253228800
       132    2       36.689100000000      11.095520701400       7.548253228800
       133    1       36.689100000000       9.078150000000       8.980200000000
       134    2       38.436200000000       4.034729298600      10.412146771200
       135    2       40.183300000000      11.095520701400       7.548253228800
       136    2       34.942000000000      10.086829298600      10.412146771200
       137    1       36.689100000000       3.026050000000       8.980200000000
       138    1       40.183300000000       9.078150000000       8.980200000000
       139    1       38.436200000000       0.000000000000       8.980200000000
       140    1       34.942000000000       6.052100000000       8.980200000000
       141    2       34.942000000000       4.034729298600      10.412146771200
       142    2       38.436200000000      10.086829298600      10.412146771200
       143    2       36.689100000000       1.008679298600      10.412146771200
       144    2       40.183300000000       7.060779298600      10.412146771200
       145    1       41.930400000000       0.000000000000       8.980200000000
       146    2       47.171700000000       1.008679298600      10.412146771200
       147    1       45.424600000000       6.052100000000       8.980200000000
       148    2       45.424600000000       2.017370701400       7.548253228800
       149    2       41.930400000000       2.017370701400       7.548253228800
       150    2       41.930400000000       8.069470701400       7.548253228800
       151    2       47.171700000000       5.043420701400       7.548253228800
       152    2       43.677500000000       7.060779298600      10.412146771200
       153    2       45.424600000000       8.069470701400       7.548253228800
       154    1       47.171700000000       3.026050000000       8.980200000000
       155    2       43.677500000000       5.043420701400       7.548253228800
       156    2       43.677500000000      11.095520701400       7.548253228800
       157    1       43.677500000000       9.078150000000       8.980200000000
       158    2       45.424600000000       4.034729298600      10.412146771200
       159    2       47.171700000000      11.095520701400       7.548253228800
       160    2       41.930400000000      10.086829298600      10.412146771200
       161    1       43.677500000000       3.026050000000       8.980200000000
       162    1       47.171700000000       9.078150000000       8.980200000000
       163    1       45.424600000000       0.000000000000       8.980200000000
       164    1       41.930400000000       6.052100000000       8.980200000000
       165    2       41.930400000000       4.034729298600      10.412146771200
       166    2       45.424600000000      10.086829298600      10.412146771200
       167    2       43.677500000000       1.008679298600      10.412146771200
       168    2       47.171700000000       7.060779298600      10.412146771200
       169    1       48.918800000000       0.000000000000       8.980200000000
       170    2       54.160100000000       1.008679298600      10.412146771200
       171    1       52.413000000000       6.052100000000       8.980200000000
       172    2       52.413000000000       2.017370701400       7.548253228800
       173    2       48.918800000000       2.017370701400       7.548253228800
       174    2       48.918800000000       8.069470701400       7.548253228800
       175    2       54.160100000000       5.043420701400       7.548253228800
       176    2       50.665900000000       7.060779298600      10.412146771200
       177    2       52.413000000000       8.069470701400       7.548253228800
       178    1       54.160100000000       3.026050000000       8.980200000000
       179    2       50.665900000000       5.043420701400       7.548253228800
       180    2       50.665900000000      11.095520701400       7.548253228800
       181    1       50.665900000000       9.078150000000       8.980200000000
       182    2       52.413000000000       4.034729298600      10.412146771200
       183    2       54.160100000000      11.095520701400       7.548253228800
       184    2       48.918800000000      10.086829298600      10.412146771200
       185    1       50.665900000000       3.026050000000       8.980200000000
       186    1       54.160100000000       9.078150000000       8.980200000000
       187    1       52.413000000000       0.000000000000       8.980200000000
       188    1       48.918800000000       6.052100000000       8.980200000000
       189    2       48.918800000000       4.034729298600      10.412146771200
       190    2       52.413000000000      10.086829298600      10.412146771200
       191    2       50.665900000000       1.008679298600      10.412146771200
       192    2       54.160100000000       7.060779298600      10.412146771200
       193    1       55.907200000000       0.000000000000       8.980200000000
       194    2       61.148500000000       1.008679298600      10.412146771200
       195    1       59.401400000000       6.052100000000       8.980200000000
       196    2       59.401400000000       2.017370701400       7.548253228800
       197    2       55.907200000000       2.017370701400       7.548253228800
       198    2       55.907200000000       8.069470701400       7.548253228800
       199    2       61.148500000000       5.043420701400       7.548253228800
       200    2       57.654300000000       7.060779298600      10.412146771200
       201    2       59.401400000000       8.069470701400       7.548253228800
       202    1       61.148500000000       3.026050000000       8.980200000000
       203    2       57.654300000000       5.043420701400       7.548253228800
       204    2       57.654300000000      11.095520701400       7.548253228800
       205    1       57.654300000000       9.078150000000       8.980200000000
       206    2       59.401400000000       4.034729298600      10.412146771200
       207    2       61.148500000000      11.095520701400       7.548253228800
       208    2       55.907200000000      10.086829298600      10.412146771200
       209    1       57.654300000000       3.026050000000       8.980200000000
       210    1       61.148500000000       9.078150000000       8.980200000000
       211    1       59.401400000000       0.000000000000       8.980200000000
       212    1       55.907200000000       6.052100000000       8.980200000000
       213    2       55.907200000000       4.034729298600      10.412146771200
       214    2       59.401400000000      10.086829298600      10.412146771200
       215    2       57.654300000000       1.008679298600      10.412146771200
       216    2       61.148500000000       7.060779298600      10.412146771200
       217    1       62.895600000000       0.000000000000       8.980200000000
       218    2       68.136900000000       1.008679298600      10.412146771200
       219    1       66.389800000000       6.052100000000       8.980200000000
       220    2       66.389800000000       2.017370701400       7.548253228800
       221    2       62.895600000000       2.017370701400       7.548253228800
       222    2       62.895600000000       8.069470701400       7.548253228800
       223    2       68.136900000000       5.043420701400       7.548253228800
       224    2       64.642700000000       7.060779298600      10.412146771200
       225    2       66.389800000000       8.069470701400       7.548253228800
       226    1       68.136900000000       3.026050000000       8.980200000000
       227    2       64.642700000000       5.043420701400       7.548253228800
       228    2       64.642700000000      11.095520701400       7.548253228800
       229    1       64.642700000000       9.078150000000       8.980200000000
       230    2       66.389800000000       4.034729298600      10.412146771200
       231    2       68.136900000000      11.095520701400       7.548253228800
       232    2       62.895600000000      10.086829298600      10.412146771200
       233    1       64.642700000000       3.026050000000       8.980200000000
       234    1       68.136900000000       9.078150000000       8.980200000000
       235    1       66.389800000000       0.000000000000       8.980200000000
       236    1       62.895600000000       6.052100000000       8.980200000000
       237    2       62.895600000000       4.034729298600      10.412146771200
       238    2       66.389800000000      10.086829298600      10.412146771200
       239    2       64.642700000000       1.008679298600      10.412146771200
       240    2       68.136900000000       7.060779298600      10.412146771200
       241    1       69.884000000000       0.000000000000       8.980200000000
       242    2       75.125300000000       1.008679298600      10.412146771200
       243    1       73.378200000000       6.052100000000       8.980200000000
       244    2       73.378200000000       2.017370701400       7.548253228800
       245    2       69.884000000000       2.017370701400       7.548253228800
       246    2       69.884000000000       8.069470701400       7.548253228800
       247    2       75.125300000000       5.043420701400       7.548253228800
       248    2       71.631100000000       7.060779298600      10.412146771200
       249    2       73.378200000000       8.069470701400       7.548253228800
       250    1       75.125300000000       3.026050000000       8.980200000000
       251    2       71.631100000000       5.043420701400       7.548253228800
       252    2       71.631100000000      11.095520701400       7.548253228800
       253    1       71.631100000000       9.078150000000       8.980200000000
       254    2       73.378200000000       4.034729298600      10.412146771200
       255    2       75.125300000000      11.095520701400       7.548253228800
       256    2       69.884000000000      10.086829298600      10.412146771200
       257    1       71.631100000000       3.026050000000       8.980200000000
       258    1       75.125300000000       9.078150000000       8.980200000000
       259    1       73.378200000000       0.000000000000       8.980200000000
       260    1       69.884000000000       6.052100000000       8.980200000000
       261    2       69.884000000000       4.034729298600      10.412146771200
       262    2       73.378200000000      10.086829298600      10.412146771200
       263    2       71.631100000000       1.008679298600      10.412146771200
       264    2       75.125300000000       7.060779298600      10.412146771200
       265    1       76.872400000000       0.000000000000       8.980200000000
       266    2       82.113700000000       1.008679298600      10.412146771200
       267    1       80.366600000000       6.052100000000       8.980200000000
       268    2       80.366600000000       2.017370701400       7.548253228800
       269    2       76.872400000000       2.017370701400       7.548253228800
       270    2       76.872400000000       8.069470701400       7.548253228800
       271    2       82.113700000000       5.043420701400       7.548253228800
       272    2       78.619500000000       7.060779298600      10.412146771200
       273    2       80.366600000000       8.069470701400       7.548253228800
       274    1       82.113700000000       3.026050000000       8.980200000000
       275    2       78.619500000000       5.043420701400       7.548253228800
       276    2       78.619500000000      11.095520701400       7.548253228800
       277    1       78.619500000000       9.078150000000       8.980200000000
       278    2       80.366600000000       4.034729298600      10.412146771200
       279    2       82.113700000000      11.095520701400       7.548253228800
       280    2       76.872400000000      10.086829298600      10.412146771200
       281    1       78.619500000000       3.026050000000       8.980200000000
       282    1       82.113700000000       9.078150000000       8.980200000000
       283    1       80.366600000000       0.000000000000       8.980200000000
       284    1       76.872400000000       6.052100000000       8.980200000000
       285    2       76.872400000000       4.034729298600      10.412146771200
       286    2       80.366600000000      10.086829298600      10.412146771200
       287    2       78.619500000000       1.008679298600      10.412146771200
       288    2       82.113700000000       7.060779298600      10.412146771200
       289    1       83.860800000000       0.000000000000       8.980200000000
       290    2       89.102100000000       1.008679298600      10.412146771200
       291    1       87.355000000000       6.052100000000       8.980200000000
       292    2       87.355000000000       2.017370701400       7.548253228800
       293    2       83.860800000000       2.017370701400       7.548253228800
       294    2       83.860800000000       8.069470701400       7.548253228800
       295    2       89.102100000000       5.043420701400       7.548253228800
       296    2       85.607900000000       7.060779298600      10.412146771200
       297    2       87.355000000000       8.069470701400       7.548253228800
       298    1       89.102100000000       3.026050000000       8.980200000000
       299    2       85.607900000000       5.043420701400       7.548253228800
       300    2       85.607900000000      11.095520701400       7.548253228800
       301    1       85.607900000000       9.078150000000       8.980200000000
       302    2       87.355000000000       4.034729298600      10.412146771200
       303    2       89.102100000000      11.095520701400       7.548253228800
       304    2       83.860800000000      10.086829298600      10.412146771200
       305    1       85.607900000000       3.026050000000       8.980200000000
       306    1       89.102100000000       9.078150000000       8.980200000000
       307    1       87.355000000000       0.000000000000       8.980200000000
       308    1       83.860800000000       6.052100000000       8.980200000000
       309    2       83.860800000000       4.034729298600      10.412146771200
       310    2       87.355000000000      10.086829298600      10.412146771200
       311    2       85.607900000000       1.008679298600      10.412146771200
       312    2       89.102100000000       7.060779298600      10.412146771200
       313    1       90.849200000000       0.000000000000       8.980200000000
       314    2       96.090500000000       1.008679298600      10.412146771200
       315    1       94.343400000000       6.052100000000       8.980200000000
       316    2       94.343400000000       2.017370701400       7.548253228800
       317    2       90.849200000000       2.017370701400       7.548253228800
       318    2       90.849200000000       8.069470701400       7.548253228800
       319    2       96.090500000000       5.043420701400       7.548253228800
       320    2       92.596300000000       7.060779298600      10.412146771200
       321    2       94.343400000000       8.069470701400       7.548253228800
       322    1       96.090500000000       3.026050000000       8.980200000000
       323    2       92.596300000000       5.043420701400       7.548253228800
       324    2       92.596300000000      11.095520701400       7.548253228800
       325    1       92.596300000000       9.078150000000       8.980200000000
       326    2       94.343400000000       4.034729298600      10.412146771200
       327    2       96.090500000000      11.095520701400       7.548253228800
       328    2       90.849200000000      10.086829298600      10.412146771200
       329    1       92.596300000000       3.026050000000       8.980200000000
       330    1       96.090500000000       9.078150000000       8.980200000000
       331    1       94.343400000000       0.000000000000       8.980200000000
       332    1       90.849200000000       6.052100000000       8.980200000000
       333    2       90.849200000000       4.034729298600      10.412146771200
       334    2       94.343400000000      10.086829298600      10.412146771200
       335    2       92.596300000000       1.008679298600      10.412146771200
       336    2       96.090500000000       7.060779298600      10.412146771200
       337    1        0.000000000000      12.104200000000       8.980200000000
       338    2        5.241300000000      13.112879298600      10.412146771200
       339    1        3.494200000000      18.156300000000       8.980200000000
       340    2        3.494200000000      14.121570701400       7.548253228800
       341    2        0.000000000000      14.121570701400       7.548253228800
       342    2        0.000000000000      20.173670701400       7.548253228800
       343    2        5.241300000000      17.147620701400       7.548253228800
       344    2        1.747100000000      19.164979298600      10.412146771200
       345    2        3.494200000000      20.173670701400       7.548253228800
       346    1        5.241300000000      15.130250000000       8.980200000000
       347    2        1.747100000000      17.147620701400       7.548253228800
       348    2        1.747100000000      23.199720701400       7.548253228800
       349    1        1.747100000000      21.182350000000       8.980200000000
       350    2        3.494200000000      16.138929298600      10.412146771200
       351    2        5.241300000000      23.199720701400       7.548253228800
       352    2        0.000000000000      22.191029298600      10.412146771200
       353    1        1.747100000000      15.130250000000       8.980200000000
       354    1        5.241300000000      21.182350000000       8.980200000000
       355    1        3.494200000000      12.104200000000       8.980200000000
       356    1        0.000000000000      18.156300000000       8.980200000000
       357    2        0.000000000000      16.138929298600      10.412146771200
       358    2        3.494200000000      22.191029298600      10.412146771200
       359    2        1.747100000000      13.112879298600      10.412146771200
       360    2        5.241300000000      19.164979298600      10.412146771200
       361    1        6.988400000000      12.104200000000       8.980200000000
       362    2       12.229700000000      13.112879298600      10.412146771200
       363    1       10.482600000000      18.156300000000       8.980200000000
       364    2       10.482600000000      14.121570701400       7.548253228800
       365    2        6.988400000000      14.121570701400       7.548253228800
       366    2        6.988400000000      20.173670701400       7.548253228800
       367    2       12.229700000000      17.147620701400       7.548253228800
       368    2        8.735500000000      19.164979298600      10.412146771200
       369    2       10.482600000000      20.173670701400       7.548253228800
       370    1       12.229700000000      15.130250000000       8.980200000000