 # Mn8 S16
  
        3240  atoms
           2  atom types
 
      0.000000000000     100.500000000000  xlo xhi
      0.000000000000     104.442300000000  ylo yhi
      0.000000000000      17.775200000000  zlo zhi
 
Masses
 
            1   54.93804500             # Mn
            2   32.06000000             # S
 
Atoms # atomic
 
         1    1        0.000000000000      11.604700000000       8.887600000000
         2    1        3.350000000000       5.802350000000       8.887600000000
         3    2        5.025000000000       4.835295534900       7.566849314400
         4    1        5.025000000000       2.901175000000       8.887600000000
         5    2        1.675000000000      10.637645534900       7.566849314400
         6    1        1.675000000000       8.703525000000       8.887600000000
         7    2        5.025000000000       0.967054465100      10.208350685600
         8    2        6.700000000000       3.868229465100      10.208350685600
         9    2        3.350000000000       3.868229465100      10.208350685600
        10    2        1.675000000000       6.769404465100      10.208350685600
        11    2        3.350000000000       9.670579465100      10.208350685600
        12    2        6.700000000000       9.670579465100      10.208350685600
        13    1        3.350000000000      11.604700000000       8.887600000000
        14    2        3.350000000000       1.934120534900       7.566849314400
        15    2        6.700000000000       1.934120534900       7.566849314400
        16    1        1.675000000000       2.901175000000       8.887600000000
        17    1        6.700000000000       5.802350000000       8.887600000000
        18    2        0.000000000000       7.736470534900       7.566849314400
        19    2        3.350000000000       7.736470534900       7.566849314400
        20    1        5.025000000000       8.703525000000       8.887600000000
        21    2        1.675000000000       4.835295534900       7.566849314400
        22    2        5.025000000000      10.637645534900       7.566849314400
        23    2        1.675000000000       0.967054465100      10.208350685600
        24    2        5.025000000000       6.769404465100      10.208350685600
        25    1        6.700000000000      11.604700000000       8.887600000000
        26    1       10.050000000000       5.802350000000       8.887600000000
        27    2       11.725000000000       4.835295534900       7.566849314400
        28    1       11.725000000000       2.901175000000       8.887600000000
        29    2        8.375000000000      10.637645534900       7.566849314400
        30    1        8.375000000000       8.703525000000       8.887600000000
        31    2       11.725000000000       0.967054465100      10.208350685600
        32    2       13.400000000000       3.868229465100      10.208350685600
        33    2       10.050000000000       3.868229465100      10.208350685600
        34    2        8.375000000000       6.769404465100      10.208350685600
        35    2       10.050000000000       9.670579465100      10.208350685600
        36    2       13.400000000000       9.670579465100      10.208350685600
        37    1       10.050000000000      11.604700000000       8.887600000000
        38    2       10.050000000000       1.934120534900       7.566849314400
        39    2       13.400000000000       1.934120534900       7.566849314400
        40    1        8.375000000000       2.901175000000       8.887600000000
        41    1       13.400000000000       5.802350000000       8.887600000000
        42    2        6.700000000000       7.736470534900       7.566849314400
        43    2       10.050000000000       7.736470534900       7.566849314400
        44    1       11.725000000000       8.703525000000       8.887600000000
        45    2        8.375000000000       4.835295534900       7.566849314400
        46    2       11.725000000000      10.637645534900       7.566849314400
        47    2        8.375000000000       0.967054465100      10.208350685600
        48    2       11.725000000000       6.769404465100      10.208350685600
        49    1       13.400000000000      11.604700000000       8.887600000000
        50    1       16.750000000000       5.802350000000       8.887600000000
        51    2       18.425000000000       4.835295534900       7.566849314400
        52    1       18.425000000000       2.901175000000       8.887600000000
        53    2       15.075000000000      10.637645534900       7.566849314400
        54    1       15.075000000000       8.703525000000       8.887600000000
        55    2       18.425000000000       0.967054465100      10.208350685600
        56    2       20.100000000000       3.868229465100      10.208350685600
        57    2       16.750000000000       3.868229465100      10.208350685600
        58    2       15.075000000000       6.769404465100      10.208350685600
        59    2       16.750000000000       9.670579465100      10.208350685600
        60    2       20.100000000000       9.670579465100      10.208350685600
        61    1       16.750000000000      11.604700000000       8.887600000000
        62    2       16.750000000000       1.934120534900       7.566849314400
        63    2       20.100000000000       1.934120534900       7.566849314400
        64    1       15.075000000000       2.901175000000       8.887600000000
        65    1       20.100000000000       5.802350000000       8.887600000000
        66    2       13.400000000000       7.736470534900       7.566849314400
        67    2       16.750000000000       7.736470534900       7.566849314400
        68    1       18.425000000000       8.703525000000       8.887600000000
        69    2       15.075000000000       4.835295534900       7.566849314400
        70    2       18.425000000000      10.637645534900       7.566849314400
        71    2       15.075000000000       0.967054465100      10.208350685600
        72    2       18.425000000000       6.769404465100      10.208350685600
        73    1       20.100000000000      11.604700000000       8.887600000000
        74    1       23.450000000000       5.802350000000       8.887600000000
        75    2       25.125000000000       4.835295534900       7.566849314400
        76    1       25.125000000000       2.901175000000       8.887600000000
        77    2       21.775000000000      10.637645534900       7.566849314400
        78    1       21.775000000000       8.703525000000       8.887600000000
        79    2       25.125000000000       0.967054465100      10.208350685600
        80    2       26.800000000000       3.868229465100      10.208350685600
        81    2       23.450000000000       3.868229465100      10.208350685600
        82    2       21.775000000000       6.769404465100      10.208350685600
        83    2       23.450000000000       9.670579465100      10.208350685600
        84    2       26.800000000000       9.670579465100      10.208350685600
        85    1       23.450000000000      11.604700000000       8.887600000000
        86    2       23.450000000000       1.934120534900       7.566849314400
        87    2       26.800000000000       1.934120534900       7.566849314400
        88    1       21.775000000000       2.901175000000       8.887600000000
        89    1       26.800000000000       5.802350000000       8.887600000000
        90    2       20.100000000000       7.736470534900       7.566849314400
        91    2       23.450000000000       7.736470534900       7.566849314400
        92    1       25.125000000000       8.703525000000       8.887600000000
        93    2       21.775000000000       4.835295534900       7.566849314400
        94    2       25.125000000000      10.637645534900       7.566849314400
        95    2       21.775000000000       0.967054465100      10.208350685600
        96    2       25.125000000000       6.769404465100      10.208350685600
        97    1       26.800000000000      11.604700000000       8.887600000000
        98    1       30.150000000000       5.802350000000       8.887600000000
        99    2       31.825000000000       4.835295534900       7.566849314400
       100    1       31.825000000000       2.901175000000       8.887600000000
       101    2       28.475000000000      10.637645534900       7.566849314400
       102    1       28.475000000000       8.703525000000       8.887600000000
       103    2       31.825000000000       0.967054465100      10.208350685600
       104    2       33.500000000000       3.868229465100      10.208350685600
       105    2       30.150000000000       3.868229465100      10.208350685600
       106    2       28.475000000000       6.769404465100      10.208350685600
       107    2       30.150000000000       9.670579465100      10.208350685600
       108    2       33.500000000000       9.670579465100      10.208350685600
       109    1       30.150000000000      11.604700000000       8.887600000000
       110    2       30.150000000000       1.934120534900       7.566849314400
       111    2       33.500000000000       1.934120534900       7.566849314400
       112    1       28.475000000000       2.901175000000       8.887600000000
       113    1       33.500000000000       5.802350000000       8.887600000000
       114    2       26.800000000000       7.736470534900       7.566849314400
       115    2       30.150000000000       7.736470534900       7.566849314400
       116    1       31.825000000000       8.703525000000       8.887600000000
       117    2       28.475000000000       4.835295534900       7.566849314400
       118    2       31.825000000000      10.637645534900       7.566849314400
       119    2       28.475000000000       0.967054465100      10.208350685600
       120    2       31.825000000000       6.769404465100      10.208350685600
       121    1       33.500000000000      11.604700000000       8.887600000000
       122    1       36.850000000000       5.802350000000       8.887600000000
       123    2       38.525000000000       4.835295534900       7.566849314400
       124    1       38.525000000000       2.901175000000       8.887600000000
       125    2       35.175000000000      10.637645534900       7.566849314400
       126    1       35.175000000000       8.703525000000       8.887600000000
       127    2       38.525000000000       0.967054465100      10.208350685600
       128    2       40.200000000000       3.868229465100      10.208350685600
       129    2       36.850000000000       3.868229465100      10.208350685600
       130    2       35.175000000000       6.769404465100      10.208350685600
       131    2       36.850000000000       9.670579465100      10.208350685600
       132    2       40.200000000000       9.670579465100      10.208350685600
       133    1       36.850000000000      11.604700000000       8.887600000000
       134    2       36.850000000000       1.934120534900       7.566849314400
       135    2       40.200000000000       1.934120534900       7.566849314400
       136    1       35.175000000000       2.901175000000       8.887600000000
       137    1       40.200000000000       5.802350000000       8.887600000000
       138    2       33.500000000000       7.736470534900       7.566849314400
       139    2       36.850000000000       7.736470534900       7.566849314400
       140    1       38.525000000000       8.703525000000       8.887600000000
       141    2       35.175000000000       4.835295534900       7.566849314400
       142    2       38.525000000000      10.637645534900       7.566849314400
       143    2       35.175000000000       0.967054465100      10.208350685600
       144    2       38.525000000000       6.769404465100      10.208350685600
       145    1       40.200000000000      11.604700000000       8.887600000000
       146    1       43.550000000000       5.802350000000       8.887600000000
       147    2       45.225000000000       4.835295534900       7.566849314400
       148    1       45.225000000000       2.901175000000       8.887600000000
       149    2       41.875000000000      10.637645534900       7.566849314400
       150    1       41.875000000000       8.703525000000       8.887600000000
       151    2       45.225000000000       0.967054465100      10.208350685600
       152    2       46.900000000000       3.868229465100      10.208350685600
       153    2       43.550000000000       3.868229465100      10.208350685600
       154    2       41.875000000000       6.769404465100      10.208350685600
       155    2       43.550000000000       9.670579465100      10.208350685600
       156    2       46.900000000000       9.670579465100      10.208350685600
       157    1       43.550000000000      11.604700000000       8.887600000000
       158    2       43.550000000000       1.934120534900       7.566849314400
       159    2       46.900000000000       1.934120534900       7.566849314400
       160    1       41.875000000000       2.901175000000       8.887600000000
       161    1       46.900000000000       5.802350000000       8.887600000000
       162    2       40.200000000000       7.736470534900       7.566849314400
       163    2       43.550000000000       7.736470534900       7.566849314400
       164    1       45.225000000000       8.703525000000       8.887600000000
       165    2       41.875000000000       4.835295534900       7.566849314400
       166    2       45.225000000000      10.637645534900       7.566849314400
       167    2       41.875000000000       0.967054465100      10.208350685600
       168    2       45.225000000000       6.769404465100      10.208350685600
       169    1       46.900000000000      11.604700000000       8.887600000000
       170    1       50.250000000000       5.802350000000       8.887600000000
       171    2       51.925000000000       4.835295534900       7.566849314400
       172    1       51.925000000000       2.901175000000       8.887600000000
       173    2       48.575000000000      10.637645534900       7.566849314400
       174    1       48.575000000000       8.703525000000       8.887600000000
       175    2       51.925000000000       0.967054465100      10.208350685600
       176    2       53.600000000000       3.868229465100      10.208350685600
       177    2       50.250000000000       3.868229465100      10.208350685600
       178    2       48.575000000000       6.769404465100      10.208350685600
       179    2       50.250000000000       9.670579465100      10.208350685600
       180    2       53.600000000000       9.670579465100      10.208350685600
       181    1       50.250000000000      11.604700000000       8.887600000000
       182    2       50.250000000000       1.934120534900       7.566849314400
       183    2       53.600000000000       1.934120534900       7.566849314400
       184    1       48.575000000000       2.901175000000       8.887600000000
       185    1       53.600000000000       5.802350000000       8.887600000000
       186    2       46.900000000000       7.736470534900       7.566849314400
       187    2       50.250000000000       7.736470534900       7.566849314400
       188    1       51.925000000000       8.703525000000       8.887600000000
       189    2       48.575000000000       4.835295534900       7.566849314400
       190    2       51.925000000000      10.637645534900       7.566849314400
       191    2       48.575000000000       0.967054465100      10.208350685600
       192    2       51.925000000000       6.769404465100      10.208350685600
       193    1       53.600000000000      11.604700000000       8.887600000000
       194    1       56.950000000000       5.802350000000       8.887600000000
       195    2       58.625000000000       4.835295534900       7.566849314400
       196    1       58.625000000000       2.901175000000       8.887600000000
       197    2       55.275000000000      10.637645534900       7.566849314400
       198    1       55.275000000000       8.703525000000       8.887600000000
       199    2       58.625000000000       0.967054465100      10.208350685600
       200    2       60.300000000000       3.868229465100      10.208350685600
       201    2       56.950000000000       3.868229465100      10.208350685600
       202    2       55.275000000000       6.769404465100      10.208350685600
       203    2       56.950000000000       9.670579465100      10.208350685600
       204    2       60.300000000000       9.670579465100      10.208350685600
       205    1       56.950000000000      11.604700000000       8.887600000000
       206    2       56.950000000000       1.934120534900       7.566849314400
       207    2       60.300000000000       1.934120534900       7.566849314400
       208    1       55.275000000000       2.901175000000       8.887600000000
       209    1       60.300000000000       5.802350000000       8.887600000000
       210    2       53.600000000000       7.736470534900       7.566849314400
       211    2       56.950000000000       7.736470534900       7.566849314400
       212    1       58.625000000000       8.703525000000       8.887600000000
       213    2       55.275000000000       4.835295534900       7.566849314400
       214    2       58.625000000000      10.637645534900       7.566849314400
       215    2       55.275000000000       0.967054465100      10.208350685600
       216    2       58.625000000000       6.769404465100      10.208350685600
       217    1       60.300000000000      11.604700000000       8.887600000000
       218    1       63.650000000000       5.802350000000       8.887600000000
       219    2       65.325000000000       4.835295534900       7.566849314400
       220    1       65.325000000000       2.901175000000       8.887600000000
       221    2       61.975000000000      10.637645534900       7.566849314400
       222    1       61.975000000000       8.703525000000       8.887600000000
       223    2       65.325000000000       0.967054465100      10.208350685600
       224    2       67.000000000000       3.868229465100      10.208350685600
       225    2       63.650000000000       3.868229465100      10.208350685600
       226    2       61.975000000000       6.769404465100      10.208350685600
       227    2       63.650000000000       9.670579465100      10.208350685600
       228    2       67.000000000000       9.670579465100      10.208350685600
       229    1       63.650000000000      11.604700000000       8.887600000000
       230    2       63.650000000000       1.934120534900       7.566849314400
       231    2       67.000000000000       1.934120534900       7.566849314400
       232    1       61.975000000000       2.901175000000       8.887600000000
       233    1       67.000000000000       5.802350000000       8.887600000000
       234    2       60.300000000000       7.736470534900       7.566849314400
       235    2       63.650000000000       7.736470534900       7.566849314400
       236    1       65.325000000000       8.703525000000       8.887600000000
       237    2       61.975000000000       4.835295534900       7.566849314400
       238    2       65.325000000000      10.637645534900       7.566849314400
       239    2       61.975000000000       0.967054465100      10.208350685600
       240    2       65.325000000000       6.769404465100      10.208350685600
       241    1       67.000000000000      11.604700000000       8.887600000000
       242    1       70.350000000000       5.802350000000       8.887600000000
       243    2       72.025000000000       4.835295534900       7.566849314400
       244    1       72.025000000000       2.901175000000       8.887600000000
       245    2       68.675000000000      10.637645534900       7.566849314400
       246    1       68.675000000000       8.703525000000       8.887600000000
       247    2       72.025000000000       0.967054465100      10.208350685600
       248    2       73.700000000000       3.868229465100      10.208350685600
       249    2       70.350000000000       3.868229465100      10.208350685600
       250    2       68.675000000000       6.769404465100      10.208350685600
       251    2       70.350000000000       9.670579465100      10.208350685600
       252    2       73.700000000000       9.670579465100      10.208350685600
       253    1       70.350000000000      11.604700000000       8.887600000000
       254    2       70.350000000000       1.934120534900       7.566849314400
       255    2       73.700000000000       1.934120534900       7.566849314400
       256    1       68.675000000000       2.901175000000       8.887600000000
       257    1       73.700000000000       5.802350000000       8.887600000000
       258    2       67.000000000000       7.736470534900       7.566849314400
       259    2       70.350000000000       7.736470534900       7.566849314400
       260    1       72.025000000000       8.703525000000       8.887600000000
       261    2       68.675000000000       4.835295534900       7.566849314400
       262    2       72.025000000000      10.637645534900       7.566849314400
       263    2       68.675000000000       0.967054465100      10.208350685600
       264    2       72.025000000000       6.769404465100      10.208350685600
       265    1       73.700000000000      11.604700000000       8.887600000000
       266    1       77.050000000000       5.802350000000       8.887600000000
       267    2       78.725000000000       4.835295534900       7.566849314400
       268    1       78.725000000000       2.901175000000       8.887600000000
       269    2       75.375000000000      10.637645534900       7.566849314400
       270    1       75.375000000000       8.703525000000       8.887600000000
       271    2       78.725000000000       0.967054465100      10.208350685600
       272    2       80.400000000000       3.868229465100      10.208350685600
       273    2       77.050000000000       3.868229465100      10.208350685600
       274    2       75.375000000000       6.769404465100      10.208350685600
       275    2       77.050000000000       9.670579465100      10.208350685600
       276    2       80.400000000000       9.670579465100      10.208350685600
       277    1       77.050000000000      11.604700000000       8.887600000000
       278    2       77.050000000000       1.934120534900       7.566849314400
       279    2       80.400000000000       1.934120534900       7.566849314400
       280    1       75.375000000000       2.901175000000       8.887600000000
       281    1       80.400000000000       5.802350000000       8.887600000000
       282    2       73.700000000000       7.736470534900       7.566849314400
       283    2       77.050000000000       7.736470534900       7.566849314400
       284    1       78.725000000000       8.703525000000       8.887600000000
       285    2       75.375000000000       4.835295534900       7.566849314400
       286    2       78.725000000000      10.637645534900       7.566849314400
       287    2       75.375000000000       0.967054465100      10.208350685600
       288    2       78.725000000000       6.769404465100      10.208350685600
       289    1       80.400000000000      11.604700000000       8.887600000000
       290    1       83.750000000000       5.802350000000       8.887600000000
       291    2       85.425000000000       4.835295534900       7.566849314400
       292    1       85.425000000000       2.901175000000       8.887600000000
       293    2       82.075000000000      10.637645534900       7.566849314400
       294    1       82.075000000000       8.703525000000       8.887600000000
       295    2       85.425000000000       0.967054465100      10.208350685600
       296    2       87.100000000000       3.868229465100      10.208350685600
       297    2       83.750000000000       3.868229465100      10.208350685600
       298    2       82.075000000000       6.769404465100      10.208350685600
       299    2       83.750000000000       9.670579465100      10.208350685600
       300    2       87.100000000000       9.670579465100      10.208350685600
       301    1       83.750000000000      11.604700000000       8.887600000000
       302    2       83.750000000000       1.934120534900       7.566849314400
       303    2       87.100000000000       1.934120534900       7.566849314400
       304    1       82.075000000000       2.901175000000       8.887600000000
       305    1       87.100000000000       5.802350000000       8.887600000000
       306    2       80.400000000000       7.736470534900       7.566849314400
       307    2       83.750000000000       7.736470534900       7.566849314400
       308    1       85.425000000000       8.703525000000       8.887600000000
       309    2       82.075000000000       4.835295534900       7.566849314400
       310    2       85.425000000000      10.637645534900       7.566849314400
       311    2       82.075000000000       0.967054465100      10.208350685600
       312    2       85.425000000000       6.769404465100      10.208350685600
       313    1       87.100000000000      11.604700000000       8.887600000000
       314    1       90.450000000000       5.802350000000       8.887600000000
       315    2       92.125000000000       4.835295534900       7.566849314400
       316    1       92.125000000000       2.901175000000       8.887600000000
       317    2       88.775000000000      10.637645534900       7.566849314400
       318    1       88.775000000000       8.703525000000       8.887600000000
       319    2       92.125000000000       0.967054465100      10.208350685600
       320    2       93.800000000000       3.868229465100      10.208350685600
       321    2       90.450000000000       3.868229465100      10.208350685600
       322    2       88.775000000000       6.769404465100      10.208350685600
       323    2       90.450000000000       9.670579465100      10.208350685600
       324    2       93.800000000000       9.670579465100      10.208350685600
       325    1       90.450000000000      11.604700000000       8.887600000000
       326    2       90.450000000000       1.934120534900       7.566849314400
       327    2       93.800000000000       1.934120534900       7.566849314400
       328    1       88.775000000000       2.901175000000       8.887600000000
       329    1       93.800000000000       5.802350000000       8.887600000000
       330    2       87.100000000000       7.736470534900       7.566849314400
       331    2       90.450000000000       7.736470534900       7.566849314400
       332    1       92.125000000000       8.703525000000       8.887600000000
       333    2       88.775000000000       4.835295534900       7.566849314400
       334    2       92.125000000000      10.637645534900       7.566849314400
       335    2       88.775000000000       0.967054465100      10.208350685600
       336    2       92.125000000000       6.769404465100      10.208350685600
       337    1       93.800000000000      11.604700000000       8.887600000000
       338    1       97.150000000000       5.802350000000       8.887600000000
       339    2       98.825000000000       4.835295534900       7.566849314400
       340    1       98.825000000000       2.901175000000       8.887600000000
       341    2       95.475000000000      10.637645534900       7.566849314400
       342    1       95.475000000000       8.703525000000       8.887600000000
       343    2       98.825000000000       0.967054465100      10.208350685600
       344    2      100.500000000000       3.868229465100      10.208350685600
       345    2       97.150000000000       3.868229465100      10.208350685600
       346    2       95.475000000000       6.769404465100      10.208350685600
       347    2       97.150000000000       9.670579465100      10.208350685600
       348    2      100.500000000000       9.670579465100      10.208350685600
       349    1       97.150000000000      11.604700000000       8.887600000000
       350    2       97.150000000000       1.934120534900       7.566849314400
       351    2      100.500000000000       1.934120534900       7.566849314400
       352    1       95.475000000000       2.901175000000       8.887600000000
       353    1      100.500000000000       5.802350000000       8.887600000000
       354    2       93.800000000000       7.736470534900       7.566849314400
       355    2       97.150000000000       7.736470534900       7.566849314400
       356    1       98.825000000000       8.703525000000       8.887600000000
       357    2       95.475000000000       4.835295534900       7.566849314400
       358    2       98.825000000000      10.637645534900       7.566849314400
       359    2       95.475000000000       0.967054465100      10.208350685600
       360    2       98.825000000000       6.769404465100      10.208350685600
       361    1        0.000000000000      23.209400000000       8.887600000000
       362    1        3.350000000000      17.407050000000       8.887600000000
       363    2        5.025000000000      16.439995534900       7.566849314400
       364    1        5.025000000000      14.505875000000       8.887600000000
       365    2        1.675000000000      22.242345534900       7.566849314400
       366    1        1.675000000000      20.308225000000       8.887600000000
       367    2        5.025000000000      12.571754465100      10.208350685600
       368    2        6.700000000000      15.472929465100      10.208350685600
       369    2        3.350000000000      15.472929465100      10.208350685600
       370    2        1.675000000000      18.374104465100      10.208350685600