 # Mn8 Te16
  
        2496  atoms
           2  atom types
 
      0.000000000000      97.119100000000  xlo xhi
      0.000000000000     103.517600000000  ylo yhi
      0.000000000000      18.184800000000  zlo zhi
 
Masses
 
            1   54.93804500             # Mn
            2   127.60000000            # Te
 
Atoms # atomic
 
         1    1        0.000000000000       0.000000000000       9.092400000000
         2    1        3.735350000000       6.469850000000       9.092400000000
         3    2        1.867675000000       1.078304020100      10.659984314400
         4    1        1.867675000000       3.234925000000       9.092400000000
         5    2        5.603025000000       7.548154020100      10.659984314400
         6    1        5.603025000000       9.704775000000       9.092400000000
         7    2        3.735350000000       2.156620979900       7.524815685600
         8    2        7.470700000000       8.626470979900       7.524815685600
         9    2        5.603025000000       1.078304020100      10.659984314400
        10    2        1.867675000000       7.548154020100      10.659984314400
        11    1        5.603025000000       3.234925000000       9.092400000000
        12    1        1.867675000000       9.704775000000       9.092400000000
        13    2        5.603025000000       5.391545979900       7.524815685600
        14    2        1.867675000000      11.861395979900       7.524815685600
        15    2        0.000000000000       4.313229020100      10.659984314400
        16    2        3.735350000000      10.783079020100      10.659984314400
        17    1        3.735350000000       0.000000000000       9.092400000000
        18    1        7.470700000000       6.469850000000       9.092400000000
        19    2        3.735350000000       4.313229020100      10.659984314400
        20    2        7.470700000000      10.783079020100      10.659984314400
        21    2        1.867675000000       5.391545979900       7.524815685600
        22    2        5.603025000000      11.861395979900       7.524815685600
        23    2        0.000000000000       2.156620979900       7.524815685600
        24    2        3.735350000000       8.626470979900       7.524815685600
        25    1        7.470700000000       0.000000000000       9.092400000000
        26    1       11.206050000000       6.469850000000       9.092400000000
        27    2        9.338375000000       1.078304020100      10.659984314400
        28    1        9.338375000000       3.234925000000       9.092400000000
        29    2       13.073725000000       7.548154020100      10.659984314400
        30    1       13.073725000000       9.704775000000       9.092400000000
        31    2       11.206050000000       2.156620979900       7.524815685600
        32    2       14.941400000000       8.626470979900       7.524815685600
        33    2       13.073725000000       1.078304020100      10.659984314400
        34    2        9.338375000000       7.548154020100      10.659984314400
        35    1       13.073725000000       3.234925000000       9.092400000000
        36    1        9.338375000000       9.704775000000       9.092400000000
        37    2       13.073725000000       5.391545979900       7.524815685600
        38    2        9.338375000000      11.861395979900       7.524815685600
        39    2        7.470700000000       4.313229020100      10.659984314400
        40    2       11.206050000000      10.783079020100      10.659984314400
        41    1       11.206050000000       0.000000000000       9.092400000000
        42    1       14.941400000000       6.469850000000       9.092400000000
        43    2       11.206050000000       4.313229020100      10.659984314400
        44    2       14.941400000000      10.783079020100      10.659984314400
        45    2        9.338375000000       5.391545979900       7.524815685600
        46    2       13.073725000000      11.861395979900       7.524815685600
        47    2        7.470700000000       2.156620979900       7.524815685600
        48    2       11.206050000000       8.626470979900       7.524815685600
        49    1       14.941400000000       0.000000000000       9.092400000000
        50    1       18.676750000000       6.469850000000       9.092400000000
        51    2       16.809075000000       1.078304020100      10.659984314400
        52    1       16.809075000000       3.234925000000       9.092400000000
        53    2       20.544425000000       7.548154020100      10.659984314400
        54    1       20.544425000000       9.704775000000       9.092400000000
        55    2       18.676750000000       2.156620979900       7.524815685600
        56    2       22.412100000000       8.626470979900       7.524815685600
        57    2       20.544425000000       1.078304020100      10.659984314400
        58    2       16.809075000000       7.548154020100      10.659984314400
        59    1       20.544425000000       3.234925000000       9.092400000000
        60    1       16.809075000000       9.704775000000       9.092400000000
        61    2       20.544425000000       5.391545979900       7.524815685600
        62    2       16.809075000000      11.861395979900       7.524815685600
        63    2       14.941400000000       4.313229020100      10.659984314400
        64    2       18.676750000000      10.783079020100      10.659984314400
        65    1       18.676750000000       0.000000000000       9.092400000000
        66    1       22.412100000000       6.469850000000       9.092400000000
        67    2       18.676750000000       4.313229020100      10.659984314400
        68    2       22.412100000000      10.783079020100      10.659984314400
        69    2       16.809075000000       5.391545979900       7.524815685600
        70    2       20.544425000000      11.861395979900       7.524815685600
        71    2       14.941400000000       2.156620979900       7.524815685600
        72    2       18.676750000000       8.626470979900       7.524815685600
        73    1       22.412100000000       0.000000000000       9.092400000000
        74    1       26.147450000000       6.469850000000       9.092400000000
        75    2       24.279775000000       1.078304020100      10.659984314400
        76    1       24.279775000000       3.234925000000       9.092400000000
        77    2       28.015125000000       7.548154020100      10.659984314400
        78    1       28.015125000000       9.704775000000       9.092400000000
        79    2       26.147450000000       2.156620979900       7.524815685600
        80    2       29.882800000000       8.626470979900       7.524815685600
        81    2       28.015125000000       1.078304020100      10.659984314400
        82    2       24.279775000000       7.548154020100      10.659984314400
        83    1       28.015125000000       3.234925000000       9.092400000000
        84    1       24.279775000000       9.704775000000       9.092400000000
        85    2       28.015125000000       5.391545979900       7.524815685600
        86    2       24.279775000000      11.861395979900       7.524815685600
        87    2       22.412100000000       4.313229020100      10.659984314400
        88    2       26.147450000000      10.783079020100      10.659984314400
        89    1       26.147450000000       0.000000000000       9.092400000000
        90    1       29.882800000000       6.469850000000       9.092400000000
        91    2       26.147450000000       4.313229020100      10.659984314400
        92    2       29.882800000000      10.783079020100      10.659984314400
        93    2       24.279775000000       5.391545979900       7.524815685600
        94    2       28.015125000000      11.861395979900       7.524815685600
        95    2       22.412100000000       2.156620979900       7.524815685600
        96    2       26.147450000000       8.626470979900       7.524815685600
        97    1       29.882800000000       0.000000000000       9.092400000000
        98    1       33.618150000000       6.469850000000       9.092400000000
        99    2       31.750475000000       1.078304020100      10.659984314400
       100    1       31.750475000000       3.234925000000       9.092400000000
       101    2       35.485825000000       7.548154020100      10.659984314400
       102    1       35.485825000000       9.704775000000       9.092400000000
       103    2       33.618150000000       2.156620979900       7.524815685600
       104    2       37.353500000000       8.626470979900       7.524815685600
       105    2       35.485825000000       1.078304020100      10.659984314400
       106    2       31.750475000000       7.548154020100      10.659984314400
       107    1       35.485825000000       3.234925000000       9.092400000000
       108    1       31.750475000000       9.704775000000       9.092400000000
       109    2       35.485825000000       5.391545979900       7.524815685600
       110    2       31.750475000000      11.861395979900       7.524815685600
       111    2       29.882800000000       4.313229020100      10.659984314400
       112    2       33.618150000000      10.783079020100      10.659984314400
       113    1       33.618150000000       0.000000000000       9.092400000000
       114    1       37.353500000000       6.469850000000       9.092400000000
       115    2       33.618150000000       4.313229020100      10.659984314400
       116    2       37.353500000000      10.783079020100      10.659984314400
       117    2       31.750475000000       5.391545979900       7.524815685600
       118    2       35.485825000000      11.861395979900       7.524815685600
       119    2       29.882800000000       2.156620979900       7.524815685600
       120    2       33.618150000000       8.626470979900       7.524815685600
       121    1       37.353500000000       0.000000000000       9.092400000000
       122    1       41.088850000000       6.469850000000       9.092400000000
       123    2       39.221175000000       1.078304020100      10.659984314400
       124    1       39.221175000000       3.234925000000       9.092400000000
       125    2       42.956525000000       7.548154020100      10.659984314400
       126    1       42.956525000000       9.704775000000       9.092400000000
       127    2       41.088850000000       2.156620979900       7.524815685600
       128    2       44.824200000000       8.626470979900       7.524815685600
       129    2       42.956525000000       1.078304020100      10.659984314400
       130    2       39.221175000000       7.548154020100      10.659984314400
       131    1       42.956525000000       3.234925000000       9.092400000000
       132    1       39.221175000000       9.704775000000       9.092400000000
       133    2       42.956525000000       5.391545979900       7.524815685600
       134    2       39.221175000000      11.861395979900       7.524815685600
       135    2       37.353500000000       4.313229020100      10.659984314400
       136    2       41.088850000000      10.783079020100      10.659984314400
       137    1       41.088850000000       0.000000000000       9.092400000000
       138    1       44.824200000000       6.469850000000       9.092400000000
       139    2       41.088850000000       4.313229020100      10.659984314400
       140    2       44.824200000000      10.783079020100      10.659984314400
       141    2       39.221175000000       5.391545979900       7.524815685600
       142    2       42.956525000000      11.861395979900       7.524815685600
       143    2       37.353500000000       2.156620979900       7.524815685600
       144    2       41.088850000000       8.626470979900       7.524815685600
       145    1       44.824200000000       0.000000000000       9.092400000000
       146    1       48.559550000000       6.469850000000       9.092400000000
       147    2       46.691875000000       1.078304020100      10.659984314400
       148    1       46.691875000000       3.234925000000       9.092400000000
       149    2       50.427225000000       7.548154020100      10.659984314400
       150    1       50.427225000000       9.704775000000       9.092400000000
       151    2       48.559550000000       2.156620979900       7.524815685600
       152    2       52.294900000000       8.626470979900       7.524815685600
       153    2       50.427225000000       1.078304020100      10.659984314400
       154    2       46.691875000000       7.548154020100      10.659984314400
       155    1       50.427225000000       3.234925000000       9.092400000000
       156    1       46.691875000000       9.704775000000       9.092400000000
       157    2       50.427225000000       5.391545979900       7.524815685600
       158    2       46.691875000000      11.861395979900       7.524815685600
       159    2       44.824200000000       4.313229020100      10.659984314400
       160    2       48.559550000000      10.783079020100      10.659984314400
       161    1       48.559550000000       0.000000000000       9.092400000000
       162    1       52.294900000000       6.469850000000       9.092400000000
       163    2       48.559550000000       4.313229020100      10.659984314400
       164    2       52.294900000000      10.783079020100      10.659984314400
       165    2       46.691875000000       5.391545979900       7.524815685600
       166    2       50.427225000000      11.861395979900       7.524815685600
       167    2       44.824200000000       2.156620979900       7.524815685600
       168    2       48.559550000000       8.626470979900       7.524815685600
       169    1       52.294900000000       0.000000000000       9.092400000000
       170    1       56.030250000000       6.469850000000       9.092400000000
       171    2       54.162575000000       1.078304020100      10.659984314400
       172    1       54.162575000000       3.234925000000       9.092400000000
       173    2       57.897925000000       7.548154020100      10.659984314400
       174    1       57.897925000000       9.704775000000       9.092400000000
       175    2       56.030250000000       2.156620979900       7.524815685600
       176    2       59.765600000000       8.626470979900       7.524815685600
       177    2       57.897925000000       1.078304020100      10.659984314400
       178    2       54.162575000000       7.548154020100      10.659984314400
       179    1       57.897925000000       3.234925000000       9.092400000000
       180    1       54.162575000000       9.704775000000       9.092400000000
       181    2       57.897925000000       5.391545979900       7.524815685600
       182    2       54.162575000000      11.861395979900       7.524815685600
       183    2       52.294900000000       4.313229020100      10.659984314400
       184    2       56.030250000000      10.783079020100      10.659984314400
       185    1       56.030250000000       0.000000000000       9.092400000000
       186    1       59.765600000000       6.469850000000       9.092400000000
       187    2       56.030250000000       4.313229020100      10.659984314400
       188    2       59.765600000000      10.783079020100      10.659984314400
       189    2       54.162575000000       5.391545979900       7.524815685600
       190    2       57.897925000000      11.861395979900       7.524815685600
       191    2       52.294900000000       2.156620979900       7.524815685600
       192    2       56.030250000000       8.626470979900       7.524815685600
       193    1       59.765600000000       0.000000000000       9.092400000000
       194    1       63.500950000000       6.469850000000       9.092400000000
       195    2       61.633275000000       1.078304020100      10.659984314400
       196    1       61.633275000000       3.234925000000       9.092400000000
       197    2       65.368625000000       7.548154020100      10.659984314400
       198    1       65.368625000000       9.704775000000       9.092400000000
       199    2       63.500950000000       2.156620979900       7.524815685600
       200    2       67.236300000000       8.626470979900       7.524815685600
       201    2       65.368625000000       1.078304020100      10.659984314400
       202    2       61.633275000000       7.548154020100      10.659984314400
       203    1       65.368625000000       3.234925000000       9.092400000000
       204    1       61.633275000000       9.704775000000       9.092400000000
       205    2       65.368625000000       5.391545979900       7.524815685600
       206    2       61.633275000000      11.861395979900       7.524815685600
       207    2       59.765600000000       4.313229020100      10.659984314400
       208    2       63.500950000000      10.783079020100      10.659984314400
       209    1       63.500950000000       0.000000000000       9.092400000000
       210    1       67.236300000000       6.469850000000       9.092400000000
       211    2       63.500950000000       4.313229020100      10.659984314400
       212    2       67.236300000000      10.783079020100      10.659984314400
       213    2       61.633275000000       5.391545979900       7.524815685600
       214    2       65.368625000000      11.861395979900       7.524815685600
       215    2       59.765600000000       2.156620979900       7.524815685600
       216    2       63.500950000000       8.626470979900       7.524815685600
       217    1       67.236300000000       0.000000000000       9.092400000000
       218    1       70.971650000000       6.469850000000       9.092400000000
       219    2       69.103975000000       1.078304020100      10.659984314400
       220    1       69.103975000000       3.234925000000       9.092400000000
       221    2       72.839325000000       7.548154020100      10.659984314400
       222    1       72.839325000000       9.704775000000       9.092400000000
       223    2       70.971650000000       2.156620979900       7.524815685600
       224    2       74.707000000000       8.626470979900       7.524815685600
       225    2       72.839325000000       1.078304020100      10.659984314400
       226    2       69.103975000000       7.548154020100      10.659984314400
       227    1       72.839325000000       3.234925000000       9.092400000000
       228    1       69.103975000000       9.704775000000       9.092400000000
       229    2       72.839325000000       5.391545979900       7.524815685600
       230    2       69.103975000000      11.861395979900       7.524815685600
       231    2       67.236300000000       4.313229020100      10.659984314400
       232    2       70.971650000000      10.783079020100      10.659984314400
       233    1       70.971650000000       0.000000000000       9.092400000000
       234    1       74.707000000000       6.469850000000       9.092400000000
       235    2       70.971650000000       4.313229020100      10.659984314400
       236    2       74.707000000000      10.783079020100      10.659984314400
       237    2       69.103975000000       5.391545979900       7.524815685600
       238    2       72.839325000000      11.861395979900       7.524815685600
       239    2       67.236300000000       2.156620979900       7.524815685600
       240    2       70.971650000000       8.626470979900       7.524815685600
       241    1       74.707000000000       0.000000000000       9.092400000000
       242    1       78.442350000000       6.469850000000       9.092400000000
       243    2       76.574675000000       1.078304020100      10.659984314400
       244    1       76.574675000000       3.234925000000       9.092400000000
       245    2       80.310025000000       7.548154020100      10.659984314400
       246    1       80.310025000000       9.704775000000       9.092400000000
       247    2       78.442350000000       2.156620979900       7.524815685600
       248    2       82.177700000000       8.626470979900       7.524815685600
       249    2       80.310025000000       1.078304020100      10.659984314400
       250    2       76.574675000000       7.548154020100      10.659984314400
       251    1       80.310025000000       3.234925000000       9.092400000000
       252    1       76.574675000000       9.704775000000       9.092400000000
       253    2       80.310025000000       5.391545979900       7.524815685600
       254    2       76.574675000000      11.861395979900       7.524815685600
       255    2       74.707000000000       4.313229020100      10.659984314400
       256    2       78.442350000000      10.783079020100      10.659984314400
       257    1       78.442350000000       0.000000000000       9.092400000000
       258    1       82.177700000000       6.469850000000       9.092400000000
       259    2       78.442350000000       4.313229020100      10.659984314400
       260    2       82.177700000000      10.783079020100      10.659984314400
       261    2       76.574675000000       5.391545979900       7.524815685600
       262    2       80.310025000000      11.861395979900       7.524815685600
       263    2       74.707000000000       2.156620979900       7.524815685600
       264    2       78.442350000000       8.626470979900       7.524815685600
       265    1       82.177700000000       0.000000000000       9.092400000000
       266    1       85.913050000000       6.469850000000       9.092400000000
       267    2       84.045375000000       1.078304020100      10.659984314400
       268    1       84.045375000000       3.234925000000       9.092400000000
       269    2       87.780725000000       7.548154020100      10.659984314400
       270    1       87.780725000000       9.704775000000       9.092400000000
       271    2       85.913050000000       2.156620979900       7.524815685600
       272    2       89.648400000000       8.626470979900       7.524815685600
       273    2       87.780725000000       1.078304020100      10.659984314400
       274    2       84.045375000000       7.548154020100      10.659984314400
       275    1       87.780725000000       3.234925000000       9.092400000000
       276    1       84.045375000000       9.704775000000       9.092400000000
       277    2       87.780725000000       5.391545979900       7.524815685600
       278    2       84.045375000000      11.861395979900       7.524815685600
       279    2       82.177700000000       4.313229020100      10.659984314400
       280    2       85.913050000000      10.783079020100      10.659984314400
       281    1       85.913050000000       0.000000000000       9.092400000000
       282    1       89.648400000000       6.469850000000       9.092400000000
       283    2       85.913050000000       4.313229020100      10.659984314400
       284    2       89.648400000000      10.783079020100      10.659984314400
       285    2       84.045375000000       5.391545979900       7.524815685600
       286    2       87.780725000000      11.861395979900       7.524815685600
       287    2       82.177700000000       2.156620979900       7.524815685600
       288    2       85.913050000000       8.626470979900       7.524815685600
       289    1       89.648400000000       0.000000000000       9.092400000000
       290    1       93.383750000000       6.469850000000       9.092400000000
       291    2       91.516075000000       1.078304020100      10.659984314400
       292    1       91.516075000000       3.234925000000       9.092400000000
       293    2       95.251425000000       7.548154020100      10.659984314400
       294    1       95.251425000000       9.704775000000       9.092400000000
       295    2       93.383750000000       2.156620979900       7.524815685600
       296    2       97.119100000000       8.626470979900       7.524815685600
       297    2       95.251425000000       1.078304020100      10.659984314400
       298    2       91.516075000000       7.548154020100      10.659984314400
       299    1       95.251425000000       3.234925000000       9.092400000000
       300    1       91.516075000000       9.704775000000       9.092400000000
       301    2       95.251425000000       5.391545979900       7.524815685600
       302    2       91.516075000000      11.861395979900       7.524815685600
       303    2       89.648400000000       4.313229020100      10.659984314400
       304    2       93.383750000000      10.783079020100      10.659984314400
       305    1       93.383750000000       0.000000000000       9.092400000000
       306    1       97.119100000000       6.469850000000       9.092400000000
       307    2       93.383750000000       4.313229020100      10.659984314400
       308    2       97.119100000000      10.783079020100      10.659984314400
       309    2       91.516075000000       5.391545979900       7.524815685600
       310    2       95.251425000000      11.861395979900       7.524815685600
       311    2       89.648400000000       2.156620979900       7.524815685600
       312    2       93.383750000000       8.626470979900       7.524815685600
       313    1        0.000000000000      12.939700000000       9.092400000000
       314    1        3.735350000000      19.409550000000       9.092400000000
       315    2        1.867675000000      14.018004020100      10.659984314400
       316    1        1.867675000000      16.174625000000       9.092400000000
       317    2        5.603025000000      20.487854020100      10.659984314400
       318    1        5.603025000000      22.644475000000       9.092400000000
       319    2        3.735350000000      15.096320979900       7.524815685600
       320    2        7.470700000000      21.566170979900       7.524815685600
       321    2        5.603025000000      14.018004020100      10.659984314400
       322    2        1.867675000000      20.487854020100      10.659984314400
       323    1        5.603025000000      16.174625000000       9.092400000000
       324    1        1.867675000000      22.644475000000       9.092400000000
       325    2        5.603025000000      18.331245979900       7.524815685600
       326    2        1.867675000000      24.801095979900       7.524815685600
       327    2        0.000000000000      17.252929020100      10.659984314400
       328    2        3.735350000000      23.722779020100      10.659984314400
       329    1        3.735350000000      12.939700000000       9.092400000000
       330    1        7.470700000000      19.409550000000       9.092400000000
       331    2        3.735350000000      17.252929020100      10.659984314400
       332    2        7.470700000000      23.722779020100      10.659984314400
       333    2        1.867675000000      18.331245979900       7.524815685600
       334    2        5.603025000000      24.801095979900       7.524815685600
       335    2        0.000000000000      15.096320979900       7.524815685600
       336    2        3.735350000000      21.566170979900       7.524815685600
       337    1        7.470700000000      12.939700000000       9.092400000000
       338    1       11.206050000000      19.409550000000       9.092400000000
       339    2        9.338375000000      14.018004020100      10.659984314400
       340    1        9.338375000000      16.174625000000       9.092400000000
       341    2       13.073725000000      20.487854020100      10.659984314400
       342    1       13.073725000000      22.644475000000       9.092400000000
       343    2       11.206050000000      15.096320979900       7.524815685600
       344    2       14.941400000000      21.566170979900       7.524815685600
       345    2       13.073725000000      14.018004020100      10.659984314400
       346    2        9.338375000000      20.487854020100      10.659984314400
       347    1       13.073725000000      16.174625000000       9.092400000000
       348    1        9.338375000000      22.644475000000       9.092400000000
       349    2       13.073725000000      18.331245979900       7.524815685600
       350    2        9.338375000000      24.801095979900       7.524815685600
       351    2        7.470700000000      17.252929020100      10.659984314400
       352    2       11.206050000000      23.722779020100      10.659984314400
       353    1       11.206050000000      12.939700000000       9.092400000000
       354    1       14.941400000000      19.409550000000       9.092400000000
       355    2       11.206050000000      17.252929020100      10.659984314400
       356    2       14.941400000000      23.722779020100      10.659984314400
       357    2        9.338375000000      18.331245979900       7.524815685600
       358    2       13.073725000000      24.801095979900       7.524815685600
       359    2        7.470700000000      15.096320979900       7.524815685600
       360    2       11.206050000000      21.566170979900       7.524815685600
       361    1       14.941400000000      12.939700000000       9.092400000000
       362    1       18.676750000000      19.409550000000       9.092400000000
       363    2       16.809075000000      14.018004020100      10.659984314400
       364    1       16.809075000000      16.174625000000       9.092400000000
       365    2       20.544425000000      20.487854020100      10.659984314400
       366    1       20.544425000000      22.644475000000       9.092400000000
       367    2       18.676750000000      15.096320979900       7.524815685600
       368    2       22.412100000000      21.566170979900       7.524815685600
       369    2       20.544425000000      14.018004020100      10.659984314400
       370    2       16.809075000000      20.487854020100      10.659984314400