 # Mo8 Te16
  
        2688  atoms
           2  atom types
 
      0.000000000000      97.815200000000  xlo xhi
      0.000000000000      96.812000000000  ylo yhi
      0.000000000000      18.729000000000  zlo zhi
 
Masses
 
            1   95.96000000             # Mo
            2   127.60000000            # Te
 
Atoms # atomic
 
         1    1        5.240100000000       3.025375000000       9.364500000000
         2    1        1.746700000000       9.076125000000       9.364500000000
         3    2        0.000000000000       2.016920700500       7.503549102000
         4    2        5.240100000000       5.042295700500       7.503549102000
         5    2        1.746700000000      11.093045700500       7.503549102000
         6    2        3.493400000000       8.067670700500       7.503549102000
         7    1        3.493400000000       0.000000000000       9.364500000000
         8    1        0.000000000000       6.050750000000       9.364500000000
         9    1        1.746700000000       3.025375000000       9.364500000000
        10    2        5.240100000000       1.008454299500      11.225450898000
        11    2        1.746700000000       7.059204299500      11.225450898000
        12    1        5.240100000000       9.076125000000       9.364500000000
        13    2        1.746700000000       5.042295700500       7.503549102000
        14    2        5.240100000000      11.093045700500       7.503549102000
        15    1        0.000000000000       0.000000000000       9.364500000000
        16    2        1.746700000000       1.008454299500      11.225450898000
        17    1        3.493400000000       6.050750000000       9.364500000000
        18    2        5.240100000000       7.059204299500      11.225450898000
        19    2        0.000000000000       4.033829299500      11.225450898000
        20    2        3.493400000000      10.084579299500      11.225450898000
        21    2        3.493400000000       4.033829299500      11.225450898000
        22    2        0.000000000000      10.084579299500      11.225450898000
        23    2        3.493400000000       2.016920700500       7.503549102000
        24    2        0.000000000000       8.067670700500       7.503549102000
        25    1       12.226900000000       3.025375000000       9.364500000000
        26    1        8.733500000000       9.076125000000       9.364500000000
        27    2        6.986800000000       2.016920700500       7.503549102000
        28    2       12.226900000000       5.042295700500       7.503549102000
        29    2        8.733500000000      11.093045700500       7.503549102000
        30    2       10.480200000000       8.067670700500       7.503549102000
        31    1       10.480200000000       0.000000000000       9.364500000000
        32    1        6.986800000000       6.050750000000       9.364500000000
        33    1        8.733500000000       3.025375000000       9.364500000000
        34    2       12.226900000000       1.008454299500      11.225450898000
        35    2        8.733500000000       7.059204299500      11.225450898000
        36    1       12.226900000000       9.076125000000       9.364500000000
        37    2        8.733500000000       5.042295700500       7.503549102000
        38    2       12.226900000000      11.093045700500       7.503549102000
        39    1        6.986800000000       0.000000000000       9.364500000000
        40    2        8.733500000000       1.008454299500      11.225450898000
        41    1       10.480200000000       6.050750000000       9.364500000000
        42    2       12.226900000000       7.059204299500      11.225450898000
        43    2        6.986800000000       4.033829299500      11.225450898000
        44    2       10.480200000000      10.084579299500      11.225450898000
        45    2       10.480200000000       4.033829299500      11.225450898000
        46    2        6.986800000000      10.084579299500      11.225450898000
        47    2       10.480200000000       2.016920700500       7.503549102000
        48    2        6.986800000000       8.067670700500       7.503549102000
        49    1       19.213700000000       3.025375000000       9.364500000000
        50    1       15.720300000000       9.076125000000       9.364500000000
        51    2       13.973600000000       2.016920700500       7.503549102000
        52    2       19.213700000000       5.042295700500       7.503549102000
        53    2       15.720300000000      11.093045700500       7.503549102000
        54    2       17.467000000000       8.067670700500       7.503549102000
        55    1       17.467000000000       0.000000000000       9.364500000000
        56    1       13.973600000000       6.050750000000       9.364500000000
        57    1       15.720300000000       3.025375000000       9.364500000000
        58    2       19.213700000000       1.008454299500      11.225450898000
        59    2       15.720300000000       7.059204299500      11.225450898000
        60    1       19.213700000000       9.076125000000       9.364500000000
        61    2       15.720300000000       5.042295700500       7.503549102000
        62    2       19.213700000000      11.093045700500       7.503549102000
        63    1       13.973600000000       0.000000000000       9.364500000000
        64    2       15.720300000000       1.008454299500      11.225450898000
        65    1       17.467000000000       6.050750000000       9.364500000000
        66    2       19.213700000000       7.059204299500      11.225450898000
        67    2       13.973600000000       4.033829299500      11.225450898000
        68    2       17.467000000000      10.084579299500      11.225450898000
        69    2       17.467000000000       4.033829299500      11.225450898000
        70    2       13.973600000000      10.084579299500      11.225450898000
        71    2       17.467000000000       2.016920700500       7.503549102000
        72    2       13.973600000000       8.067670700500       7.503549102000
        73    1       26.200500000000       3.025375000000       9.364500000000
        74    1       22.707100000000       9.076125000000       9.364500000000
        75    2       20.960400000000       2.016920700500       7.503549102000
        76    2       26.200500000000       5.042295700500       7.503549102000
        77    2       22.707100000000      11.093045700500       7.503549102000
        78    2       24.453800000000       8.067670700500       7.503549102000
        79    1       24.453800000000       0.000000000000       9.364500000000
        80    1       20.960400000000       6.050750000000       9.364500000000
        81    1       22.707100000000       3.025375000000       9.364500000000
        82    2       26.200500000000       1.008454299500      11.225450898000
        83    2       22.707100000000       7.059204299500      11.225450898000
        84    1       26.200500000000       9.076125000000       9.364500000000
        85    2       22.707100000000       5.042295700500       7.503549102000
        86    2       26.200500000000      11.093045700500       7.503549102000
        87    1       20.960400000000       0.000000000000       9.364500000000
        88    2       22.707100000000       1.008454299500      11.225450898000
        89    1       24.453800000000       6.050750000000       9.364500000000
        90    2       26.200500000000       7.059204299500      11.225450898000
        91    2       20.960400000000       4.033829299500      11.225450898000
        92    2       24.453800000000      10.084579299500      11.225450898000
        93    2       24.453800000000       4.033829299500      11.225450898000
        94    2       20.960400000000      10.084579299500      11.225450898000
        95    2       24.453800000000       2.016920700500       7.503549102000
        96    2       20.960400000000       8.067670700500       7.503549102000
        97    1       33.187300000000       3.025375000000       9.364500000000
        98    1       29.693900000000       9.076125000000       9.364500000000
        99    2       27.947200000000       2.016920700500       7.503549102000
       100    2       33.187300000000       5.042295700500       7.503549102000
       101    2       29.693900000000      11.093045700500       7.503549102000
       102    2       31.440600000000       8.067670700500       7.503549102000
       103    1       31.440600000000       0.000000000000       9.364500000000
       104    1       27.947200000000       6.050750000000       9.364500000000
       105    1       29.693900000000       3.025375000000       9.364500000000
       106    2       33.187300000000       1.008454299500      11.225450898000
       107    2       29.693900000000       7.059204299500      11.225450898000
       108    1       33.187300000000       9.076125000000       9.364500000000
       109    2       29.693900000000       5.042295700500       7.503549102000
       110    2       33.187300000000      11.093045700500       7.503549102000
       111    1       27.947200000000       0.000000000000       9.364500000000
       112    2       29.693900000000       1.008454299500      11.225450898000
       113    1       31.440600000000       6.050750000000       9.364500000000
       114    2       33.187300000000       7.059204299500      11.225450898000
       115    2       27.947200000000       4.033829299500      11.225450898000
       116    2       31.440600000000      10.084579299500      11.225450898000
       117    2       31.440600000000       4.033829299500      11.225450898000
       118    2       27.947200000000      10.084579299500      11.225450898000
       119    2       31.440600000000       2.016920700500       7.503549102000
       120    2       27.947200000000       8.067670700500       7.503549102000
       121    1       40.174100000000       3.025375000000       9.364500000000
       122    1       36.680700000000       9.076125000000       9.364500000000
       123    2       34.934000000000       2.016920700500       7.503549102000
       124    2       40.174100000000       5.042295700500       7.503549102000
       125    2       36.680700000000      11.093045700500       7.503549102000
       126    2       38.427400000000       8.067670700500       7.503549102000
       127    1       38.427400000000       0.000000000000       9.364500000000
       128    1       34.934000000000       6.050750000000       9.364500000000
       129    1       36.680700000000       3.025375000000       9.364500000000
       130    2       40.174100000000       1.008454299500      11.225450898000
       131    2       36.680700000000       7.059204299500      11.225450898000
       132    1       40.174100000000       9.076125000000       9.364500000000
       133    2       36.680700000000       5.042295700500       7.503549102000
       134    2       40.174100000000      11.093045700500       7.503549102000
       135    1       34.934000000000       0.000000000000       9.364500000000
       136    2       36.680700000000       1.008454299500      11.225450898000
       137    1       38.427400000000       6.050750000000       9.364500000000
       138    2       40.174100000000       7.059204299500      11.225450898000
       139    2       34.934000000000       4.033829299500      11.225450898000
       140    2       38.427400000000      10.084579299500      11.225450898000
       141    2       38.427400000000       4.033829299500      11.225450898000
       142    2       34.934000000000      10.084579299500      11.225450898000
       143    2       38.427400000000       2.016920700500       7.503549102000
       144    2       34.934000000000       8.067670700500       7.503549102000
       145    1       47.160900000000       3.025375000000       9.364500000000
       146    1       43.667500000000       9.076125000000       9.364500000000
       147    2       41.920800000000       2.016920700500       7.503549102000
       148    2       47.160900000000       5.042295700500       7.503549102000
       149    2       43.667500000000      11.093045700500       7.503549102000
       150    2       45.414200000000       8.067670700500       7.503549102000
       151    1       45.414200000000       0.000000000000       9.364500000000
       152    1       41.920800000000       6.050750000000       9.364500000000
       153    1       43.667500000000       3.025375000000       9.364500000000
       154    2       47.160900000000       1.008454299500      11.225450898000
       155    2       43.667500000000       7.059204299500      11.225450898000
       156    1       47.160900000000       9.076125000000       9.364500000000
       157    2       43.667500000000       5.042295700500       7.503549102000
       158    2       47.160900000000      11.093045700500       7.503549102000
       159    1       41.920800000000       0.000000000000       9.364500000000
       160    2       43.667500000000       1.008454299500      11.225450898000
       161    1       45.414200000000       6.050750000000       9.364500000000
       162    2       47.160900000000       7.059204299500      11.225450898000
       163    2       41.920800000000       4.033829299500      11.225450898000
       164    2       45.414200000000      10.084579299500      11.225450898000
       165    2       45.414200000000       4.033829299500      11.225450898000
       166    2       41.920800000000      10.084579299500      11.225450898000
       167    2       45.414200000000       2.016920700500       7.503549102000
       168    2       41.920800000000       8.067670700500       7.503549102000
       169    1       54.147700000000       3.025375000000       9.364500000000
       170    1       50.654300000000       9.076125000000       9.364500000000
       171    2       48.907600000000       2.016920700500       7.503549102000
       172    2       54.147700000000       5.042295700500       7.503549102000
       173    2       50.654300000000      11.093045700500       7.503549102000
       174    2       52.401000000000       8.067670700500       7.503549102000
       175    1       52.401000000000       0.000000000000       9.364500000000
       176    1       48.907600000000       6.050750000000       9.364500000000
       177    1       50.654300000000       3.025375000000       9.364500000000
       178    2       54.147700000000       1.008454299500      11.225450898000
       179    2       50.654300000000       7.059204299500      11.225450898000
       180    1       54.147700000000       9.076125000000       9.364500000000
       181    2       50.654300000000       5.042295700500       7.503549102000
       182    2       54.147700000000      11.093045700500       7.503549102000
       183    1       48.907600000000       0.000000000000       9.364500000000
       184    2       50.654300000000       1.008454299500      11.225450898000
       185    1       52.401000000000       6.050750000000       9.364500000000
       186    2       54.147700000000       7.059204299500      11.225450898000
       187    2       48.907600000000       4.033829299500      11.225450898000
       188    2       52.401000000000      10.084579299500      11.225450898000
       189    2       52.401000000000       4.033829299500      11.225450898000
       190    2       48.907600000000      10.084579299500      11.225450898000
       191    2       52.401000000000       2.016920700500       7.503549102000
       192    2       48.907600000000       8.067670700500       7.503549102000
       193    1       61.134500000000       3.025375000000       9.364500000000
       194    1       57.641100000000       9.076125000000       9.364500000000
       195    2       55.894400000000       2.016920700500       7.503549102000
       196    2       61.134500000000       5.042295700500       7.503549102000
       197    2       57.641100000000      11.093045700500       7.503549102000
       198    2       59.387800000000       8.067670700500       7.503549102000
       199    1       59.387800000000       0.000000000000       9.364500000000
       200    1       55.894400000000       6.050750000000       9.364500000000
       201    1       57.641100000000       3.025375000000       9.364500000000
       202    2       61.134500000000       1.008454299500      11.225450898000
       203    2       57.641100000000       7.059204299500      11.225450898000
       204    1       61.134500000000       9.076125000000       9.364500000000
       205    2       57.641100000000       5.042295700500       7.503549102000
       206    2       61.134500000000      11.093045700500       7.503549102000
       207    1       55.894400000000       0.000000000000       9.364500000000
       208    2       57.641100000000       1.008454299500      11.225450898000
       209    1       59.387800000000       6.050750000000       9.364500000000
       210    2       61.134500000000       7.059204299500      11.225450898000
       211    2       55.894400000000       4.033829299500      11.225450898000
       212    2       59.387800000000      10.084579299500      11.225450898000
       213    2       59.387800000000       4.033829299500      11.225450898000
       214    2       55.894400000000      10.084579299500      11.225450898000
       215    2       59.387800000000       2.016920700500       7.503549102000
       216    2       55.894400000000       8.067670700500       7.503549102000
       217    1       68.121300000000       3.025375000000       9.364500000000
       218    1       64.627900000000       9.076125000000       9.364500000000
       219    2       62.881200000000       2.016920700500       7.503549102000
       220    2       68.121300000000       5.042295700500       7.503549102000
       221    2       64.627900000000      11.093045700500       7.503549102000
       222    2       66.374600000000       8.067670700500       7.503549102000
       223    1       66.374600000000       0.000000000000       9.364500000000
       224    1       62.881200000000       6.050750000000       9.364500000000
       225    1       64.627900000000       3.025375000000       9.364500000000
       226    2       68.121300000000       1.008454299500      11.225450898000
       227    2       64.627900000000       7.059204299500      11.225450898000
       228    1       68.121300000000       9.076125000000       9.364500000000
       229    2       64.627900000000       5.042295700500       7.503549102000
       230    2       68.121300000000      11.093045700500       7.503549102000
       231    1       62.881200000000       0.000000000000       9.364500000000
       232    2       64.627900000000       1.008454299500      11.225450898000
       233    1       66.374600000000       6.050750000000       9.364500000000
       234    2       68.121300000000       7.059204299500      11.225450898000
       235    2       62.881200000000       4.033829299500      11.225450898000
       236    2       66.374600000000      10.084579299500      11.225450898000
       237    2       66.374600000000       4.033829299500      11.225450898000
       238    2       62.881200000000      10.084579299500      11.225450898000
       239    2       66.374600000000       2.016920700500       7.503549102000
       240    2       62.881200000000       8.067670700500       7.503549102000
       241    1       75.108100000000       3.025375000000       9.364500000000
       242    1       71.614700000000       9.076125000000       9.364500000000
       243    2       69.868000000000       2.016920700500       7.503549102000
       244    2       75.108100000000       5.042295700500       7.503549102000
       245    2       71.614700000000      11.093045700500       7.503549102000
       246    2       73.361400000000       8.067670700500       7.503549102000
       247    1       73.361400000000       0.000000000000       9.364500000000
       248    1       69.868000000000       6.050750000000       9.364500000000
       249    1       71.614700000000       3.025375000000       9.364500000000
       250    2       75.108100000000       1.008454299500      11.225450898000
       251    2       71.614700000000       7.059204299500      11.225450898000
       252    1       75.108100000000       9.076125000000       9.364500000000
       253    2       71.614700000000       5.042295700500       7.503549102000
       254    2       75.108100000000      11.093045700500       7.503549102000
       255    1       69.868000000000       0.000000000000       9.364500000000
       256    2       71.614700000000       1.008454299500      11.225450898000
       257    1       73.361400000000       6.050750000000       9.364500000000
       258    2       75.108100000000       7.059204299500      11.225450898000
       259    2       69.868000000000       4.033829299500      11.225450898000
       260    2       73.361400000000      10.084579299500      11.225450898000
       261    2       73.361400000000       4.033829299500      11.225450898000
       262    2       69.868000000000      10.084579299500      11.225450898000
       263    2       73.361400000000       2.016920700500       7.503549102000
       264    2       69.868000000000       8.067670700500       7.503549102000
       265    1       82.094900000000       3.025375000000       9.364500000000
       266    1       78.601500000000       9.076125000000       9.364500000000
       267    2       76.854800000000       2.016920700500       7.503549102000
       268    2       82.094900000000       5.042295700500       7.503549102000
       269    2       78.601500000000      11.093045700500       7.503549102000
       270    2       80.348200000000       8.067670700500       7.503549102000
       271    1       80.348200000000       0.000000000000       9.364500000000
       272    1       76.854800000000       6.050750000000       9.364500000000
       273    1       78.601500000000       3.025375000000       9.364500000000
       274    2       82.094900000000       1.008454299500      11.225450898000
       275    2       78.601500000000       7.059204299500      11.225450898000
       276    1       82.094900000000       9.076125000000       9.364500000000
       277    2       78.601500000000       5.042295700500       7.503549102000
       278    2       82.094900000000      11.093045700500       7.503549102000
       279    1       76.854800000000       0.000000000000       9.364500000000
       280    2       78.601500000000       1.008454299500      11.225450898000
       281    1       80.348200000000       6.050750000000       9.364500000000
       282    2       82.094900000000       7.059204299500      11.225450898000
       283    2       76.854800000000       4.033829299500      11.225450898000
       284    2       80.348200000000      10.084579299500      11.225450898000
       285    2       80.348200000000       4.033829299500      11.225450898000
       286    2       76.854800000000      10.084579299500      11.225450898000
       287    2       80.348200000000       2.016920700500       7.503549102000
       288    2       76.854800000000       8.067670700500       7.503549102000
       289    1       89.081700000000       3.025375000000       9.364500000000
       290    1       85.588300000000       9.076125000000       9.364500000000
       291    2       83.841600000000       2.016920700500       7.503549102000
       292    2       89.081700000000       5.042295700500       7.503549102000
       293    2       85.588300000000      11.093045700500       7.503549102000
       294    2       87.335000000000       8.067670700500       7.503549102000
       295    1       87.335000000000       0.000000000000       9.364500000000
       296    1       83.841600000000       6.050750000000       9.364500000000
       297    1       85.588300000000       3.025375000000       9.364500000000
       298    2       89.081700000000       1.008454299500      11.225450898000
       299    2       85.588300000000       7.059204299500      11.225450898000
       300    1       89.081700000000       9.076125000000       9.364500000000
       301    2       85.588300000000       5.042295700500       7.503549102000
       302    2       89.081700000000      11.093045700500       7.503549102000
       303    1       83.841600000000       0.000000000000       9.364500000000
       304    2       85.588300000000       1.008454299500      11.225450898000
       305    1       87.335000000000       6.050750000000       9.364500000000
       306    2       89.081700000000       7.059204299500      11.225450898000
       307    2       83.841600000000       4.033829299500      11.225450898000
       308    2       87.335000000000      10.084579299500      11.225450898000
       309    2       87.335000000000       4.033829299500      11.225450898000
       310    2       83.841600000000      10.084579299500      11.225450898000
       311    2       87.335000000000       2.016920700500       7.503549102000
       312    2       83.841600000000       8.067670700500       7.503549102000
       313    1       96.068500000000       3.025375000000       9.364500000000
       314    1       92.575100000000       9.076125000000       9.364500000000
       315    2       90.828400000000       2.016920700500       7.503549102000
       316    2       96.068500000000       5.042295700500       7.503549102000
       317    2       92.575100000000      11.093045700500       7.503549102000
       318    2       94.321800000000       8.067670700500       7.503549102000
       319    1       94.321800000000       0.000000000000       9.364500000000
       320    1       90.828400000000       6.050750000000       9.364500000000
       321    1       92.575100000000       3.025375000000       9.364500000000
       322    2       96.068500000000       1.008454299500      11.225450898000
       323    2       92.575100000000       7.059204299500      11.225450898000
       324    1       96.068500000000       9.076125000000       9.364500000000
       325    2       92.575100000000       5.042295700500       7.503549102000
       326    2       96.068500000000      11.093045700500       7.503549102000
       327    1       90.828400000000       0.000000000000       9.364500000000
       328    2       92.575100000000       1.008454299500      11.225450898000
       329    1       94.321800000000       6.050750000000       9.364500000000
       330    2       96.068500000000       7.059204299500      11.225450898000
       331    2       90.828400000000       4.033829299500      11.225450898000
       332    2       94.321800000000      10.084579299500      11.225450898000
       333    2       94.321800000000       4.033829299500      11.225450898000
       334    2       90.828400000000      10.084579299500      11.225450898000
       335    2       94.321800000000       2.016920700500       7.503549102000
       336    2       90.828400000000       8.067670700500       7.503549102000
       337    1        5.240100000000      15.126875000000       9.364500000000
       338    1        1.746700000000      21.177625000000       9.364500000000
       339    2        0.000000000000      14.118420700500       7.503549102000
       340    2        5.240100000000      17.143795700500       7.503549102000
       341    2        1.746700000000      23.194545700500       7.503549102000
       342    2        3.493400000000      20.169170700500       7.503549102000
       343    1        3.493400000000      12.101500000000       9.364500000000
       344    1        0.000000000000      18.152250000000       9.364500000000
       345    1        1.746700000000      15.126875000000       9.364500000000
       346    2        5.240100000000      13.109954299500      11.225450898000
       347    2        1.746700000000      19.160704299500      11.225450898000
       348    1        5.240100000000      21.177625000000       9.364500000000
       349    2        1.746700000000      17.143795700500       7.503549102000
       350    2        5.240100000000      23.194545700500       7.503549102000
       351    1        0.000000000000      12.101500000000       9.364500000000
       352    2        1.746700000000      13.109954299500      11.225450898000
       353    1        3.493400000000      18.152250000000       9.364500000000
       354    2        5.240100000000      19.160704299500      11.225450898000
       355    2        0.000000000000      16.135329299500      11.225450898000
       356    2        3.493400000000      22.186079299500      11.225450898000
       357    2        3.493400000000      16.135329299500      11.225450898000
       358    2        0.000000000000      22.186079299500      11.225450898000
       359    2        3.493400000000      14.118420700500       7.503549102000
       360    2        0.000000000000      20.169170700500       7.503549102000
       361    1       12.226900000000      15.126875000000       9.364500000000
       362    1        8.733500000000      21.177625000000       9.364500000000
       363    2        6.986800000000      14.118420700500       7.503549102000
       364    2       12.226900000000      17.143795700500       7.503549102000
       365    2        8.733500000000      23.194545700500       7.503549102000
       366    2       10.480200000000      20.169170700500       7.503549102000
       367    1       10.480200000000      12.101500000000       9.364500000000
       368    1        6.986800000000      18.152250000000       9.364500000000
       369    1        8.733500000000      15.126875000000       9.364500000000
       370    2       12.226900000000      13.109954299500      11.225450898000