 # Mo8 Se16
  
        3240  atoms
           2  atom types
 
      0.000000000000      98.458500000000  xlo xhi
      0.000000000000     102.321900000000  ylo yhi
      0.000000000000      18.449700000000  zlo zhi
 
Masses
 
            1   95.96000000             # Mo
            2   78.96000000             # Se
 
Atoms # atomic
 
         1    1        0.000000000000       0.000000000000       9.224850000000
         2    1        3.281950000000       5.684550000000       9.224850000000
         3    2        3.281950000000       3.789696210300      10.946852749500
         4    2        0.000000000000       9.474246210300      10.946852749500
         5    1        3.281950000000       0.000000000000       9.224850000000
         6    1        4.922925000000       2.842275000000       9.224850000000
         7    1        1.640975000000       2.842275000000       9.224850000000
         8    1        6.563900000000       5.684550000000       9.224850000000
         9    1        1.640975000000       8.526825000000       9.224850000000
        10    1        4.922925000000       8.526825000000       9.224850000000
        11    2        3.281950000000       1.894853789700       7.502847250500
        12    2        0.000000000000       3.789696210300      10.946852749500
        13    2        1.640975000000       4.737128789700       7.502847250500
        14    2        4.922925000000       0.947421210300      10.946852749500
        15    2        0.000000000000       7.579403789700       7.502847250500
        16    2        3.281950000000       9.474246210300      10.946852749500
        17    2        1.640975000000       6.631971210300      10.946852749500
        18    2        4.922925000000      10.421678789700       7.502847250500
        19    2        4.922925000000       4.737128789700       7.502847250500
        20    2        1.640975000000      10.421678789700       7.502847250500
        21    2        1.640975000000       0.947421210300      10.946852749500
        22    2        4.922925000000       6.631971210300      10.946852749500
        23    2        0.000000000000       1.894853789700       7.502847250500
        24    2        3.281950000000       7.579403789700       7.502847250500
        25    1        6.563900000000       0.000000000000       9.224850000000
        26    1        9.845850000000       5.684550000000       9.224850000000
        27    2        9.845850000000       3.789696210300      10.946852749500
        28    2        6.563900000000       9.474246210300      10.946852749500
        29    1        9.845850000000       0.000000000000       9.224850000000
        30    1       11.486825000000       2.842275000000       9.224850000000
        31    1        8.204875000000       2.842275000000       9.224850000000
        32    1       13.127800000000       5.684550000000       9.224850000000
        33    1        8.204875000000       8.526825000000       9.224850000000
        34    1       11.486825000000       8.526825000000       9.224850000000
        35    2        9.845850000000       1.894853789700       7.502847250500
        36    2        6.563900000000       3.789696210300      10.946852749500
        37    2        8.204875000000       4.737128789700       7.502847250500
        38    2       11.486825000000       0.947421210300      10.946852749500
        39    2        6.563900000000       7.579403789700       7.502847250500
        40    2        9.845850000000       9.474246210300      10.946852749500
        41    2        8.204875000000       6.631971210300      10.946852749500
        42    2       11.486825000000      10.421678789700       7.502847250500
        43    2       11.486825000000       4.737128789700       7.502847250500
        44    2        8.204875000000      10.421678789700       7.502847250500
        45    2        8.204875000000       0.947421210300      10.946852749500
        46    2       11.486825000000       6.631971210300      10.946852749500
        47    2        6.563900000000       1.894853789700       7.502847250500
        48    2        9.845850000000       7.579403789700       7.502847250500
        49    1       13.127800000000       0.000000000000       9.224850000000
        50    1       16.409750000000       5.684550000000       9.224850000000
        51    2       16.409750000000       3.789696210300      10.946852749500
        52    2       13.127800000000       9.474246210300      10.946852749500
        53    1       16.409750000000       0.000000000000       9.224850000000
        54    1       18.050725000000       2.842275000000       9.224850000000
        55    1       14.768775000000       2.842275000000       9.224850000000
        56    1       19.691700000000       5.684550000000       9.224850000000
        57    1       14.768775000000       8.526825000000       9.224850000000
        58    1       18.050725000000       8.526825000000       9.224850000000
        59    2       16.409750000000       1.894853789700       7.502847250500
        60    2       13.127800000000       3.789696210300      10.946852749500
        61    2       14.768775000000       4.737128789700       7.502847250500
        62    2       18.050725000000       0.947421210300      10.946852749500
        63    2       13.127800000000       7.579403789700       7.502847250500
        64    2       16.409750000000       9.474246210300      10.946852749500
        65    2       14.768775000000       6.631971210300      10.946852749500
        66    2       18.050725000000      10.421678789700       7.502847250500
        67    2       18.050725000000       4.737128789700       7.502847250500
        68    2       14.768775000000      10.421678789700       7.502847250500
        69    2       14.768775000000       0.947421210300      10.946852749500
        70    2       18.050725000000       6.631971210300      10.946852749500
        71    2       13.127800000000       1.894853789700       7.502847250500
        72    2       16.409750000000       7.579403789700       7.502847250500
        73    1       19.691700000000       0.000000000000       9.224850000000
        74    1       22.973650000000       5.684550000000       9.224850000000
        75    2       22.973650000000       3.789696210300      10.946852749500
        76    2       19.691700000000       9.474246210300      10.946852749500
        77    1       22.973650000000       0.000000000000       9.224850000000
        78    1       24.614625000000       2.842275000000       9.224850000000
        79    1       21.332675000000       2.842275000000       9.224850000000
        80    1       26.255600000000       5.684550000000       9.224850000000
        81    1       21.332675000000       8.526825000000       9.224850000000
        82    1       24.614625000000       8.526825000000       9.224850000000
        83    2       22.973650000000       1.894853789700       7.502847250500
        84    2       19.691700000000       3.789696210300      10.946852749500
        85    2       21.332675000000       4.737128789700       7.502847250500
        86    2       24.614625000000       0.947421210300      10.946852749500
        87    2       19.691700000000       7.579403789700       7.502847250500
        88    2       22.973650000000       9.474246210300      10.946852749500
        89    2       21.332675000000       6.631971210300      10.946852749500
        90    2       24.614625000000      10.421678789700       7.502847250500
        91    2       24.614625000000       4.737128789700       7.502847250500
        92    2       21.332675000000      10.421678789700       7.502847250500
        93    2       21.332675000000       0.947421210300      10.946852749500
        94    2       24.614625000000       6.631971210300      10.946852749500
        95    2       19.691700000000       1.894853789700       7.502847250500
        96    2       22.973650000000       7.579403789700       7.502847250500
        97    1       26.255600000000       0.000000000000       9.224850000000
        98    1       29.537550000000       5.684550000000       9.224850000000
        99    2       29.537550000000       3.789696210300      10.946852749500
       100    2       26.255600000000       9.474246210300      10.946852749500
       101    1       29.537550000000       0.000000000000       9.224850000000
       102    1       31.178525000000       2.842275000000       9.224850000000
       103    1       27.896575000000       2.842275000000       9.224850000000
       104    1       32.819500000000       5.684550000000       9.224850000000
       105    1       27.896575000000       8.526825000000       9.224850000000
       106    1       31.178525000000       8.526825000000       9.224850000000
       107    2       29.537550000000       1.894853789700       7.502847250500
       108    2       26.255600000000       3.789696210300      10.946852749500
       109    2       27.896575000000       4.737128789700       7.502847250500
       110    2       31.178525000000       0.947421210300      10.946852749500
       111    2       26.255600000000       7.579403789700       7.502847250500
       112    2       29.537550000000       9.474246210300      10.946852749500
       113    2       27.896575000000       6.631971210300      10.946852749500
       114    2       31.178525000000      10.421678789700       7.502847250500
       115    2       31.178525000000       4.737128789700       7.502847250500
       116    2       27.896575000000      10.421678789700       7.502847250500
       117    2       27.896575000000       0.947421210300      10.946852749500
       118    2       31.178525000000       6.631971210300      10.946852749500
       119    2       26.255600000000       1.894853789700       7.502847250500
       120    2       29.537550000000       7.579403789700       7.502847250500
       121    1       32.819500000000       0.000000000000       9.224850000000
       122    1       36.101450000000       5.684550000000       9.224850000000
       123    2       36.101450000000       3.789696210300      10.946852749500
       124    2       32.819500000000       9.474246210300      10.946852749500
       125    1       36.101450000000       0.000000000000       9.224850000000
       126    1       37.742425000000       2.842275000000       9.224850000000
       127    1       34.460475000000       2.842275000000       9.224850000000
       128    1       39.383400000000       5.684550000000       9.224850000000
       129    1       34.460475000000       8.526825000000       9.224850000000
       130    1       37.742425000000       8.526825000000       9.224850000000
       131    2       36.101450000000       1.894853789700       7.502847250500
       132    2       32.819500000000       3.789696210300      10.946852749500
       133    2       34.460475000000       4.737128789700       7.502847250500
       134    2       37.742425000000       0.947421210300      10.946852749500
       135    2       32.819500000000       7.579403789700       7.502847250500
       136    2       36.101450000000       9.474246210300      10.946852749500
       137    2       34.460475000000       6.631971210300      10.946852749500
       138    2       37.742425000000      10.421678789700       7.502847250500
       139    2       37.742425000000       4.737128789700       7.502847250500
       140    2       34.460475000000      10.421678789700       7.502847250500
       141    2       34.460475000000       0.947421210300      10.946852749500
       142    2       37.742425000000       6.631971210300      10.946852749500
       143    2       32.819500000000       1.894853789700       7.502847250500
       144    2       36.101450000000       7.579403789700       7.502847250500
       145    1       39.383400000000       0.000000000000       9.224850000000
       146    1       42.665350000000       5.684550000000       9.224850000000
       147    2       42.665350000000       3.789696210300      10.946852749500
       148    2       39.383400000000       9.474246210300      10.946852749500
       149    1       42.665350000000       0.000000000000       9.224850000000
       150    1       44.306325000000       2.842275000000       9.224850000000
       151    1       41.024375000000       2.842275000000       9.224850000000
       152    1       45.947300000000       5.684550000000       9.224850000000
       153    1       41.024375000000       8.526825000000       9.224850000000
       154    1       44.306325000000       8.526825000000       9.224850000000
       155    2       42.665350000000       1.894853789700       7.502847250500
       156    2       39.383400000000       3.789696210300      10.946852749500
       157    2       41.024375000000       4.737128789700       7.502847250500
       158    2       44.306325000000       0.947421210300      10.946852749500
       159    2       39.383400000000       7.579403789700       7.502847250500
       160    2       42.665350000000       9.474246210300      10.946852749500
       161    2       41.024375000000       6.631971210300      10.946852749500
       162    2       44.306325000000      10.421678789700       7.502847250500
       163    2       44.306325000000       4.737128789700       7.502847250500
       164    2       41.024375000000      10.421678789700       7.502847250500
       165    2       41.024375000000       0.947421210300      10.946852749500
       166    2       44.306325000000       6.631971210300      10.946852749500
       167    2       39.383400000000       1.894853789700       7.502847250500
       168    2       42.665350000000       7.579403789700       7.502847250500
       169    1       45.947300000000       0.000000000000       9.224850000000
       170    1       49.229250000000       5.684550000000       9.224850000000
       171    2       49.229250000000       3.789696210300      10.946852749500
       172    2       45.947300000000       9.474246210300      10.946852749500
       173    1       49.229250000000       0.000000000000       9.224850000000
       174    1       50.870225000000       2.842275000000       9.224850000000
       175    1       47.588275000000       2.842275000000       9.224850000000
       176    1       52.511200000000       5.684550000000       9.224850000000
       177    1       47.588275000000       8.526825000000       9.224850000000
       178    1       50.870225000000       8.526825000000       9.224850000000
       179    2       49.229250000000       1.894853789700       7.502847250500
       180    2       45.947300000000       3.789696210300      10.946852749500
       181    2       47.588275000000       4.737128789700       7.502847250500
       182    2       50.870225000000       0.947421210300      10.946852749500
       183    2       45.947300000000       7.579403789700       7.502847250500
       184    2       49.229250000000       9.474246210300      10.946852749500
       185    2       47.588275000000       6.631971210300      10.946852749500
       186    2       50.870225000000      10.421678789700       7.502847250500
       187    2       50.870225000000       4.737128789700       7.502847250500
       188    2       47.588275000000      10.421678789700       7.502847250500
       189    2       47.588275000000       0.947421210300      10.946852749500
       190    2       50.870225000000       6.631971210300      10.946852749500
       191    2       45.947300000000       1.894853789700       7.502847250500
       192    2       49.229250000000       7.579403789700       7.502847250500
       193    1       52.511200000000       0.000000000000       9.224850000000
       194    1       55.793150000000       5.684550000000       9.224850000000
       195    2       55.793150000000       3.789696210300      10.946852749500
       196    2       52.511200000000       9.474246210300      10.946852749500
       197    1       55.793150000000       0.000000000000       9.224850000000
       198    1       57.434125000000       2.842275000000       9.224850000000
       199    1       54.152175000000       2.842275000000       9.224850000000
       200    1       59.075100000000       5.684550000000       9.224850000000
       201    1       54.152175000000       8.526825000000       9.224850000000
       202    1       57.434125000000       8.526825000000       9.224850000000
       203    2       55.793150000000       1.894853789700       7.502847250500
       204    2       52.511200000000       3.789696210300      10.946852749500
       205    2       54.152175000000       4.737128789700       7.502847250500
       206    2       57.434125000000       0.947421210300      10.946852749500
       207    2       52.511200000000       7.579403789700       7.502847250500
       208    2       55.793150000000       9.474246210300      10.946852749500
       209    2       54.152175000000       6.631971210300      10.946852749500
       210    2       57.434125000000      10.421678789700       7.502847250500
       211    2       57.434125000000       4.737128789700       7.502847250500
       212    2       54.152175000000      10.421678789700       7.502847250500
       213    2       54.152175000000       0.947421210300      10.946852749500
       214    2       57.434125000000       6.631971210300      10.946852749500
       215    2       52.511200000000       1.894853789700       7.502847250500
       216    2       55.793150000000       7.579403789700       7.502847250500
       217    1       59.075100000000       0.000000000000       9.224850000000
       218    1       62.357050000000       5.684550000000       9.224850000000
       219    2       62.357050000000       3.789696210300      10.946852749500
       220    2       59.075100000000       9.474246210300      10.946852749500
       221    1       62.357050000000       0.000000000000       9.224850000000
       222    1       63.998025000000       2.842275000000       9.224850000000
       223    1       60.716075000000       2.842275000000       9.224850000000
       224    1       65.639000000000       5.684550000000       9.224850000000
       225    1       60.716075000000       8.526825000000       9.224850000000
       226    1       63.998025000000       8.526825000000       9.224850000000
       227    2       62.357050000000       1.894853789700       7.502847250500
       228    2       59.075100000000       3.789696210300      10.946852749500
       229    2       60.716075000000       4.737128789700       7.502847250500
       230    2       63.998025000000       0.947421210300      10.946852749500
       231    2       59.075100000000       7.579403789700       7.502847250500
       232    2       62.357050000000       9.474246210300      10.946852749500
       233    2       60.716075000000       6.631971210300      10.946852749500
       234    2       63.998025000000      10.421678789700       7.502847250500
       235    2       63.998025000000       4.737128789700       7.502847250500
       236    2       60.716075000000      10.421678789700       7.502847250500
       237    2       60.716075000000       0.947421210300      10.946852749500
       238    2       63.998025000000       6.631971210300      10.946852749500
       239    2       59.075100000000       1.894853789700       7.502847250500
       240    2       62.357050000000       7.579403789700       7.502847250500
       241    1       65.639000000000       0.000000000000       9.224850000000
       242    1       68.920950000000       5.684550000000       9.224850000000
       243    2       68.920950000000       3.789696210300      10.946852749500
       244    2       65.639000000000       9.474246210300      10.946852749500
       245    1       68.920950000000       0.000000000000       9.224850000000
       246    1       70.561925000000       2.842275000000       9.224850000000
       247    1       67.279975000000       2.842275000000       9.224850000000
       248    1       72.202900000000       5.684550000000       9.224850000000
       249    1       67.279975000000       8.526825000000       9.224850000000
       250    1       70.561925000000       8.526825000000       9.224850000000
       251    2       68.920950000000       1.894853789700       7.502847250500
       252    2       65.639000000000       3.789696210300      10.946852749500
       253    2       67.279975000000       4.737128789700       7.502847250500
       254    2       70.561925000000       0.947421210300      10.946852749500
       255    2       65.639000000000       7.579403789700       7.502847250500
       256    2       68.920950000000       9.474246210300      10.946852749500
       257    2       67.279975000000       6.631971210300      10.946852749500
       258    2       70.561925000000      10.421678789700       7.502847250500
       259    2       70.561925000000       4.737128789700       7.502847250500
       260    2       67.279975000000      10.421678789700       7.502847250500
       261    2       67.279975000000       0.947421210300      10.946852749500
       262    2       70.561925000000       6.631971210300      10.946852749500
       263    2       65.639000000000       1.894853789700       7.502847250500
       264    2       68.920950000000       7.579403789700       7.502847250500
       265    1       72.202900000000       0.000000000000       9.224850000000
       266    1       75.484850000000       5.684550000000       9.224850000000
       267    2       75.484850000000       3.789696210300      10.946852749500
       268    2       72.202900000000       9.474246210300      10.946852749500
       269    1       75.484850000000       0.000000000000       9.224850000000
       270    1       77.125825000000       2.842275000000       9.224850000000
       271    1       73.843875000000       2.842275000000       9.224850000000
       272    1       78.766800000000       5.684550000000       9.224850000000
       273    1       73.843875000000       8.526825000000       9.224850000000
       274    1       77.125825000000       8.526825000000       9.224850000000
       275    2       75.484850000000       1.894853789700       7.502847250500
       276    2       72.202900000000       3.789696210300      10.946852749500
       277    2       73.843875000000       4.737128789700       7.502847250500
       278    2       77.125825000000       0.947421210300      10.946852749500
       279    2       72.202900000000       7.579403789700       7.502847250500
       280    2       75.484850000000       9.474246210300      10.946852749500
       281    2       73.843875000000       6.631971210300      10.946852749500
       282    2       77.125825000000      10.421678789700       7.502847250500
       283    2       77.125825000000       4.737128789700       7.502847250500
       284    2       73.843875000000      10.421678789700       7.502847250500
       285    2       73.843875000000       0.947421210300      10.946852749500
       286    2       77.125825000000       6.631971210300      10.946852749500
       287    2       72.202900000000       1.894853789700       7.502847250500
       288    2       75.484850000000       7.579403789700       7.502847250500
       289    1       78.766800000000       0.000000000000       9.224850000000
       290    1       82.048750000000       5.684550000000       9.224850000000
       291    2       82.048750000000       3.789696210300      10.946852749500
       292    2       78.766800000000       9.474246210300      10.946852749500
       293    1       82.048750000000       0.000000000000       9.224850000000
       294    1       83.689725000000       2.842275000000       9.224850000000
       295    1       80.407775000000       2.842275000000       9.224850000000
       296    1       85.330700000000       5.684550000000       9.224850000000
       297    1       80.407775000000       8.526825000000       9.224850000000
       298    1       83.689725000000       8.526825000000       9.224850000000
       299    2       82.048750000000       1.894853789700       7.502847250500
       300    2       78.766800000000       3.789696210300      10.946852749500
       301    2       80.407775000000       4.737128789700       7.502847250500
       302    2       83.689725000000       0.947421210300      10.946852749500
       303    2       78.766800000000       7.579403789700       7.502847250500
       304    2       82.048750000000       9.474246210300      10.946852749500
       305    2       80.407775000000       6.631971210300      10.946852749500
       306    2       83.689725000000      10.421678789700       7.502847250500
       307    2       83.689725000000       4.737128789700       7.502847250500
       308    2       80.407775000000      10.421678789700       7.502847250500
       309    2       80.407775000000       0.947421210300      10.946852749500
       310    2       83.689725000000       6.631971210300      10.946852749500
       311    2       78.766800000000       1.894853789700       7.502847250500
       312    2       82.048750000000       7.579403789700       7.502847250500
       313    1       85.330700000000       0.000000000000       9.224850000000
       314    1       88.612650000000       5.684550000000       9.224850000000
       315    2       88.612650000000       3.789696210300      10.946852749500
       316    2       85.330700000000       9.474246210300      10.946852749500
       317    1       88.612650000000       0.000000000000       9.224850000000
       318    1       90.253625000000       2.842275000000       9.224850000000
       319    1       86.971675000000       2.842275000000       9.224850000000
       320    1       91.894600000000       5.684550000000       9.224850000000
       321    1       86.971675000000       8.526825000000       9.224850000000
       322    1       90.253625000000       8.526825000000       9.224850000000
       323    2       88.612650000000       1.894853789700       7.502847250500
       324    2       85.330700000000       3.789696210300      10.946852749500
       325    2       86.971675000000       4.737128789700       7.502847250500
       326    2       90.253625000000       0.947421210300      10.946852749500
       327    2       85.330700000000       7.579403789700       7.502847250500
       328    2       88.612650000000       9.474246210300      10.946852749500
       329    2       86.971675000000       6.631971210300      10.946852749500
       330    2       90.253625000000      10.421678789700       7.502847250500
       331    2       90.253625000000       4.737128789700       7.502847250500
       332    2       86.971675000000      10.421678789700       7.502847250500
       333    2       86.971675000000       0.947421210300      10.946852749500
       334    2       90.253625000000       6.631971210300      10.946852749500
       335    2       85.330700000000       1.894853789700       7.502847250500
       336    2       88.612650000000       7.579403789700       7.502847250500
       337    1       91.894600000000       0.000000000000       9.224850000000
       338    1       95.176550000000       5.684550000000       9.224850000000
       339    2       95.176550000000       3.789696210300      10.946852749500
       340    2       91.894600000000       9.474246210300      10.946852749500
       341    1       95.176550000000       0.000000000000       9.224850000000
       342    1       96.817525000000       2.842275000000       9.224850000000
       343    1       93.535575000000       2.842275000000       9.224850000000
       344    1       98.458500000000       5.684550000000       9.224850000000
       345    1       93.535575000000       8.526825000000       9.224850000000
       346    1       96.817525000000       8.526825000000       9.224850000000
       347    2       95.176550000000       1.894853789700       7.502847250500
       348    2       91.894600000000       3.789696210300      10.946852749500
       349    2       93.535575000000       4.737128789700       7.502847250500
       350    2       96.817525000000       0.947421210300      10.946852749500
       351    2       91.894600000000       7.579403789700       7.502847250500
       352    2       95.176550000000       9.474246210300      10.946852749500
       353    2       93.535575000000       6.631971210300      10.946852749500
       354    2       96.817525000000      10.421678789700       7.502847250500
       355    2       96.817525000000       4.737128789700       7.502847250500
       356    2       93.535575000000      10.421678789700       7.502847250500
       357    2       93.535575000000       0.947421210300      10.946852749500
       358    2       96.817525000000       6.631971210300      10.946852749500
       359    2       91.894600000000       1.894853789700       7.502847250500
       360    2       95.176550000000       7.579403789700       7.502847250500
       361    1        0.000000000000      11.369100000000       9.224850000000
       362    1        3.281950000000      17.053650000000       9.224850000000
       363    2        3.281950000000      15.158796210300      10.946852749500
       364    2        0.000000000000      20.843346210300      10.946852749500
       365    1        3.281950000000      11.369100000000       9.224850000000
       366    1        4.922925000000      14.211375000000       9.224850000000
       367    1        1.640975000000      14.211375000000       9.224850000000
       368    1        6.563900000000      17.053650000000       9.224850000000
       369    1        1.640975000000      19.895925000000       9.224850000000
       370    1        4.922925000000      19.895925000000       9.224850000000