 # S16 Mo8
  
        3456  atoms
           2  atom types
 
      0.000000000000     102.019200000000  xlo xhi
      0.000000000000      99.394200000000  ylo yhi
      0.000000000000      18.158300000000  zlo zhi
 
Masses
 
            1   32.06000000             # S
            2   95.96000000             # Mo
 
Atoms # charge
 
         1    1   0.000000        6.376200000000       3.681262985400      10.666439636200
         2    1   0.000000        3.188100000000       9.203162985400      10.666439636200
         3    1   0.000000        1.594050000000       4.601587014600       7.491860363800
         4    1   0.000000        4.782150000000      10.123487014600       7.491860363800
         5    1   0.000000        4.782150000000       4.601587014600       7.491860363800
         6    1   0.000000        1.594050000000      10.123487014600       7.491860363800
         7    1   0.000000        1.594050000000       0.920312985400      10.666439636200
         8    1   0.000000        4.782150000000       6.442212985400      10.666439636200
         9    1   0.000000        4.782150000000       0.920312985400      10.666439636200
        10    2   0.000000        4.782150000000       2.760950000000       9.079150000000
        11    1   0.000000        1.594050000000       6.442212985400      10.666439636200
        12    2   0.000000        1.594050000000       8.282850000000       9.079150000000
        13    1   0.000000        3.188100000000       1.840637014600       7.491860363800
        14    1   0.000000        6.376200000000       7.362537014600       7.491860363800
        15    1   0.000000        3.188100000000       3.681262985400      10.666439636200
        16    1   0.000000        0.000000000000       9.203162985400      10.666439636200
        17    2   0.000000        0.000000000000       0.000000000000       9.079150000000
        18    2   0.000000        3.188100000000       5.521900000000       9.079150000000
        19    1   0.000000        0.000000000000       1.840637014600       7.491860363800
        20    1   0.000000        3.188100000000       7.362537014600       7.491860363800
        21    2   0.000000        3.188100000000       0.000000000000       9.079150000000
        22    2   0.000000        6.376200000000       5.521900000000       9.079150000000
        23    2   0.000000        1.594050000000       2.760950000000       9.079150000000
        24    2   0.000000        4.782150000000       8.282850000000       9.079150000000
        25    1   0.000000       12.752400000000       3.681262985400      10.666439636200
        26    1   0.000000        9.564300000000       9.203162985400      10.666439636200
        27    1   0.000000        7.970250000000       4.601587014600       7.491860363800
        28    1   0.000000       11.158350000000      10.123487014600       7.491860363800
        29    1   0.000000       11.158350000000       4.601587014600       7.491860363800
        30    1   0.000000        7.970250000000      10.123487014600       7.491860363800
        31    1   0.000000        7.970250000000       0.920312985400      10.666439636200
        32    1   0.000000       11.158350000000       6.442212985400      10.666439636200
        33    1   0.000000       11.158350000000       0.920312985400      10.666439636200
        34    2   0.000000       11.158350000000       2.760950000000       9.079150000000
        35    1   0.000000        7.970250000000       6.442212985400      10.666439636200
        36    2   0.000000        7.970250000000       8.282850000000       9.079150000000
        37    1   0.000000        9.564300000000       1.840637014600       7.491860363800
        38    1   0.000000       12.752400000000       7.362537014600       7.491860363800
        39    1   0.000000        9.564300000000       3.681262985400      10.666439636200
        40    1   0.000000        6.376200000000       9.203162985400      10.666439636200
        41    2   0.000000        6.376200000000       0.000000000000       9.079150000000
        42    2   0.000000        9.564300000000       5.521900000000       9.079150000000
        43    1   0.000000        6.376200000000       1.840637014600       7.491860363800
        44    1   0.000000        9.564300000000       7.362537014600       7.491860363800
        45    2   0.000000        9.564300000000       0.000000000000       9.079150000000
        46    2   0.000000       12.752400000000       5.521900000000       9.079150000000
        47    2   0.000000        7.970250000000       2.760950000000       9.079150000000
        48    2   0.000000       11.158350000000       8.282850000000       9.079150000000
        49    1   0.000000       19.128600000000       3.681262985400      10.666439636200
        50    1   0.000000       15.940500000000       9.203162985400      10.666439636200
        51    1   0.000000       14.346450000000       4.601587014600       7.491860363800
        52    1   0.000000       17.534550000000      10.123487014600       7.491860363800
        53    1   0.000000       17.534550000000       4.601587014600       7.491860363800
        54    1   0.000000       14.346450000000      10.123487014600       7.491860363800
        55    1   0.000000       14.346450000000       0.920312985400      10.666439636200
        56    1   0.000000       17.534550000000       6.442212985400      10.666439636200
        57    1   0.000000       17.534550000000       0.920312985400      10.666439636200
        58    2   0.000000       17.534550000000       2.760950000000       9.079150000000
        59    1   0.000000       14.346450000000       6.442212985400      10.666439636200
        60    2   0.000000       14.346450000000       8.282850000000       9.079150000000
        61    1   0.000000       15.940500000000       1.840637014600       7.491860363800
        62    1   0.000000       19.128600000000       7.362537014600       7.491860363800
        63    1   0.000000       15.940500000000       3.681262985400      10.666439636200
        64    1   0.000000       12.752400000000       9.203162985400      10.666439636200
        65    2   0.000000       12.752400000000       0.000000000000       9.079150000000
        66    2   0.000000       15.940500000000       5.521900000000       9.079150000000
        67    1   0.000000       12.752400000000       1.840637014600       7.491860363800
        68    1   0.000000       15.940500000000       7.362537014600       7.491860363800
        69    2   0.000000       15.940500000000       0.000000000000       9.079150000000
        70    2   0.000000       19.128600000000       5.521900000000       9.079150000000
        71    2   0.000000       14.346450000000       2.760950000000       9.079150000000
        72    2   0.000000       17.534550000000       8.282850000000       9.079150000000
        73    1   0.000000       25.504800000000       3.681262985400      10.666439636200
        74    1   0.000000       22.316700000000       9.203162985400      10.666439636200
        75    1   0.000000       20.722650000000       4.601587014600       7.491860363800
        76    1   0.000000       23.910750000000      10.123487014600       7.491860363800
        77    1   0.000000       23.910750000000       4.601587014600       7.491860363800
        78    1   0.000000       20.722650000000      10.123487014600       7.491860363800
        79    1   0.000000       20.722650000000       0.920312985400      10.666439636200
        80    1   0.000000       23.910750000000       6.442212985400      10.666439636200
        81    1   0.000000       23.910750000000       0.920312985400      10.666439636200
        82    2   0.000000       23.910750000000       2.760950000000       9.079150000000
        83    1   0.000000       20.722650000000       6.442212985400      10.666439636200
        84    2   0.000000       20.722650000000       8.282850000000       9.079150000000
        85    1   0.000000       22.316700000000       1.840637014600       7.491860363800
        86    1   0.000000       25.504800000000       7.362537014600       7.491860363800
        87    1   0.000000       22.316700000000       3.681262985400      10.666439636200
        88    1   0.000000       19.128600000000       9.203162985400      10.666439636200
        89    2   0.000000       19.128600000000       0.000000000000       9.079150000000
        90    2   0.000000       22.316700000000       5.521900000000       9.079150000000
        91    1   0.000000       19.128600000000       1.840637014600       7.491860363800
        92    1   0.000000       22.316700000000       7.362537014600       7.491860363800
        93    2   0.000000       22.316700000000       0.000000000000       9.079150000000
        94    2   0.000000       25.504800000000       5.521900000000       9.079150000000
        95    2   0.000000       20.722650000000       2.760950000000       9.079150000000
        96    2   0.000000       23.910750000000       8.282850000000       9.079150000000
        97    1   0.000000       31.881000000000       3.681262985400      10.666439636200
        98    1   0.000000       28.692900000000       9.203162985400      10.666439636200
        99    1   0.000000       27.098850000000       4.601587014600       7.491860363800
       100    1   0.000000       30.286950000000      10.123487014600       7.491860363800
       101    1   0.000000       30.286950000000       4.601587014600       7.491860363800
       102    1   0.000000       27.098850000000      10.123487014600       7.491860363800
       103    1   0.000000       27.098850000000       0.920312985400      10.666439636200
       104    1   0.000000       30.286950000000       6.442212985400      10.666439636200
       105    1   0.000000       30.286950000000       0.920312985400      10.666439636200
       106    2   0.000000       30.286950000000       2.760950000000       9.079150000000
       107    1   0.000000       27.098850000000       6.442212985400      10.666439636200
       108    2   0.000000       27.098850000000       8.282850000000       9.079150000000
       109    1   0.000000       28.692900000000       1.840637014600       7.491860363800
       110    1   0.000000       31.881000000000       7.362537014600       7.491860363800
       111    1   0.000000       28.692900000000       3.681262985400      10.666439636200
       112    1   0.000000       25.504800000000       9.203162985400      10.666439636200
       113    2   0.000000       25.504800000000       0.000000000000       9.079150000000
       114    2   0.000000       28.692900000000       5.521900000000       9.079150000000
       115    1   0.000000       25.504800000000       1.840637014600       7.491860363800
       116    1   0.000000       28.692900000000       7.362537014600       7.491860363800
       117    2   0.000000       28.692900000000       0.000000000000       9.079150000000
       118    2   0.000000       31.881000000000       5.521900000000       9.079150000000
       119    2   0.000000       27.098850000000       2.760950000000       9.079150000000
       120    2   0.000000       30.286950000000       8.282850000000       9.079150000000
       121    1   0.000000       38.257200000000       3.681262985400      10.666439636200
       122    1   0.000000       35.069100000000       9.203162985400      10.666439636200
       123    1   0.000000       33.475050000000       4.601587014600       7.491860363800
       124    1   0.000000       36.663150000000      10.123487014600       7.491860363800
       125    1   0.000000       36.663150000000       4.601587014600       7.491860363800
       126    1   0.000000       33.475050000000      10.123487014600       7.491860363800
       127    1   0.000000       33.475050000000       0.920312985400      10.666439636200
       128    1   0.000000       36.663150000000       6.442212985400      10.666439636200
       129    1   0.000000       36.663150000000       0.920312985400      10.666439636200
       130    2   0.000000       36.663150000000       2.760950000000       9.079150000000
       131    1   0.000000       33.475050000000       6.442212985400      10.666439636200
       132    2   0.000000       33.475050000000       8.282850000000       9.079150000000
       133    1   0.000000       35.069100000000       1.840637014600       7.491860363800
       134    1   0.000000       38.257200000000       7.362537014600       7.491860363800
       135    1   0.000000       35.069100000000       3.681262985400      10.666439636200
       136    1   0.000000       31.881000000000       9.203162985400      10.666439636200
       137    2   0.000000       31.881000000000       0.000000000000       9.079150000000
       138    2   0.000000       35.069100000000       5.521900000000       9.079150000000
       139    1   0.000000       31.881000000000       1.840637014600       7.491860363800
       140    1   0.000000       35.069100000000       7.362537014600       7.491860363800
       141    2   0.000000       35.069100000000       0.000000000000       9.079150000000
       142    2   0.000000       38.257200000000       5.521900000000       9.079150000000
       143    2   0.000000       33.475050000000       2.760950000000       9.079150000000
       144    2   0.000000       36.663150000000       8.282850000000       9.079150000000
       145    1   0.000000       44.633400000000       3.681262985400      10.666439636200
       146    1   0.000000       41.445300000000       9.203162985400      10.666439636200
       147    1   0.000000       39.851250000000       4.601587014600       7.491860363800
       148    1   0.000000       43.039350000000      10.123487014600       7.491860363800
       149    1   0.000000       43.039350000000       4.601587014600       7.491860363800
       150    1   0.000000       39.851250000000      10.123487014600       7.491860363800
       151    1   0.000000       39.851250000000       0.920312985400      10.666439636200
       152    1   0.000000       43.039350000000       6.442212985400      10.666439636200
       153    1   0.000000       43.039350000000       0.920312985400      10.666439636200
       154    2   0.000000       43.039350000000       2.760950000000       9.079150000000
       155    1   0.000000       39.851250000000       6.442212985400      10.666439636200
       156    2   0.000000       39.851250000000       8.282850000000       9.079150000000
       157    1   0.000000       41.445300000000       1.840637014600       7.491860363800
       158    1   0.000000       44.633400000000       7.362537014600       7.491860363800
       159    1   0.000000       41.445300000000       3.681262985400      10.666439636200
       160    1   0.000000       38.257200000000       9.203162985400      10.666439636200
       161    2   0.000000       38.257200000000       0.000000000000       9.079150000000
       162    2   0.000000       41.445300000000       5.521900000000       9.079150000000
       163    1   0.000000       38.257200000000       1.840637014600       7.491860363800
       164    1   0.000000       41.445300000000       7.362537014600       7.491860363800
       165    2   0.000000       41.445300000000       0.000000000000       9.079150000000
       166    2   0.000000       44.633400000000       5.521900000000       9.079150000000
       167    2   0.000000       39.851250000000       2.760950000000       9.079150000000
       168    2   0.000000       43.039350000000       8.282850000000       9.079150000000
       169    1   0.000000       51.009600000000       3.681262985400      10.666439636200
       170    1   0.000000       47.821500000000       9.203162985400      10.666439636200
       171    1   0.000000       46.227450000000       4.601587014600       7.491860363800
       172    1   0.000000       49.415550000000      10.123487014600       7.491860363800
       173    1   0.000000       49.415550000000       4.601587014600       7.491860363800
       174    1   0.000000       46.227450000000      10.123487014600       7.491860363800
       175    1   0.000000       46.227450000000       0.920312985400      10.666439636200
       176    1   0.000000       49.415550000000       6.442212985400      10.666439636200
       177    1   0.000000       49.415550000000       0.920312985400      10.666439636200
       178    2   0.000000       49.415550000000       2.760950000000       9.079150000000
       179    1   0.000000       46.227450000000       6.442212985400      10.666439636200
       180    2   0.000000       46.227450000000       8.282850000000       9.079150000000
       181    1   0.000000       47.821500000000       1.840637014600       7.491860363800
       182    1   0.000000       51.009600000000       7.362537014600       7.491860363800
       183    1   0.000000       47.821500000000       3.681262985400      10.666439636200
       184    1   0.000000       44.633400000000       9.203162985400      10.666439636200
       185    2   0.000000       44.633400000000       0.000000000000       9.079150000000
       186    2   0.000000       47.821500000000       5.521900000000       9.079150000000
       187    1   0.000000       44.633400000000       1.840637014600       7.491860363800
       188    1   0.000000       47.821500000000       7.362537014600       7.491860363800
       189    2   0.000000       47.821500000000       0.000000000000       9.079150000000
       190    2   0.000000       51.009600000000       5.521900000000       9.079150000000
       191    2   0.000000       46.227450000000       2.760950000000       9.079150000000
       192    2   0.000000       49.415550000000       8.282850000000       9.079150000000
       193    1   0.000000       57.385800000000       3.681262985400      10.666439636200
       194    1   0.000000       54.197700000000       9.203162985400      10.666439636200
       195    1   0.000000       52.603650000000       4.601587014600       7.491860363800
       196    1   0.000000       55.791750000000      10.123487014600       7.491860363800
       197    1   0.000000       55.791750000000       4.601587014600       7.491860363800
       198    1   0.000000       52.603650000000      10.123487014600       7.491860363800
       199    1   0.000000       52.603650000000       0.920312985400      10.666439636200
       200    1   0.000000       55.791750000000       6.442212985400      10.666439636200
       201    1   0.000000       55.791750000000       0.920312985400      10.666439636200
       202    2   0.000000       55.791750000000       2.760950000000       9.079150000000
       203    1   0.000000       52.603650000000       6.442212985400      10.666439636200
       204    2   0.000000       52.603650000000       8.282850000000       9.079150000000
       205    1   0.000000       54.197700000000       1.840637014600       7.491860363800
       206    1   0.000000       57.385800000000       7.362537014600       7.491860363800
       207    1   0.000000       54.197700000000       3.681262985400      10.666439636200
       208    1   0.000000       51.009600000000       9.203162985400      10.666439636200
       209    2   0.000000       51.009600000000       0.000000000000       9.079150000000
       210    2   0.000000       54.197700000000       5.521900000000       9.079150000000
       211    1   0.000000       51.009600000000       1.840637014600       7.491860363800
       212    1   0.000000       54.197700000000       7.362537014600       7.491860363800
       213    2   0.000000       54.197700000000       0.000000000000       9.079150000000
       214    2   0.000000       57.385800000000       5.521900000000       9.079150000000
       215    2   0.000000       52.603650000000       2.760950000000       9.079150000000
       216    2   0.000000       55.791750000000       8.282850000000       9.079150000000
       217    1   0.000000       63.762000000000       3.681262985400      10.666439636200
       218    1   0.000000       60.573900000000       9.203162985400      10.666439636200
       219    1   0.000000       58.979850000000       4.601587014600       7.491860363800
       220    1   0.000000       62.167950000000      10.123487014600       7.491860363800
       221    1   0.000000       62.167950000000       4.601587014600       7.491860363800
       222    1   0.000000       58.979850000000      10.123487014600       7.491860363800
       223    1   0.000000       58.979850000000       0.920312985400      10.666439636200
       224    1   0.000000       62.167950000000       6.442212985400      10.666439636200
       225    1   0.000000       62.167950000000       0.920312985400      10.666439636200
       226    2   0.000000       62.167950000000       2.760950000000       9.079150000000
       227    1   0.000000       58.979850000000       6.442212985400      10.666439636200
       228    2   0.000000       58.979850000000       8.282850000000       9.079150000000
       229    1   0.000000       60.573900000000       1.840637014600       7.491860363800
       230    1   0.000000       63.762000000000       7.362537014600       7.491860363800
       231    1   0.000000       60.573900000000       3.681262985400      10.666439636200
       232    1   0.000000       57.385800000000       9.203162985400      10.666439636200
       233    2   0.000000       57.385800000000       0.000000000000       9.079150000000
       234    2   0.000000       60.573900000000       5.521900000000       9.079150000000
       235    1   0.000000       57.385800000000       1.840637014600       7.491860363800
       236    1   0.000000       60.573900000000       7.362537014600       7.491860363800
       237    2   0.000000       60.573900000000       0.000000000000       9.079150000000
       238    2   0.000000       63.762000000000       5.521900000000       9.079150000000
       239    2   0.000000       58.979850000000       2.760950000000       9.079150000000
       240    2   0.000000       62.167950000000       8.282850000000       9.079150000000
       241    1   0.000000       70.138200000000       3.681262985400      10.666439636200
       242    1   0.000000       66.950100000000       9.203162985400      10.666439636200
       243    1   0.000000       65.356050000000       4.601587014600       7.491860363800
       244    1   0.000000       68.544150000000      10.123487014600       7.491860363800
       245    1   0.000000       68.544150000000       4.601587014600       7.491860363800
       246    1   0.000000       65.356050000000      10.123487014600       7.491860363800
       247    1   0.000000       65.356050000000       0.920312985400      10.666439636200
       248    1   0.000000       68.544150000000       6.442212985400      10.666439636200
       249    1   0.000000       68.544150000000       0.920312985400      10.666439636200
       250    2   0.000000       68.544150000000       2.760950000000       9.079150000000
       251    1   0.000000       65.356050000000       6.442212985400      10.666439636200
       252    2   0.000000       65.356050000000       8.282850000000       9.079150000000
       253    1   0.000000       66.950100000000       1.840637014600       7.491860363800
       254    1   0.000000       70.138200000000       7.362537014600       7.491860363800
       255    1   0.000000       66.950100000000       3.681262985400      10.666439636200
       256    1   0.000000       63.762000000000       9.203162985400      10.666439636200
       257    2   0.000000       63.762000000000       0.000000000000       9.079150000000
       258    2   0.000000       66.950100000000       5.521900000000       9.079150000000
       259    1   0.000000       63.762000000000       1.840637014600       7.491860363800
       260    1   0.000000       66.950100000000       7.362537014600       7.491860363800
       261    2   0.000000       66.950100000000       0.000000000000       9.079150000000
       262    2   0.000000       70.138200000000       5.521900000000       9.079150000000
       263    2   0.000000       65.356050000000       2.760950000000       9.079150000000
       264    2   0.000000       68.544150000000       8.282850000000       9.079150000000
       265    1   0.000000       76.514400000000       3.681262985400      10.666439636200
       266    1   0.000000       73.326300000000       9.203162985400      10.666439636200
       267    1   0.000000       71.732250000000       4.601587014600       7.491860363800
       268    1   0.000000       74.920350000000      10.123487014600       7.491860363800
       269    1   0.000000       74.920350000000       4.601587014600       7.491860363800
       270    1   0.000000       71.732250000000      10.123487014600       7.491860363800
       271    1   0.000000       71.732250000000       0.920312985400      10.666439636200
       272    1   0.000000       74.920350000000       6.442212985400      10.666439636200
       273    1   0.000000       74.920350000000       0.920312985400      10.666439636200
       274    2   0.000000       74.920350000000       2.760950000000       9.079150000000
       275    1   0.000000       71.732250000000       6.442212985400      10.666439636200
       276    2   0.000000       71.732250000000       8.282850000000       9.079150000000
       277    1   0.000000       73.326300000000       1.840637014600       7.491860363800
       278    1   0.000000       76.514400000000       7.362537014600       7.491860363800
       279    1   0.000000       73.326300000000       3.681262985400      10.666439636200
       280    1   0.000000       70.138200000000       9.203162985400      10.666439636200
       281    2   0.000000       70.138200000000       0.000000000000       9.079150000000
       282    2   0.000000       73.326300000000       5.521900000000       9.079150000000
       283    1   0.000000       70.138200000000       1.840637014600       7.491860363800
       284    1   0.000000       73.326300000000       7.362537014600       7.491860363800
       285    2   0.000000       73.326300000000       0.000000000000       9.079150000000
       286    2   0.000000       76.514400000000       5.521900000000       9.079150000000
       287    2   0.000000       71.732250000000       2.760950000000       9.079150000000
       288    2   0.000000       74.920350000000       8.282850000000       9.079150000000
       289    1   0.000000       82.890600000000       3.681262985400      10.666439636200
       290    1   0.000000       79.702500000000       9.203162985400      10.666439636200
       291    1   0.000000       78.108450000000       4.601587014600       7.491860363800
       292    1   0.000000       81.296550000000      10.123487014600       7.491860363800
       293    1   0.000000       81.296550000000       4.601587014600       7.491860363800
       294    1   0.000000       78.108450000000      10.123487014600       7.491860363800
       295    1   0.000000       78.108450000000       0.920312985400      10.666439636200
       296    1   0.000000       81.296550000000       6.442212985400      10.666439636200
       297    1   0.000000       81.296550000000       0.920312985400      10.666439636200
       298    2   0.000000       81.296550000000       2.760950000000       9.079150000000
       299    1   0.000000       78.108450000000       6.442212985400      10.666439636200
       300    2   0.000000       78.108450000000       8.282850000000       9.079150000000
       301    1   0.000000       79.702500000000       1.840637014600       7.491860363800
       302    1   0.000000       82.890600000000       7.362537014600       7.491860363800
       303    1   0.000000       79.702500000000       3.681262985400      10.666439636200
       304    1   0.000000       76.514400000000       9.203162985400      10.666439636200
       305    2   0.000000       76.514400000000       0.000000000000       9.079150000000
       306    2   0.000000       79.702500000000       5.521900000000       9.079150000000
       307    1   0.000000       76.514400000000       1.840637014600       7.491860363800
       308    1   0.000000       79.702500000000       7.362537014600       7.491860363800
       309    2   0.000000       79.702500000000       0.000000000000       9.079150000000
       310    2   0.000000       82.890600000000       5.521900000000       9.079150000000
       311    2   0.000000       78.108450000000       2.760950000000       9.079150000000
       312    2   0.000000       81.296550000000       8.282850000000       9.079150000000
       313    1   0.000000       89.266800000000       3.681262985400      10.666439636200
       314    1   0.000000       86.078700000000       9.203162985400      10.666439636200
       315    1   0.000000       84.484650000000       4.601587014600       7.491860363800
       316    1   0.000000       87.672750000000      10.123487014600       7.491860363800
       317    1   0.000000       87.672750000000       4.601587014600       7.491860363800
       318    1   0.000000       84.484650000000      10.123487014600       7.491860363800
       319    1   0.000000       84.484650000000       0.920312985400      10.666439636200
       320    1   0.000000       87.672750000000       6.442212985400      10.666439636200
       321    1   0.000000       87.672750000000       0.920312985400      10.666439636200
       322    2   0.000000       87.672750000000       2.760950000000       9.079150000000
       323    1   0.000000       84.484650000000       6.442212985400      10.666439636200
       324    2   0.000000       84.484650000000       8.282850000000       9.079150000000
       325    1   0.000000       86.078700000000       1.840637014600       7.491860363800
       326    1   0.000000       89.266800000000       7.362537014600       7.491860363800