 # Nb8 Se16
  
        2688  atoms
           2  atom types
 
      0.000000000000      97.477800000000  xlo xhi
      0.000000000000      96.478400000000  ylo yhi
      0.000000000000      18.366500000000  zlo zhi
 
Masses
 
            1   92.90638000             # Nb
            2   78.96000000             # Se
 
Atoms # atomic
 
         1    1        5.222025000000       3.014950000000       9.183250000000
         2    1        1.740675000000       9.044850000000       9.183250000000
         3    2        0.000000000000       4.019929313400      10.852213855000
         4    2        3.481350000000      10.049829313400      10.852213855000
         5    2        5.222025000000       1.004979313400      10.852213855000
         6    2        1.740675000000       7.034879313400      10.852213855000
         7    1        0.000000000000       0.000000000000       9.183250000000
         8    1        3.481350000000       6.029900000000       9.183250000000
         9    1        3.481350000000       0.000000000000       9.183250000000
        10    1        0.000000000000       6.029900000000       9.183250000000
        11    2        1.740675000000       5.024920686600       7.514286145000
        12    2        5.222025000000      11.054820686600       7.514286145000
        13    2        3.481350000000       2.009970686600       7.514286145000
        14    2        0.000000000000       8.039870686600       7.514286145000
        15    2        0.000000000000       2.009970686600       7.514286145000
        16    2        3.481350000000       8.039870686600       7.514286145000
        17    2        3.481350000000       4.019929313400      10.852213855000
        18    2        0.000000000000      10.049829313400      10.852213855000
        19    2        1.740675000000       1.004979313400      10.852213855000
        20    2        5.222025000000       7.034879313400      10.852213855000
        21    1        1.740675000000       3.014950000000       9.183250000000
        22    1        5.222025000000       9.044850000000       9.183250000000
        23    2        5.222025000000       5.024920686600       7.514286145000
        24    2        1.740675000000      11.054820686600       7.514286145000
        25    1       12.184725000000       3.014950000000       9.183250000000
        26    1        8.703375000000       9.044850000000       9.183250000000
        27    2        6.962700000000       4.019929313400      10.852213855000
        28    2       10.444050000000      10.049829313400      10.852213855000
        29    2       12.184725000000       1.004979313400      10.852213855000
        30    2        8.703375000000       7.034879313400      10.852213855000
        31    1        6.962700000000       0.000000000000       9.183250000000
        32    1       10.444050000000       6.029900000000       9.183250000000
        33    1       10.444050000000       0.000000000000       9.183250000000
        34    1        6.962700000000       6.029900000000       9.183250000000
        35    2        8.703375000000       5.024920686600       7.514286145000
        36    2       12.184725000000      11.054820686600       7.514286145000
        37    2       10.444050000000       2.009970686600       7.514286145000
        38    2        6.962700000000       8.039870686600       7.514286145000
        39    2        6.962700000000       2.009970686600       7.514286145000
        40    2       10.444050000000       8.039870686600       7.514286145000
        41    2       10.444050000000       4.019929313400      10.852213855000
        42    2        6.962700000000      10.049829313400      10.852213855000
        43    2        8.703375000000       1.004979313400      10.852213855000
        44    2       12.184725000000       7.034879313400      10.852213855000
        45    1        8.703375000000       3.014950000000       9.183250000000
        46    1       12.184725000000       9.044850000000       9.183250000000
        47    2       12.184725000000       5.024920686600       7.514286145000
        48    2        8.703375000000      11.054820686600       7.514286145000
        49    1       19.147425000000       3.014950000000       9.183250000000
        50    1       15.666075000000       9.044850000000       9.183250000000
        51    2       13.925400000000       4.019929313400      10.852213855000
        52    2       17.406750000000      10.049829313400      10.852213855000
        53    2       19.147425000000       1.004979313400      10.852213855000
        54    2       15.666075000000       7.034879313400      10.852213855000
        55    1       13.925400000000       0.000000000000       9.183250000000
        56    1       17.406750000000       6.029900000000       9.183250000000
        57    1       17.406750000000       0.000000000000       9.183250000000
        58    1       13.925400000000       6.029900000000       9.183250000000
        59    2       15.666075000000       5.024920686600       7.514286145000
        60    2       19.147425000000      11.054820686600       7.514286145000
        61    2       17.406750000000       2.009970686600       7.514286145000
        62    2       13.925400000000       8.039870686600       7.514286145000
        63    2       13.925400000000       2.009970686600       7.514286145000
        64    2       17.406750000000       8.039870686600       7.514286145000
        65    2       17.406750000000       4.019929313400      10.852213855000
        66    2       13.925400000000      10.049829313400      10.852213855000
        67    2       15.666075000000       1.004979313400      10.852213855000
        68    2       19.147425000000       7.034879313400      10.852213855000
        69    1       15.666075000000       3.014950000000       9.183250000000
        70    1       19.147425000000       9.044850000000       9.183250000000
        71    2       19.147425000000       5.024920686600       7.514286145000
        72    2       15.666075000000      11.054820686600       7.514286145000
        73    1       26.110125000000       3.014950000000       9.183250000000
        74    1       22.628775000000       9.044850000000       9.183250000000
        75    2       20.888100000000       4.019929313400      10.852213855000
        76    2       24.369450000000      10.049829313400      10.852213855000
        77    2       26.110125000000       1.004979313400      10.852213855000
        78    2       22.628775000000       7.034879313400      10.852213855000
        79    1       20.888100000000       0.000000000000       9.183250000000
        80    1       24.369450000000       6.029900000000       9.183250000000
        81    1       24.369450000000       0.000000000000       9.183250000000
        82    1       20.888100000000       6.029900000000       9.183250000000
        83    2       22.628775000000       5.024920686600       7.514286145000
        84    2       26.110125000000      11.054820686600       7.514286145000
        85    2       24.369450000000       2.009970686600       7.514286145000
        86    2       20.888100000000       8.039870686600       7.514286145000
        87    2       20.888100000000       2.009970686600       7.514286145000
        88    2       24.369450000000       8.039870686600       7.514286145000
        89    2       24.369450000000       4.019929313400      10.852213855000
        90    2       20.888100000000      10.049829313400      10.852213855000
        91    2       22.628775000000       1.004979313400      10.852213855000
        92    2       26.110125000000       7.034879313400      10.852213855000
        93    1       22.628775000000       3.014950000000       9.183250000000
        94    1       26.110125000000       9.044850000000       9.183250000000
        95    2       26.110125000000       5.024920686600       7.514286145000
        96    2       22.628775000000      11.054820686600       7.514286145000
        97    1       33.072825000000       3.014950000000       9.183250000000
        98    1       29.591475000000       9.044850000000       9.183250000000
        99    2       27.850800000000       4.019929313400      10.852213855000
       100    2       31.332150000000      10.049829313400      10.852213855000
       101    2       33.072825000000       1.004979313400      10.852213855000
       102    2       29.591475000000       7.034879313400      10.852213855000
       103    1       27.850800000000       0.000000000000       9.183250000000
       104    1       31.332150000000       6.029900000000       9.183250000000
       105    1       31.332150000000       0.000000000000       9.183250000000
       106    1       27.850800000000       6.029900000000       9.183250000000
       107    2       29.591475000000       5.024920686600       7.514286145000
       108    2       33.072825000000      11.054820686600       7.514286145000
       109    2       31.332150000000       2.009970686600       7.514286145000
       110    2       27.850800000000       8.039870686600       7.514286145000
       111    2       27.850800000000       2.009970686600       7.514286145000
       112    2       31.332150000000       8.039870686600       7.514286145000
       113    2       31.332150000000       4.019929313400      10.852213855000
       114    2       27.850800000000      10.049829313400      10.852213855000
       115    2       29.591475000000       1.004979313400      10.852213855000
       116    2       33.072825000000       7.034879313400      10.852213855000
       117    1       29.591475000000       3.014950000000       9.183250000000
       118    1       33.072825000000       9.044850000000       9.183250000000
       119    2       33.072825000000       5.024920686600       7.514286145000
       120    2       29.591475000000      11.054820686600       7.514286145000
       121    1       40.035525000000       3.014950000000       9.183250000000
       122    1       36.554175000000       9.044850000000       9.183250000000
       123    2       34.813500000000       4.019929313400      10.852213855000
       124    2       38.294850000000      10.049829313400      10.852213855000
       125    2       40.035525000000       1.004979313400      10.852213855000
       126    2       36.554175000000       7.034879313400      10.852213855000
       127    1       34.813500000000       0.000000000000       9.183250000000
       128    1       38.294850000000       6.029900000000       9.183250000000
       129    1       38.294850000000       0.000000000000       9.183250000000
       130    1       34.813500000000       6.029900000000       9.183250000000
       131    2       36.554175000000       5.024920686600       7.514286145000
       132    2       40.035525000000      11.054820686600       7.514286145000
       133    2       38.294850000000       2.009970686600       7.514286145000
       134    2       34.813500000000       8.039870686600       7.514286145000
       135    2       34.813500000000       2.009970686600       7.514286145000
       136    2       38.294850000000       8.039870686600       7.514286145000
       137    2       38.294850000000       4.019929313400      10.852213855000
       138    2       34.813500000000      10.049829313400      10.852213855000
       139    2       36.554175000000       1.004979313400      10.852213855000
       140    2       40.035525000000       7.034879313400      10.852213855000
       141    1       36.554175000000       3.014950000000       9.183250000000
       142    1       40.035525000000       9.044850000000       9.183250000000
       143    2       40.035525000000       5.024920686600       7.514286145000
       144    2       36.554175000000      11.054820686600       7.514286145000
       145    1       46.998225000000       3.014950000000       9.183250000000
       146    1       43.516875000000       9.044850000000       9.183250000000
       147    2       41.776200000000       4.019929313400      10.852213855000
       148    2       45.257550000000      10.049829313400      10.852213855000
       149    2       46.998225000000       1.004979313400      10.852213855000
       150    2       43.516875000000       7.034879313400      10.852213855000
       151    1       41.776200000000       0.000000000000       9.183250000000
       152    1       45.257550000000       6.029900000000       9.183250000000
       153    1       45.257550000000       0.000000000000       9.183250000000
       154    1       41.776200000000       6.029900000000       9.183250000000
       155    2       43.516875000000       5.024920686600       7.514286145000
       156    2       46.998225000000      11.054820686600       7.514286145000
       157    2       45.257550000000       2.009970686600       7.514286145000
       158    2       41.776200000000       8.039870686600       7.514286145000
       159    2       41.776200000000       2.009970686600       7.514286145000
       160    2       45.257550000000       8.039870686600       7.514286145000
       161    2       45.257550000000       4.019929313400      10.852213855000
       162    2       41.776200000000      10.049829313400      10.852213855000
       163    2       43.516875000000       1.004979313400      10.852213855000
       164    2       46.998225000000       7.034879313400      10.852213855000
       165    1       43.516875000000       3.014950000000       9.183250000000
       166    1       46.998225000000       9.044850000000       9.183250000000
       167    2       46.998225000000       5.024920686600       7.514286145000
       168    2       43.516875000000      11.054820686600       7.514286145000
       169    1       53.960925000000       3.014950000000       9.183250000000
       170    1       50.479575000000       9.044850000000       9.183250000000
       171    2       48.738900000000       4.019929313400      10.852213855000
       172    2       52.220250000000      10.049829313400      10.852213855000
       173    2       53.960925000000       1.004979313400      10.852213855000
       174    2       50.479575000000       7.034879313400      10.852213855000
       175    1       48.738900000000       0.000000000000       9.183250000000
       176    1       52.220250000000       6.029900000000       9.183250000000
       177    1       52.220250000000       0.000000000000       9.183250000000
       178    1       48.738900000000       6.029900000000       9.183250000000
       179    2       50.479575000000       5.024920686600       7.514286145000
       180    2       53.960925000000      11.054820686600       7.514286145000
       181    2       52.220250000000       2.009970686600       7.514286145000
       182    2       48.738900000000       8.039870686600       7.514286145000
       183    2       48.738900000000       2.009970686600       7.514286145000
       184    2       52.220250000000       8.039870686600       7.514286145000
       185    2       52.220250000000       4.019929313400      10.852213855000
       186    2       48.738900000000      10.049829313400      10.852213855000
       187    2       50.479575000000       1.004979313400      10.852213855000
       188    2       53.960925000000       7.034879313400      10.852213855000
       189    1       50.479575000000       3.014950000000       9.183250000000
       190    1       53.960925000000       9.044850000000       9.183250000000
       191    2       53.960925000000       5.024920686600       7.514286145000
       192    2       50.479575000000      11.054820686600       7.514286145000
       193    1       60.923625000000       3.014950000000       9.183250000000
       194    1       57.442275000000       9.044850000000       9.183250000000
       195    2       55.701600000000       4.019929313400      10.852213855000
       196    2       59.182950000000      10.049829313400      10.852213855000
       197    2       60.923625000000       1.004979313400      10.852213855000
       198    2       57.442275000000       7.034879313400      10.852213855000
       199    1       55.701600000000       0.000000000000       9.183250000000
       200    1       59.182950000000       6.029900000000       9.183250000000
       201    1       59.182950000000       0.000000000000       9.183250000000
       202    1       55.701600000000       6.029900000000       9.183250000000
       203    2       57.442275000000       5.024920686600       7.514286145000
       204    2       60.923625000000      11.054820686600       7.514286145000
       205    2       59.182950000000       2.009970686600       7.514286145000
       206    2       55.701600000000       8.039870686600       7.514286145000
       207    2       55.701600000000       2.009970686600       7.514286145000
       208    2       59.182950000000       8.039870686600       7.514286145000
       209    2       59.182950000000       4.019929313400      10.852213855000
       210    2       55.701600000000      10.049829313400      10.852213855000
       211    2       57.442275000000       1.004979313400      10.852213855000
       212    2       60.923625000000       7.034879313400      10.852213855000
       213    1       57.442275000000       3.014950000000       9.183250000000
       214    1       60.923625000000       9.044850000000       9.183250000000
       215    2       60.923625000000       5.024920686600       7.514286145000
       216    2       57.442275000000      11.054820686600       7.514286145000
       217    1       67.886325000000       3.014950000000       9.183250000000
       218    1       64.404975000000       9.044850000000       9.183250000000
       219    2       62.664300000000       4.019929313400      10.852213855000
       220    2       66.145650000000      10.049829313400      10.852213855000
       221    2       67.886325000000       1.004979313400      10.852213855000
       222    2       64.404975000000       7.034879313400      10.852213855000
       223    1       62.664300000000       0.000000000000       9.183250000000
       224    1       66.145650000000       6.029900000000       9.183250000000
       225    1       66.145650000000       0.000000000000       9.183250000000
       226    1       62.664300000000       6.029900000000       9.183250000000
       227    2       64.404975000000       5.024920686600       7.514286145000
       228    2       67.886325000000      11.054820686600       7.514286145000
       229    2       66.145650000000       2.009970686600       7.514286145000
       230    2       62.664300000000       8.039870686600       7.514286145000
       231    2       62.664300000000       2.009970686600       7.514286145000
       232    2       66.145650000000       8.039870686600       7.514286145000
       233    2       66.145650000000       4.019929313400      10.852213855000
       234    2       62.664300000000      10.049829313400      10.852213855000
       235    2       64.404975000000       1.004979313400      10.852213855000
       236    2       67.886325000000       7.034879313400      10.852213855000
       237    1       64.404975000000       3.014950000000       9.183250000000
       238    1       67.886325000000       9.044850000000       9.183250000000
       239    2       67.886325000000       5.024920686600       7.514286145000
       240    2       64.404975000000      11.054820686600       7.514286145000
       241    1       74.849025000000       3.014950000000       9.183250000000
       242    1       71.367675000000       9.044850000000       9.183250000000
       243    2       69.627000000000       4.019929313400      10.852213855000
       244    2       73.108350000000      10.049829313400      10.852213855000
       245    2       74.849025000000       1.004979313400      10.852213855000
       246    2       71.367675000000       7.034879313400      10.852213855000
       247    1       69.627000000000       0.000000000000       9.183250000000
       248    1       73.108350000000       6.029900000000       9.183250000000
       249    1       73.108350000000       0.000000000000       9.183250000000
       250    1       69.627000000000       6.029900000000       9.183250000000
       251    2       71.367675000000       5.024920686600       7.514286145000
       252    2       74.849025000000      11.054820686600       7.514286145000
       253    2       73.108350000000       2.009970686600       7.514286145000
       254    2       69.627000000000       8.039870686600       7.514286145000
       255    2       69.627000000000       2.009970686600       7.514286145000
       256    2       73.108350000000       8.039870686600       7.514286145000
       257    2       73.108350000000       4.019929313400      10.852213855000
       258    2       69.627000000000      10.049829313400      10.852213855000
       259    2       71.367675000000       1.004979313400      10.852213855000
       260    2       74.849025000000       7.034879313400      10.852213855000
       261    1       71.367675000000       3.014950000000       9.183250000000
       262    1       74.849025000000       9.044850000000       9.183250000000
       263    2       74.849025000000       5.024920686600       7.514286145000
       264    2       71.367675000000      11.054820686600       7.514286145000
       265    1       81.811725000000       3.014950000000       9.183250000000
       266    1       78.330375000000       9.044850000000       9.183250000000
       267    2       76.589700000000       4.019929313400      10.852213855000
       268    2       80.071050000000      10.049829313400      10.852213855000
       269    2       81.811725000000       1.004979313400      10.852213855000
       270    2       78.330375000000       7.034879313400      10.852213855000
       271    1       76.589700000000       0.000000000000       9.183250000000
       272    1       80.071050000000       6.029900000000       9.183250000000
       273    1       80.071050000000       0.000000000000       9.183250000000
       274    1       76.589700000000       6.029900000000       9.183250000000
       275    2       78.330375000000       5.024920686600       7.514286145000
       276    2       81.811725000000      11.054820686600       7.514286145000
       277    2       80.071050000000       2.009970686600       7.514286145000
       278    2       76.589700000000       8.039870686600       7.514286145000
       279    2       76.589700000000       2.009970686600       7.514286145000
       280    2       80.071050000000       8.039870686600       7.514286145000
       281    2       80.071050000000       4.019929313400      10.852213855000
       282    2       76.589700000000      10.049829313400      10.852213855000
       283    2       78.330375000000       1.004979313400      10.852213855000
       284    2       81.811725000000       7.034879313400      10.852213855000
       285    1       78.330375000000       3.014950000000       9.183250000000
       286    1       81.811725000000       9.044850000000       9.183250000000
       287    2       81.811725000000       5.024920686600       7.514286145000
       288    2       78.330375000000      11.054820686600       7.514286145000
       289    1       88.774425000000       3.014950000000       9.183250000000
       290    1       85.293075000000       9.044850000000       9.183250000000
       291    2       83.552400000000       4.019929313400      10.852213855000
       292    2       87.033750000000      10.049829313400      10.852213855000
       293    2       88.774425000000       1.004979313400      10.852213855000
       294    2       85.293075000000       7.034879313400      10.852213855000
       295    1       83.552400000000       0.000000000000       9.183250000000
       296    1       87.033750000000       6.029900000000       9.183250000000
       297    1       87.033750000000       0.000000000000       9.183250000000
       298    1       83.552400000000       6.029900000000       9.183250000000
       299    2       85.293075000000       5.024920686600       7.514286145000
       300    2       88.774425000000      11.054820686600       7.514286145000
       301    2       87.033750000000       2.009970686600       7.514286145000
       302    2       83.552400000000       8.039870686600       7.514286145000
       303    2       83.552400000000       2.009970686600       7.514286145000
       304    2       87.033750000000       8.039870686600       7.514286145000
       305    2       87.033750000000       4.019929313400      10.852213855000
       306    2       83.552400000000      10.049829313400      10.852213855000
       307    2       85.293075000000       1.004979313400      10.852213855000
       308    2       88.774425000000       7.034879313400      10.852213855000
       309    1       85.293075000000       3.014950000000       9.183250000000
       310    1       88.774425000000       9.044850000000       9.183250000000
       311    2       88.774425000000       5.024920686600       7.514286145000
       312    2       85.293075000000      11.054820686600       7.514286145000
       313    1       95.737125000000       3.014950000000       9.183250000000
       314    1       92.255775000000       9.044850000000       9.183250000000
       315    2       90.515100000000       4.019929313400      10.852213855000
       316    2       93.996450000000      10.049829313400      10.852213855000
       317    2       95.737125000000       1.004979313400      10.852213855000
       318    2       92.255775000000       7.034879313400      10.852213855000
       319    1       90.515100000000       0.000000000000       9.183250000000
       320    1       93.996450000000       6.029900000000       9.183250000000
       321    1       93.996450000000       0.000000000000       9.183250000000
       322    1       90.515100000000       6.029900000000       9.183250000000
       323    2       92.255775000000       5.024920686600       7.514286145000
       324    2       95.737125000000      11.054820686600       7.514286145000
       325    2       93.996450000000       2.009970686600       7.514286145000
       326    2       90.515100000000       8.039870686600       7.514286145000
       327    2       90.515100000000       2.009970686600       7.514286145000
       328    2       93.996450000000       8.039870686600       7.514286145000
       329    2       93.996450000000       4.019929313400      10.852213855000
       330    2       90.515100000000      10.049829313400      10.852213855000
       331    2       92.255775000000       1.004979313400      10.852213855000
       332    2       95.737125000000       7.034879313400      10.852213855000
       333    1       92.255775000000       3.014950000000       9.183250000000
       334    1       95.737125000000       9.044850000000       9.183250000000
       335    2       95.737125000000       5.024920686600       7.514286145000
       336    2       92.255775000000      11.054820686600       7.514286145000
       337    1        5.222025000000      15.074750000000       9.183250000000
       338    1        1.740675000000      21.104650000000       9.183250000000
       339    2        0.000000000000      16.079729313400      10.852213855000
       340    2        3.481350000000      22.109629313400      10.852213855000
       341    2        5.222025000000      13.064779313400      10.852213855000
       342    2        1.740675000000      19.094679313400      10.852213855000
       343    1        0.000000000000      12.059800000000       9.183250000000
       344    1        3.481350000000      18.089700000000       9.183250000000
       345    1        3.481350000000      12.059800000000       9.183250000000
       346    1        0.000000000000      18.089700000000       9.183250000000
       347    2        1.740675000000      17.084720686600       7.514286145000
       348    2        5.222025000000      23.114620686600       7.514286145000
       349    2        3.481350000000      14.069770686600       7.514286145000
       350    2        0.000000000000      20.099670686600       7.514286145000
       351    2        0.000000000000      14.069770686600       7.514286145000
       352    2        3.481350000000      20.099670686600       7.514286145000
       353    2        3.481350000000      16.079729313400      10.852213855000
       354    2        0.000000000000      22.109629313400      10.852213855000
       355    2        1.740675000000      13.064779313400      10.852213855000
       356    2        5.222025000000      19.094679313400      10.852213855000
       357    1        1.740675000000      15.074750000000       9.183250000000
       358    1        5.222025000000      21.104650000000       9.183250000000
       359    2        5.222025000000      17.084720686600       7.514286145000
       360    2        1.740675000000      23.114620686600       7.514286145000
       361    1       12.184725000000      15.074750000000       9.183250000000
       362    1        8.703375000000      21.104650000000       9.183250000000
       363    2        6.962700000000      16.079729313400      10.852213855000
       364    2       10.444050000000      22.109629313400      10.852213855000
       365    2       12.184725000000      13.064779313400      10.852213855000
       366    2        8.703375000000      19.094679313400      10.852213855000
       367    1        6.962700000000      12.059800000000       9.183250000000
       368    1       10.444050000000      18.089700000000       9.183250000000
       369    1       10.444050000000      12.059800000000       9.183250000000
       370    1        6.962700000000      18.089700000000       9.183250000000