 # S16 Ni8
  
        3240  atoms
           2  atom types
 
      0.000000000000     100.609500000000  xlo xhi
      0.000000000000     104.556600000000  ylo yhi
      0.000000000000      17.350900000000  zlo zhi
 
Masses
 
            1   32.06000000             # S
            2   58.69340000             # Ni
 
Atoms # atomic
 
         1    1        1.676825000000       0.968112794200       9.850886720500
         2    1        5.030475000000       6.776812794200       9.850886720500
         3    1        1.676825000000       4.840587205800       7.500013279500
         4    1        5.030475000000      10.649287205800       7.500013279500
         5    2        1.676825000000       2.904350000000       8.675450000000
         6    1        0.000000000000       1.936237205800       7.500013279500
         7    2        5.030475000000       8.713050000000       8.675450000000
         8    1        3.353650000000       7.744937205800       7.500013279500
         9    1        5.030475000000       4.840587205800       7.500013279500
        10    1        1.676825000000      10.649287205800       7.500013279500
        11    1        0.000000000000       3.872462794200       9.850886720500
        12    1        3.353650000000       9.681162794200       9.850886720500
        13    2        3.353650000000       0.000000000000       8.675450000000
        14    2        6.707300000000       5.808700000000       8.675450000000
        15    2        0.000000000000       0.000000000000       8.675450000000
        16    2        3.353650000000       5.808700000000       8.675450000000
        17    1        3.353650000000       3.872462794200       9.850886720500
        18    1        6.707300000000       9.681162794200       9.850886720500
        19    2        5.030475000000       2.904350000000       8.675450000000
        20    2        1.676825000000       8.713050000000       8.675450000000
        21    1        3.353650000000       1.936237205800       7.500013279500
        22    1        6.707300000000       7.744937205800       7.500013279500
        23    1        5.030475000000       0.968112794200       9.850886720500
        24    1        1.676825000000       6.776812794200       9.850886720500
        25    1        8.384125000000       0.968112794200       9.850886720500
        26    1       11.737775000000       6.776812794200       9.850886720500
        27    1        8.384125000000       4.840587205800       7.500013279500
        28    1       11.737775000000      10.649287205800       7.500013279500
        29    2        8.384125000000       2.904350000000       8.675450000000
        30    1        6.707300000000       1.936237205800       7.500013279500
        31    2       11.737775000000       8.713050000000       8.675450000000
        32    1       10.060950000000       7.744937205800       7.500013279500
        33    1       11.737775000000       4.840587205800       7.500013279500
        34    1        8.384125000000      10.649287205800       7.500013279500
        35    1        6.707300000000       3.872462794200       9.850886720500
        36    1       10.060950000000       9.681162794200       9.850886720500
        37    2       10.060950000000       0.000000000000       8.675450000000
        38    2       13.414600000000       5.808700000000       8.675450000000
        39    2        6.707300000000       0.000000000000       8.675450000000
        40    2       10.060950000000       5.808700000000       8.675450000000
        41    1       10.060950000000       3.872462794200       9.850886720500
        42    1       13.414600000000       9.681162794200       9.850886720500
        43    2       11.737775000000       2.904350000000       8.675450000000
        44    2        8.384125000000       8.713050000000       8.675450000000
        45    1       10.060950000000       1.936237205800       7.500013279500
        46    1       13.414600000000       7.744937205800       7.500013279500
        47    1       11.737775000000       0.968112794200       9.850886720500
        48    1        8.384125000000       6.776812794200       9.850886720500
        49    1       15.091425000000       0.968112794200       9.850886720500
        50    1       18.445075000000       6.776812794200       9.850886720500
        51    1       15.091425000000       4.840587205800       7.500013279500
        52    1       18.445075000000      10.649287205800       7.500013279500
        53    2       15.091425000000       2.904350000000       8.675450000000
        54    1       13.414600000000       1.936237205800       7.500013279500
        55    2       18.445075000000       8.713050000000       8.675450000000
        56    1       16.768250000000       7.744937205800       7.500013279500
        57    1       18.445075000000       4.840587205800       7.500013279500
        58    1       15.091425000000      10.649287205800       7.500013279500
        59    1       13.414600000000       3.872462794200       9.850886720500
        60    1       16.768250000000       9.681162794200       9.850886720500
        61    2       16.768250000000       0.000000000000       8.675450000000
        62    2       20.121900000000       5.808700000000       8.675450000000
        63    2       13.414600000000       0.000000000000       8.675450000000
        64    2       16.768250000000       5.808700000000       8.675450000000
        65    1       16.768250000000       3.872462794200       9.850886720500
        66    1       20.121900000000       9.681162794200       9.850886720500
        67    2       18.445075000000       2.904350000000       8.675450000000
        68    2       15.091425000000       8.713050000000       8.675450000000
        69    1       16.768250000000       1.936237205800       7.500013279500
        70    1       20.121900000000       7.744937205800       7.500013279500
        71    1       18.445075000000       0.968112794200       9.850886720500
        72    1       15.091425000000       6.776812794200       9.850886720500
        73    1       21.798725000000       0.968112794200       9.850886720500
        74    1       25.152375000000       6.776812794200       9.850886720500
        75    1       21.798725000000       4.840587205800       7.500013279500
        76    1       25.152375000000      10.649287205800       7.500013279500
        77    2       21.798725000000       2.904350000000       8.675450000000
        78    1       20.121900000000       1.936237205800       7.500013279500
        79    2       25.152375000000       8.713050000000       8.675450000000
        80    1       23.475550000000       7.744937205800       7.500013279500
        81    1       25.152375000000       4.840587205800       7.500013279500
        82    1       21.798725000000      10.649287205800       7.500013279500
        83    1       20.121900000000       3.872462794200       9.850886720500
        84    1       23.475550000000       9.681162794200       9.850886720500
        85    2       23.475550000000       0.000000000000       8.675450000000
        86    2       26.829200000000       5.808700000000       8.675450000000
        87    2       20.121900000000       0.000000000000       8.675450000000
        88    2       23.475550000000       5.808700000000       8.675450000000
        89    1       23.475550000000       3.872462794200       9.850886720500
        90    1       26.829200000000       9.681162794200       9.850886720500
        91    2       25.152375000000       2.904350000000       8.675450000000
        92    2       21.798725000000       8.713050000000       8.675450000000
        93    1       23.475550000000       1.936237205800       7.500013279500
        94    1       26.829200000000       7.744937205800       7.500013279500
        95    1       25.152375000000       0.968112794200       9.850886720500
        96    1       21.798725000000       6.776812794200       9.850886720500
        97    1       28.506025000000       0.968112794200       9.850886720500
        98    1       31.859675000000       6.776812794200       9.850886720500
        99    1       28.506025000000       4.840587205800       7.500013279500
       100    1       31.859675000000      10.649287205800       7.500013279500
       101    2       28.506025000000       2.904350000000       8.675450000000
       102    1       26.829200000000       1.936237205800       7.500013279500
       103    2       31.859675000000       8.713050000000       8.675450000000
       104    1       30.182850000000       7.744937205800       7.500013279500
       105    1       31.859675000000       4.840587205800       7.500013279500
       106    1       28.506025000000      10.649287205800       7.500013279500
       107    1       26.829200000000       3.872462794200       9.850886720500
       108    1       30.182850000000       9.681162794200       9.850886720500
       109    2       30.182850000000       0.000000000000       8.675450000000
       110    2       33.536500000000       5.808700000000       8.675450000000
       111    2       26.829200000000       0.000000000000       8.675450000000
       112    2       30.182850000000       5.808700000000       8.675450000000
       113    1       30.182850000000       3.872462794200       9.850886720500
       114    1       33.536500000000       9.681162794200       9.850886720500
       115    2       31.859675000000       2.904350000000       8.675450000000
       116    2       28.506025000000       8.713050000000       8.675450000000
       117    1       30.182850000000       1.936237205800       7.500013279500
       118    1       33.536500000000       7.744937205800       7.500013279500
       119    1       31.859675000000       0.968112794200       9.850886720500
       120    1       28.506025000000       6.776812794200       9.850886720500
       121    1       35.213325000000       0.968112794200       9.850886720500
       122    1       38.566975000000       6.776812794200       9.850886720500
       123    1       35.213325000000       4.840587205800       7.500013279500
       124    1       38.566975000000      10.649287205800       7.500013279500
       125    2       35.213325000000       2.904350000000       8.675450000000
       126    1       33.536500000000       1.936237205800       7.500013279500
       127    2       38.566975000000       8.713050000000       8.675450000000
       128    1       36.890150000000       7.744937205800       7.500013279500
       129    1       38.566975000000       4.840587205800       7.500013279500
       130    1       35.213325000000      10.649287205800       7.500013279500
       131    1       33.536500000000       3.872462794200       9.850886720500
       132    1       36.890150000000       9.681162794200       9.850886720500
       133    2       36.890150000000       0.000000000000       8.675450000000
       134    2       40.243800000000       5.808700000000       8.675450000000
       135    2       33.536500000000       0.000000000000       8.675450000000
       136    2       36.890150000000       5.808700000000       8.675450000000
       137    1       36.890150000000       3.872462794200       9.850886720500
       138    1       40.243800000000       9.681162794200       9.850886720500
       139    2       38.566975000000       2.904350000000       8.675450000000
       140    2       35.213325000000       8.713050000000       8.675450000000
       141    1       36.890150000000       1.936237205800       7.500013279500
       142    1       40.243800000000       7.744937205800       7.500013279500
       143    1       38.566975000000       0.968112794200       9.850886720500
       144    1       35.213325000000       6.776812794200       9.850886720500
       145    1       41.920625000000       0.968112794200       9.850886720500
       146    1       45.274275000000       6.776812794200       9.850886720500
       147    1       41.920625000000       4.840587205800       7.500013279500
       148    1       45.274275000000      10.649287205800       7.500013279500
       149    2       41.920625000000       2.904350000000       8.675450000000
       150    1       40.243800000000       1.936237205800       7.500013279500
       151    2       45.274275000000       8.713050000000       8.675450000000
       152    1       43.597450000000       7.744937205800       7.500013279500
       153    1       45.274275000000       4.840587205800       7.500013279500
       154    1       41.920625000000      10.649287205800       7.500013279500
       155    1       40.243800000000       3.872462794200       9.850886720500
       156    1       43.597450000000       9.681162794200       9.850886720500
       157    2       43.597450000000       0.000000000000       8.675450000000
       158    2       46.951100000000       5.808700000000       8.675450000000
       159    2       40.243800000000       0.000000000000       8.675450000000
       160    2       43.597450000000       5.808700000000       8.675450000000
       161    1       43.597450000000       3.872462794200       9.850886720500
       162    1       46.951100000000       9.681162794200       9.850886720500
       163    2       45.274275000000       2.904350000000       8.675450000000
       164    2       41.920625000000       8.713050000000       8.675450000000
       165    1       43.597450000000       1.936237205800       7.500013279500
       166    1       46.951100000000       7.744937205800       7.500013279500
       167    1       45.274275000000       0.968112794200       9.850886720500
       168    1       41.920625000000       6.776812794200       9.850886720500
       169    1       48.627925000000       0.968112794200       9.850886720500
       170    1       51.981575000000       6.776812794200       9.850886720500
       171    1       48.627925000000       4.840587205800       7.500013279500
       172    1       51.981575000000      10.649287205800       7.500013279500
       173    2       48.627925000000       2.904350000000       8.675450000000
       174    1       46.951100000000       1.936237205800       7.500013279500
       175    2       51.981575000000       8.713050000000       8.675450000000
       176    1       50.304750000000       7.744937205800       7.500013279500
       177    1       51.981575000000       4.840587205800       7.500013279500
       178    1       48.627925000000      10.649287205800       7.500013279500
       179    1       46.951100000000       3.872462794200       9.850886720500
       180    1       50.304750000000       9.681162794200       9.850886720500
       181    2       50.304750000000       0.000000000000       8.675450000000
       182    2       53.658400000000       5.808700000000       8.675450000000
       183    2       46.951100000000       0.000000000000       8.675450000000
       184    2       50.304750000000       5.808700000000       8.675450000000
       185    1       50.304750000000       3.872462794200       9.850886720500
       186    1       53.658400000000       9.681162794200       9.850886720500
       187    2       51.981575000000       2.904350000000       8.675450000000
       188    2       48.627925000000       8.713050000000       8.675450000000
       189    1       50.304750000000       1.936237205800       7.500013279500
       190    1       53.658400000000       7.744937205800       7.500013279500
       191    1       51.981575000000       0.968112794200       9.850886720500
       192    1       48.627925000000       6.776812794200       9.850886720500
       193    1       55.335225000000       0.968112794200       9.850886720500
       194    1       58.688875000000       6.776812794200       9.850886720500
       195    1       55.335225000000       4.840587205800       7.500013279500
       196    1       58.688875000000      10.649287205800       7.500013279500
       197    2       55.335225000000       2.904350000000       8.675450000000
       198    1       53.658400000000       1.936237205800       7.500013279500
       199    2       58.688875000000       8.713050000000       8.675450000000
       200    1       57.012050000000       7.744937205800       7.500013279500
       201    1       58.688875000000       4.840587205800       7.500013279500
       202    1       55.335225000000      10.649287205800       7.500013279500
       203    1       53.658400000000       3.872462794200       9.850886720500
       204    1       57.012050000000       9.681162794200       9.850886720500
       205    2       57.012050000000       0.000000000000       8.675450000000
       206    2       60.365700000000       5.808700000000       8.675450000000
       207    2       53.658400000000       0.000000000000       8.675450000000
       208    2       57.012050000000       5.808700000000       8.675450000000
       209    1       57.012050000000       3.872462794200       9.850886720500
       210    1       60.365700000000       9.681162794200       9.850886720500
       211    2       58.688875000000       2.904350000000       8.675450000000
       212    2       55.335225000000       8.713050000000       8.675450000000
       213    1       57.012050000000       1.936237205800       7.500013279500
       214    1       60.365700000000       7.744937205800       7.500013279500
       215    1       58.688875000000       0.968112794200       9.850886720500
       216    1       55.335225000000       6.776812794200       9.850886720500
       217    1       62.042525000000       0.968112794200       9.850886720500
       218    1       65.396175000000       6.776812794200       9.850886720500
       219    1       62.042525000000       4.840587205800       7.500013279500
       220    1       65.396175000000      10.649287205800       7.500013279500
       221    2       62.042525000000       2.904350000000       8.675450000000
       222    1       60.365700000000       1.936237205800       7.500013279500
       223    2       65.396175000000       8.713050000000       8.675450000000
       224    1       63.719350000000       7.744937205800       7.500013279500
       225    1       65.396175000000       4.840587205800       7.500013279500
       226    1       62.042525000000      10.649287205800       7.500013279500
       227    1       60.365700000000       3.872462794200       9.850886720500
       228    1       63.719350000000       9.681162794200       9.850886720500
       229    2       63.719350000000       0.000000000000       8.675450000000
       230    2       67.073000000000       5.808700000000       8.675450000000
       231    2       60.365700000000       0.000000000000       8.675450000000
       232    2       63.719350000000       5.808700000000       8.675450000000
       233    1       63.719350000000       3.872462794200       9.850886720500
       234    1       67.073000000000       9.681162794200       9.850886720500
       235    2       65.396175000000       2.904350000000       8.675450000000
       236    2       62.042525000000       8.713050000000       8.675450000000
       237    1       63.719350000000       1.936237205800       7.500013279500
       238    1       67.073000000000       7.744937205800       7.500013279500
       239    1       65.396175000000       0.968112794200       9.850886720500
       240    1       62.042525000000       6.776812794200       9.850886720500
       241    1       68.749825000000       0.968112794200       9.850886720500
       242    1       72.103475000000       6.776812794200       9.850886720500
       243    1       68.749825000000       4.840587205800       7.500013279500
       244    1       72.103475000000      10.649287205800       7.500013279500
       245    2       68.749825000000       2.904350000000       8.675450000000
       246    1       67.073000000000       1.936237205800       7.500013279500
       247    2       72.103475000000       8.713050000000       8.675450000000
       248    1       70.426650000000       7.744937205800       7.500013279500
       249    1       72.103475000000       4.840587205800       7.500013279500
       250    1       68.749825000000      10.649287205800       7.500013279500
       251    1       67.073000000000       3.872462794200       9.850886720500
       252    1       70.426650000000       9.681162794200       9.850886720500
       253    2       70.426650000000       0.000000000000       8.675450000000
       254    2       73.780300000000       5.808700000000       8.675450000000
       255    2       67.073000000000       0.000000000000       8.675450000000
       256    2       70.426650000000       5.808700000000       8.675450000000
       257    1       70.426650000000       3.872462794200       9.850886720500
       258    1       73.780300000000       9.681162794200       9.850886720500
       259    2       72.103475000000       2.904350000000       8.675450000000
       260    2       68.749825000000       8.713050000000       8.675450000000
       261    1       70.426650000000       1.936237205800       7.500013279500
       262    1       73.780300000000       7.744937205800       7.500013279500
       263    1       72.103475000000       0.968112794200       9.850886720500
       264    1       68.749825000000       6.776812794200       9.850886720500
       265    1       75.457125000000       0.968112794200       9.850886720500
       266    1       78.810775000000       6.776812794200       9.850886720500
       267    1       75.457125000000       4.840587205800       7.500013279500
       268    1       78.810775000000      10.649287205800       7.500013279500
       269    2       75.457125000000       2.904350000000       8.675450000000
       270    1       73.780300000000       1.936237205800       7.500013279500
       271    2       78.810775000000       8.713050000000       8.675450000000
       272    1       77.133950000000       7.744937205800       7.500013279500
       273    1       78.810775000000       4.840587205800       7.500013279500
       274    1       75.457125000000      10.649287205800       7.500013279500
       275    1       73.780300000000       3.872462794200       9.850886720500
       276    1       77.133950000000       9.681162794200       9.850886720500
       277    2       77.133950000000       0.000000000000       8.675450000000
       278    2       80.487600000000       5.808700000000       8.675450000000
       279    2       73.780300000000       0.000000000000       8.675450000000
       280    2       77.133950000000       5.808700000000       8.675450000000
       281    1       77.133950000000       3.872462794200       9.850886720500
       282    1       80.487600000000       9.681162794200       9.850886720500
       283    2       78.810775000000       2.904350000000       8.675450000000
       284    2       75.457125000000       8.713050000000       8.675450000000
       285    1       77.133950000000       1.936237205800       7.500013279500
       286    1       80.487600000000       7.744937205800       7.500013279500
       287    1       78.810775000000       0.968112794200       9.850886720500
       288    1       75.457125000000       6.776812794200       9.850886720500
       289    1       82.164425000000       0.968112794200       9.850886720500
       290    1       85.518075000000       6.776812794200       9.850886720500
       291    1       82.164425000000       4.840587205800       7.500013279500
       292    1       85.518075000000      10.649287205800       7.500013279500
       293    2       82.164425000000       2.904350000000       8.675450000000
       294    1       80.487600000000       1.936237205800       7.500013279500
       295    2       85.518075000000       8.713050000000       8.675450000000
       296    1       83.841250000000       7.744937205800       7.500013279500
       297    1       85.518075000000       4.840587205800       7.500013279500
       298    1       82.164425000000      10.649287205800       7.500013279500
       299    1       80.487600000000       3.872462794200       9.850886720500
       300    1       83.841250000000       9.681162794200       9.850886720500
       301    2       83.841250000000       0.000000000000       8.675450000000
       302    2       87.194900000000       5.808700000000       8.675450000000
       303    2       80.487600000000       0.000000000000       8.675450000000
       304    2       83.841250000000       5.808700000000       8.675450000000
       305    1       83.841250000000       3.872462794200       9.850886720500
       306    1       87.194900000000       9.681162794200       9.850886720500
       307    2       85.518075000000       2.904350000000       8.675450000000
       308    2       82.164425000000       8.713050000000       8.675450000000
       309    1       83.841250000000       1.936237205800       7.500013279500
       310    1       87.194900000000       7.744937205800       7.500013279500
       311    1       85.518075000000       0.968112794200       9.850886720500
       312    1       82.164425000000       6.776812794200       9.850886720500
       313    1       88.871725000000       0.968112794200       9.850886720500
       314    1       92.225375000000       6.776812794200       9.850886720500
       315    1       88.871725000000       4.840587205800       7.500013279500
       316    1       92.225375000000      10.649287205800       7.500013279500
       317    2       88.871725000000       2.904350000000       8.675450000000
       318    1       87.194900000000       1.936237205800       7.500013279500
       319    2       92.225375000000       8.713050000000       8.675450000000
       320    1       90.548550000000       7.744937205800       7.500013279500
       321    1       92.225375000000       4.840587205800       7.500013279500
       322    1       88.871725000000      10.649287205800       7.500013279500
       323    1       87.194900000000       3.872462794200       9.850886720500
       324    1       90.548550000000       9.681162794200       9.850886720500
       325    2       90.548550000000       0.000000000000       8.675450000000
       326    2       93.902200000000       5.808700000000       8.675450000000
       327    2       87.194900000000       0.000000000000       8.675450000000
       328    2       90.548550000000       5.808700000000       8.675450000000
       329    1       90.548550000000       3.872462794200       9.850886720500
       330    1       93.902200000000       9.681162794200       9.850886720500
       331    2       92.225375000000       2.904350000000       8.675450000000
       332    2       88.871725000000       8.713050000000       8.675450000000
       333    1       90.548550000000       1.936237205800       7.500013279500
       334    1       93.902200000000       7.744937205800       7.500013279500
       335    1       92.225375000000       0.968112794200       9.850886720500
       336    1       88.871725000000       6.776812794200       9.850886720500
       337    1       95.579025000000       0.968112794200       9.850886720500
       338    1       98.932675000000       6.776812794200       9.850886720500
       339    1       95.579025000000       4.840587205800       7.500013279500
       340    1       98.932675000000      10.649287205800       7.500013279500
       341    2       95.579025000000       2.904350000000       8.675450000000
       342    1       93.902200000000       1.936237205800       7.500013279500
       343    2       98.932675000000       8.713050000000       8.675450000000
       344    1       97.255850000000       7.744937205800       7.500013279500
       345    1       98.932675000000       4.840587205800       7.500013279500
       346    1       95.579025000000      10.649287205800       7.500013279500
       347    1       93.902200000000       3.872462794200       9.850886720500
       348    1       97.255850000000       9.681162794200       9.850886720500
       349    2       97.255850000000       0.000000000000       8.675450000000
       350    2      100.609500000000       5.808700000000       8.675450000000
       351    2       93.902200000000       0.000000000000       8.675450000000
       352    2       97.255850000000       5.808700000000       8.675450000000
       353    1       97.255850000000       3.872462794200       9.850886720500
       354    1      100.609500000000       9.681162794200       9.850886720500
       355    2       98.932675000000       2.904350000000       8.675450000000
       356    2       95.579025000000       8.713050000000       8.675450000000
       357    1       97.255850000000       1.936237205800       7.500013279500
       358    1      100.609500000000       7.744937205800       7.500013279500
       359    1       98.932675000000       0.968112794200       9.850886720500
       360    1       95.579025000000       6.776812794200       9.850886720500
       361    1        1.676825000000      12.585512794200       9.850886720500
       362    1        5.030475000000      18.394212794200       9.850886720500
       363    1        1.676825000000      16.457987205800       7.500013279500
       364    1        5.030475000000      22.266687205800       7.500013279500
       365    2        1.676825000000      14.521750000000       8.675450000000
       366    1        0.000000000000      13.553637205800       7.500013279500
       367    2        5.030475000000      20.330450000000       8.675450000000
       368    1        3.353650000000      19.362337205800       7.500013279500
       369    1        5.030475000000      16.457987205800       7.500013279500
       370    1        1.676825000000      22.266687205800       7.500013279500