 # Ni8 O16
  
        4320  atoms
           2  atom types
 
      0.000000000000     102.225600000000  xlo xhi
      0.000000000000      98.367000000000  ylo yhi
      0.000000000000      16.898800000000  zlo zhi
 
Masses
 
            1   58.69340000             # Ni
            2   15.99900000             # O
 
Atoms # atomic
 
         1    1        0.000000000000       9.836700000000       8.449400000000
         2    1        2.839600000000       4.918350000000       8.449400000000
         3    2        2.839600000000       1.639453278900       7.499991618400
         4    2        0.000000000000       6.557803278900       7.499991618400
         5    2        1.419800000000       4.098628278900       7.499991618400
         6    2        4.259400000000       9.016978278900       7.499991618400
         7    2        1.419800000000       0.819721721100       9.398808381600
         8    2        4.259400000000       5.738071721100       9.398808381600
         9    2        2.839600000000       3.278896721100       9.398808381600
        10    2        5.679200000000       8.197246721100       9.398808381600
        11    2        4.259400000000       0.819721721100       9.398808381600
        12    2        1.419800000000       5.738071721100       9.398808381600
        13    1        4.259400000000       2.459175000000       8.449400000000
        14    1        1.419800000000       7.377525000000       8.449400000000
        15    2        0.000000000000       1.639453278900       7.499991618400
        16    2        2.839600000000       6.557803278900       7.499991618400
        17    1        1.419800000000       2.459175000000       8.449400000000
        18    2        5.679200000000       3.278896721100       9.398808381600
        19    1        4.259400000000       7.377525000000       8.449400000000
        20    2        2.839600000000       8.197246721100       9.398808381600
        21    2        4.259400000000       4.098628278900       7.499991618400
        22    2        1.419800000000       9.016978278900       7.499991618400
        23    1        2.839600000000       9.836700000000       8.449400000000
        24    1        0.000000000000       4.918350000000       8.449400000000
        25    1        5.679200000000       9.836700000000       8.449400000000
        26    1        8.518800000000       4.918350000000       8.449400000000
        27    2        8.518800000000       1.639453278900       7.499991618400
        28    2        5.679200000000       6.557803278900       7.499991618400
        29    2        7.099000000000       4.098628278900       7.499991618400
        30    2        9.938600000000       9.016978278900       7.499991618400
        31    2        7.099000000000       0.819721721100       9.398808381600
        32    2        9.938600000000       5.738071721100       9.398808381600
        33    2        8.518800000000       3.278896721100       9.398808381600
        34    2       11.358400000000       8.197246721100       9.398808381600
        35    2        9.938600000000       0.819721721100       9.398808381600
        36    2        7.099000000000       5.738071721100       9.398808381600
        37    1        9.938600000000       2.459175000000       8.449400000000
        38    1        7.099000000000       7.377525000000       8.449400000000
        39    2        5.679200000000       1.639453278900       7.499991618400
        40    2        8.518800000000       6.557803278900       7.499991618400
        41    1        7.099000000000       2.459175000000       8.449400000000
        42    2       11.358400000000       3.278896721100       9.398808381600
        43    1        9.938600000000       7.377525000000       8.449400000000
        44    2        8.518800000000       8.197246721100       9.398808381600
        45    2        9.938600000000       4.098628278900       7.499991618400
        46    2        7.099000000000       9.016978278900       7.499991618400
        47    1        8.518800000000       9.836700000000       8.449400000000
        48    1        5.679200000000       4.918350000000       8.449400000000
        49    1       11.358400000000       9.836700000000       8.449400000000
        50    1       14.198000000000       4.918350000000       8.449400000000
        51    2       14.198000000000       1.639453278900       7.499991618400
        52    2       11.358400000000       6.557803278900       7.499991618400
        53    2       12.778200000000       4.098628278900       7.499991618400
        54    2       15.617800000000       9.016978278900       7.499991618400
        55    2       12.778200000000       0.819721721100       9.398808381600
        56    2       15.617800000000       5.738071721100       9.398808381600
        57    2       14.198000000000       3.278896721100       9.398808381600
        58    2       17.037600000000       8.197246721100       9.398808381600
        59    2       15.617800000000       0.819721721100       9.398808381600
        60    2       12.778200000000       5.738071721100       9.398808381600
        61    1       15.617800000000       2.459175000000       8.449400000000
        62    1       12.778200000000       7.377525000000       8.449400000000
        63    2       11.358400000000       1.639453278900       7.499991618400
        64    2       14.198000000000       6.557803278900       7.499991618400
        65    1       12.778200000000       2.459175000000       8.449400000000
        66    2       17.037600000000       3.278896721100       9.398808381600
        67    1       15.617800000000       7.377525000000       8.449400000000
        68    2       14.198000000000       8.197246721100       9.398808381600
        69    2       15.617800000000       4.098628278900       7.499991618400
        70    2       12.778200000000       9.016978278900       7.499991618400
        71    1       14.198000000000       9.836700000000       8.449400000000
        72    1       11.358400000000       4.918350000000       8.449400000000
        73    1       17.037600000000       9.836700000000       8.449400000000
        74    1       19.877200000000       4.918350000000       8.449400000000
        75    2       19.877200000000       1.639453278900       7.499991618400
        76    2       17.037600000000       6.557803278900       7.499991618400
        77    2       18.457400000000       4.098628278900       7.499991618400
        78    2       21.297000000000       9.016978278900       7.499991618400
        79    2       18.457400000000       0.819721721100       9.398808381600
        80    2       21.297000000000       5.738071721100       9.398808381600
        81    2       19.877200000000       3.278896721100       9.398808381600
        82    2       22.716800000000       8.197246721100       9.398808381600
        83    2       21.297000000000       0.819721721100       9.398808381600
        84    2       18.457400000000       5.738071721100       9.398808381600
        85    1       21.297000000000       2.459175000000       8.449400000000
        86    1       18.457400000000       7.377525000000       8.449400000000
        87    2       17.037600000000       1.639453278900       7.499991618400
        88    2       19.877200000000       6.557803278900       7.499991618400
        89    1       18.457400000000       2.459175000000       8.449400000000
        90    2       22.716800000000       3.278896721100       9.398808381600
        91    1       21.297000000000       7.377525000000       8.449400000000
        92    2       19.877200000000       8.197246721100       9.398808381600
        93    2       21.297000000000       4.098628278900       7.499991618400
        94    2       18.457400000000       9.016978278900       7.499991618400
        95    1       19.877200000000       9.836700000000       8.449400000000
        96    1       17.037600000000       4.918350000000       8.449400000000
        97    1       22.716800000000       9.836700000000       8.449400000000
        98    1       25.556400000000       4.918350000000       8.449400000000
        99    2       25.556400000000       1.639453278900       7.499991618400
       100    2       22.716800000000       6.557803278900       7.499991618400
       101    2       24.136600000000       4.098628278900       7.499991618400
       102    2       26.976200000000       9.016978278900       7.499991618400
       103    2       24.136600000000       0.819721721100       9.398808381600
       104    2       26.976200000000       5.738071721100       9.398808381600
       105    2       25.556400000000       3.278896721100       9.398808381600
       106    2       28.396000000000       8.197246721100       9.398808381600
       107    2       26.976200000000       0.819721721100       9.398808381600
       108    2       24.136600000000       5.738071721100       9.398808381600
       109    1       26.976200000000       2.459175000000       8.449400000000
       110    1       24.136600000000       7.377525000000       8.449400000000
       111    2       22.716800000000       1.639453278900       7.499991618400
       112    2       25.556400000000       6.557803278900       7.499991618400
       113    1       24.136600000000       2.459175000000       8.449400000000
       114    2       28.396000000000       3.278896721100       9.398808381600
       115    1       26.976200000000       7.377525000000       8.449400000000
       116    2       25.556400000000       8.197246721100       9.398808381600
       117    2       26.976200000000       4.098628278900       7.499991618400
       118    2       24.136600000000       9.016978278900       7.499991618400
       119    1       25.556400000000       9.836700000000       8.449400000000
       120    1       22.716800000000       4.918350000000       8.449400000000
       121    1       28.396000000000       9.836700000000       8.449400000000
       122    1       31.235600000000       4.918350000000       8.449400000000
       123    2       31.235600000000       1.639453278900       7.499991618400
       124    2       28.396000000000       6.557803278900       7.499991618400
       125    2       29.815800000000       4.098628278900       7.499991618400
       126    2       32.655400000000       9.016978278900       7.499991618400
       127    2       29.815800000000       0.819721721100       9.398808381600
       128    2       32.655400000000       5.738071721100       9.398808381600
       129    2       31.235600000000       3.278896721100       9.398808381600
       130    2       34.075200000000       8.197246721100       9.398808381600
       131    2       32.655400000000       0.819721721100       9.398808381600
       132    2       29.815800000000       5.738071721100       9.398808381600
       133    1       32.655400000000       2.459175000000       8.449400000000
       134    1       29.815800000000       7.377525000000       8.449400000000
       135    2       28.396000000000       1.639453278900       7.499991618400
       136    2       31.235600000000       6.557803278900       7.499991618400
       137    1       29.815800000000       2.459175000000       8.449400000000
       138    2       34.075200000000       3.278896721100       9.398808381600
       139    1       32.655400000000       7.377525000000       8.449400000000
       140    2       31.235600000000       8.197246721100       9.398808381600
       141    2       32.655400000000       4.098628278900       7.499991618400
       142    2       29.815800000000       9.016978278900       7.499991618400
       143    1       31.235600000000       9.836700000000       8.449400000000
       144    1       28.396000000000       4.918350000000       8.449400000000
       145    1       34.075200000000       9.836700000000       8.449400000000
       146    1       36.914800000000       4.918350000000       8.449400000000
       147    2       36.914800000000       1.639453278900       7.499991618400
       148    2       34.075200000000       6.557803278900       7.499991618400
       149    2       35.495000000000       4.098628278900       7.499991618400
       150    2       38.334600000000       9.016978278900       7.499991618400
       151    2       35.495000000000       0.819721721100       9.398808381600
       152    2       38.334600000000       5.738071721100       9.398808381600
       153    2       36.914800000000       3.278896721100       9.398808381600
       154    2       39.754400000000       8.197246721100       9.398808381600
       155    2       38.334600000000       0.819721721100       9.398808381600
       156    2       35.495000000000       5.738071721100       9.398808381600
       157    1       38.334600000000       2.459175000000       8.449400000000
       158    1       35.495000000000       7.377525000000       8.449400000000
       159    2       34.075200000000       1.639453278900       7.499991618400
       160    2       36.914800000000       6.557803278900       7.499991618400
       161    1       35.495000000000       2.459175000000       8.449400000000
       162    2       39.754400000000       3.278896721100       9.398808381600
       163    1       38.334600000000       7.377525000000       8.449400000000
       164    2       36.914800000000       8.197246721100       9.398808381600
       165    2       38.334600000000       4.098628278900       7.499991618400
       166    2       35.495000000000       9.016978278900       7.499991618400
       167    1       36.914800000000       9.836700000000       8.449400000000
       168    1       34.075200000000       4.918350000000       8.449400000000
       169    1       39.754400000000       9.836700000000       8.449400000000
       170    1       42.594000000000       4.918350000000       8.449400000000
       171    2       42.594000000000       1.639453278900       7.499991618400
       172    2       39.754400000000       6.557803278900       7.499991618400
       173    2       41.174200000000       4.098628278900       7.499991618400
       174    2       44.013800000000       9.016978278900       7.499991618400
       175    2       41.174200000000       0.819721721100       9.398808381600
       176    2       44.013800000000       5.738071721100       9.398808381600
       177    2       42.594000000000       3.278896721100       9.398808381600
       178    2       45.433600000000       8.197246721100       9.398808381600
       179    2       44.013800000000       0.819721721100       9.398808381600
       180    2       41.174200000000       5.738071721100       9.398808381600
       181    1       44.013800000000       2.459175000000       8.449400000000
       182    1       41.174200000000       7.377525000000       8.449400000000
       183    2       39.754400000000       1.639453278900       7.499991618400
       184    2       42.594000000000       6.557803278900       7.499991618400
       185    1       41.174200000000       2.459175000000       8.449400000000
       186    2       45.433600000000       3.278896721100       9.398808381600
       187    1       44.013800000000       7.377525000000       8.449400000000
       188    2       42.594000000000       8.197246721100       9.398808381600
       189    2       44.013800000000       4.098628278900       7.499991618400
       190    2       41.174200000000       9.016978278900       7.499991618400
       191    1       42.594000000000       9.836700000000       8.449400000000
       192    1       39.754400000000       4.918350000000       8.449400000000
       193    1       45.433600000000       9.836700000000       8.449400000000
       194    1       48.273200000000       4.918350000000       8.449400000000
       195    2       48.273200000000       1.639453278900       7.499991618400
       196    2       45.433600000000       6.557803278900       7.499991618400
       197    2       46.853400000000       4.098628278900       7.499991618400
       198    2       49.693000000000       9.016978278900       7.499991618400
       199    2       46.853400000000       0.819721721100       9.398808381600
       200    2       49.693000000000       5.738071721100       9.398808381600
       201    2       48.273200000000       3.278896721100       9.398808381600
       202    2       51.112800000000       8.197246721100       9.398808381600
       203    2       49.693000000000       0.819721721100       9.398808381600
       204    2       46.853400000000       5.738071721100       9.398808381600
       205    1       49.693000000000       2.459175000000       8.449400000000
       206    1       46.853400000000       7.377525000000       8.449400000000
       207    2       45.433600000000       1.639453278900       7.499991618400
       208    2       48.273200000000       6.557803278900       7.499991618400
       209    1       46.853400000000       2.459175000000       8.449400000000
       210    2       51.112800000000       3.278896721100       9.398808381600
       211    1       49.693000000000       7.377525000000       8.449400000000
       212    2       48.273200000000       8.197246721100       9.398808381600
       213    2       49.693000000000       4.098628278900       7.499991618400
       214    2       46.853400000000       9.016978278900       7.499991618400
       215    1       48.273200000000       9.836700000000       8.449400000000
       216    1       45.433600000000       4.918350000000       8.449400000000
       217    1       51.112800000000       9.836700000000       8.449400000000
       218    1       53.952400000000       4.918350000000       8.449400000000
       219    2       53.952400000000       1.639453278900       7.499991618400
       220    2       51.112800000000       6.557803278900       7.499991618400
       221    2       52.532600000000       4.098628278900       7.499991618400
       222    2       55.372200000000       9.016978278900       7.499991618400
       223    2       52.532600000000       0.819721721100       9.398808381600
       224    2       55.372200000000       5.738071721100       9.398808381600
       225    2       53.952400000000       3.278896721100       9.398808381600
       226    2       56.792000000000       8.197246721100       9.398808381600
       227    2       55.372200000000       0.819721721100       9.398808381600
       228    2       52.532600000000       5.738071721100       9.398808381600
       229    1       55.372200000000       2.459175000000       8.449400000000
       230    1       52.532600000000       7.377525000000       8.449400000000
       231    2       51.112800000000       1.639453278900       7.499991618400
       232    2       53.952400000000       6.557803278900       7.499991618400
       233    1       52.532600000000       2.459175000000       8.449400000000
       234    2       56.792000000000       3.278896721100       9.398808381600
       235    1       55.372200000000       7.377525000000       8.449400000000
       236    2       53.952400000000       8.197246721100       9.398808381600
       237    2       55.372200000000       4.098628278900       7.499991618400
       238    2       52.532600000000       9.016978278900       7.499991618400
       239    1       53.952400000000       9.836700000000       8.449400000000
       240    1       51.112800000000       4.918350000000       8.449400000000
       241    1       56.792000000000       9.836700000000       8.449400000000
       242    1       59.631600000000       4.918350000000       8.449400000000
       243    2       59.631600000000       1.639453278900       7.499991618400
       244    2       56.792000000000       6.557803278900       7.499991618400
       245    2       58.211800000000       4.098628278900       7.499991618400
       246    2       61.051400000000       9.016978278900       7.499991618400
       247    2       58.211800000000       0.819721721100       9.398808381600
       248    2       61.051400000000       5.738071721100       9.398808381600
       249    2       59.631600000000       3.278896721100       9.398808381600
       250    2       62.471200000000       8.197246721100       9.398808381600
       251    2       61.051400000000       0.819721721100       9.398808381600
       252    2       58.211800000000       5.738071721100       9.398808381600
       253    1       61.051400000000       2.459175000000       8.449400000000
       254    1       58.211800000000       7.377525000000       8.449400000000
       255    2       56.792000000000       1.639453278900       7.499991618400
       256    2       59.631600000000       6.557803278900       7.499991618400
       257    1       58.211800000000       2.459175000000       8.449400000000
       258    2       62.471200000000       3.278896721100       9.398808381600
       259    1       61.051400000000       7.377525000000       8.449400000000
       260    2       59.631600000000       8.197246721100       9.398808381600
       261    2       61.051400000000       4.098628278900       7.499991618400
       262    2       58.211800000000       9.016978278900       7.499991618400
       263    1       59.631600000000       9.836700000000       8.449400000000
       264    1       56.792000000000       4.918350000000       8.449400000000
       265    1       62.471200000000       9.836700000000       8.449400000000
       266    1       65.310800000000       4.918350000000       8.449400000000
       267    2       65.310800000000       1.639453278900       7.499991618400
       268    2       62.471200000000       6.557803278900       7.499991618400
       269    2       63.891000000000       4.098628278900       7.499991618400
       270    2       66.730600000000       9.016978278900       7.499991618400
       271    2       63.891000000000       0.819721721100       9.398808381600
       272    2       66.730600000000       5.738071721100       9.398808381600
       273    2       65.310800000000       3.278896721100       9.398808381600
       274    2       68.150400000000       8.197246721100       9.398808381600
       275    2       66.730600000000       0.819721721100       9.398808381600
       276    2       63.891000000000       5.738071721100       9.398808381600
       277    1       66.730600000000       2.459175000000       8.449400000000
       278    1       63.891000000000       7.377525000000       8.449400000000
       279    2       62.471200000000       1.639453278900       7.499991618400
       280    2       65.310800000000       6.557803278900       7.499991618400
       281    1       63.891000000000       2.459175000000       8.449400000000
       282    2       68.150400000000       3.278896721100       9.398808381600
       283    1       66.730600000000       7.377525000000       8.449400000000
       284    2       65.310800000000       8.197246721100       9.398808381600
       285    2       66.730600000000       4.098628278900       7.499991618400
       286    2       63.891000000000       9.016978278900       7.499991618400
       287    1       65.310800000000       9.836700000000       8.449400000000
       288    1       62.471200000000       4.918350000000       8.449400000000
       289    1       68.150400000000       9.836700000000       8.449400000000
       290    1       70.990000000000       4.918350000000       8.449400000000
       291    2       70.990000000000       1.639453278900       7.499991618400
       292    2       68.150400000000       6.557803278900       7.499991618400
       293    2       69.570200000000       4.098628278900       7.499991618400
       294    2       72.409800000000       9.016978278900       7.499991618400
       295    2       69.570200000000       0.819721721100       9.398808381600
       296    2       72.409800000000       5.738071721100       9.398808381600
       297    2       70.990000000000       3.278896721100       9.398808381600
       298    2       73.829600000000       8.197246721100       9.398808381600
       299    2       72.409800000000       0.819721721100       9.398808381600
       300    2       69.570200000000       5.738071721100       9.398808381600
       301    1       72.409800000000       2.459175000000       8.449400000000
       302    1       69.570200000000       7.377525000000       8.449400000000
       303    2       68.150400000000       1.639453278900       7.499991618400
       304    2       70.990000000000       6.557803278900       7.499991618400
       305    1       69.570200000000       2.459175000000       8.449400000000
       306    2       73.829600000000       3.278896721100       9.398808381600
       307    1       72.409800000000       7.377525000000       8.449400000000
       308    2       70.990000000000       8.197246721100       9.398808381600
       309    2       72.409800000000       4.098628278900       7.499991618400
       310    2       69.570200000000       9.016978278900       7.499991618400
       311    1       70.990000000000       9.836700000000       8.449400000000
       312    1       68.150400000000       4.918350000000       8.449400000000
       313    1       73.829600000000       9.836700000000       8.449400000000
       314    1       76.669200000000       4.918350000000       8.449400000000
       315    2       76.669200000000       1.639453278900       7.499991618400
       316    2       73.829600000000       6.557803278900       7.499991618400
       317    2       75.249400000000       4.098628278900       7.499991618400
       318    2       78.089000000000       9.016978278900       7.499991618400
       319    2       75.249400000000       0.819721721100       9.398808381600
       320    2       78.089000000000       5.738071721100       9.398808381600
       321    2       76.669200000000       3.278896721100       9.398808381600
       322    2       79.508800000000       8.197246721100       9.398808381600
       323    2       78.089000000000       0.819721721100       9.398808381600
       324    2       75.249400000000       5.738071721100       9.398808381600
       325    1       78.089000000000       2.459175000000       8.449400000000
       326    1       75.249400000000       7.377525000000       8.449400000000
       327    2       73.829600000000       1.639453278900       7.499991618400
       328    2       76.669200000000       6.557803278900       7.499991618400
       329    1       75.249400000000       2.459175000000       8.449400000000
       330    2       79.508800000000       3.278896721100       9.398808381600
       331    1       78.089000000000       7.377525000000       8.449400000000
       332    2       76.669200000000       8.197246721100       9.398808381600
       333    2       78.089000000000       4.098628278900       7.499991618400
       334    2       75.249400000000       9.016978278900       7.499991618400
       335    1       76.669200000000       9.836700000000       8.449400000000
       336    1       73.829600000000       4.918350000000       8.449400000000
       337    1       79.508800000000       9.836700000000       8.449400000000
       338    1       82.348400000000       4.918350000000       8.449400000000
       339    2       82.348400000000       1.639453278900       7.499991618400
       340    2       79.508800000000       6.557803278900       7.499991618400
       341    2       80.928600000000       4.098628278900       7.499991618400
       342    2       83.768200000000       9.016978278900       7.499991618400
       343    2       80.928600000000       0.819721721100       9.398808381600
       344    2       83.768200000000       5.738071721100       9.398808381600
       345    2       82.348400000000       3.278896721100       9.398808381600
       346    2       85.188000000000       8.197246721100       9.398808381600
       347    2       83.768200000000       0.819721721100       9.398808381600
       348    2       80.928600000000       5.738071721100       9.398808381600
       349    1       83.768200000000       2.459175000000       8.449400000000
       350    1       80.928600000000       7.377525000000       8.449400000000
       351    2       79.508800000000       1.639453278900       7.499991618400
       352    2       82.348400000000       6.557803278900       7.499991618400
       353    1       80.928600000000       2.459175000000       8.449400000000
       354    2       85.188000000000       3.278896721100       9.398808381600
       355    1       83.768200000000       7.377525000000       8.449400000000
       356    2       82.348400000000       8.197246721100       9.398808381600
       357    2       83.768200000000       4.098628278900       7.499991618400
       358    2       80.928600000000       9.016978278900       7.499991618400
       359    1       82.348400000000       9.836700000000       8.449400000000
       360    1       79.508800000000       4.918350000000       8.449400000000
       361    1       85.188000000000       9.836700000000       8.449400000000
       362    1       88.027600000000       4.918350000000       8.449400000000
       363    2       88.027600000000       1.639453278900       7.499991618400
       364    2       85.188000000000       6.557803278900       7.499991618400
       365    2       86.607800000000       4.098628278900       7.499991618400
       366    2       89.447400000000       9.016978278900       7.499991618400
       367    2       86.607800000000       0.819721721100       9.398808381600
       368    2       89.447400000000       5.738071721100       9.398808381600
       369    2       88.027600000000       3.278896721100       9.398808381600
       370    2       90.867200000000       8.197246721100       9.398808381600