 # Pd8 Te16
  
        2016  atoms
           2  atom types
 
      0.000000000000      96.446400000000  xlo xhi
      0.000000000000      97.446300000000  ylo yhi
      0.000000000000      17.743000000000  zlo zhi
 
Masses
 
            1   106.42000000            # Pd
            2   127.60000000            # Te
 
Atoms # atomic
 
         1    1        0.000000000000      13.920900000000       8.871500000000
         2    1        4.018600000000       6.960450000000       8.871500000000
         3    2        6.027900000000       1.160070359700      10.250042385000
         4    2        2.009300000000       8.120520359700      10.250042385000
         5    1        2.009300000000       3.480225000000       8.871500000000
         6    1        6.027900000000      10.440675000000       8.871500000000
         7    2        0.000000000000       2.320154640300       7.492957615000
         8    2        4.018600000000       9.280604640300       7.492957615000
         9    2        2.009300000000       1.160070359700      10.250042385000
        10    2        6.027900000000       8.120520359700      10.250042385000
        11    1        6.027900000000       3.480225000000       8.871500000000
        12    1        2.009300000000      10.440675000000       8.871500000000
        13    2        2.009300000000       5.800379640300       7.492957615000
        14    2        6.027900000000      12.760829640300       7.492957615000
        15    2        4.018600000000       4.640295359700      10.250042385000
        16    2        0.000000000000      11.600745359700      10.250042385000
        17    2        4.018600000000       2.320154640300       7.492957615000
        18    2        0.000000000000       9.280604640300       7.492957615000
        19    1        4.018600000000      13.920900000000       8.871500000000
        20    1        0.000000000000       6.960450000000       8.871500000000
        21    2        6.027900000000       5.800379640300       7.492957615000
        22    2        2.009300000000      12.760829640300       7.492957615000
        23    2        8.037200000000       4.640295359700      10.250042385000
        24    2        4.018600000000      11.600745359700      10.250042385000
        25    1        8.037200000000      13.920900000000       8.871500000000
        26    1       12.055800000000       6.960450000000       8.871500000000
        27    2       14.065100000000       1.160070359700      10.250042385000
        28    2       10.046500000000       8.120520359700      10.250042385000
        29    1       10.046500000000       3.480225000000       8.871500000000
        30    1       14.065100000000      10.440675000000       8.871500000000
        31    2        8.037200000000       2.320154640300       7.492957615000
        32    2       12.055800000000       9.280604640300       7.492957615000
        33    2       10.046500000000       1.160070359700      10.250042385000
        34    2       14.065100000000       8.120520359700      10.250042385000
        35    1       14.065100000000       3.480225000000       8.871500000000
        36    1       10.046500000000      10.440675000000       8.871500000000
        37    2       10.046500000000       5.800379640300       7.492957615000
        38    2       14.065100000000      12.760829640300       7.492957615000
        39    2       12.055800000000       4.640295359700      10.250042385000
        40    2        8.037200000000      11.600745359700      10.250042385000
        41    2       12.055800000000       2.320154640300       7.492957615000
        42    2        8.037200000000       9.280604640300       7.492957615000
        43    1       12.055800000000      13.920900000000       8.871500000000
        44    1        8.037200000000       6.960450000000       8.871500000000
        45    2       14.065100000000       5.800379640300       7.492957615000
        46    2       10.046500000000      12.760829640300       7.492957615000
        47    2       16.074400000000       4.640295359700      10.250042385000
        48    2       12.055800000000      11.600745359700      10.250042385000
        49    1       16.074400000000      13.920900000000       8.871500000000
        50    1       20.093000000000       6.960450000000       8.871500000000
        51    2       22.102300000000       1.160070359700      10.250042385000
        52    2       18.083700000000       8.120520359700      10.250042385000
        53    1       18.083700000000       3.480225000000       8.871500000000
        54    1       22.102300000000      10.440675000000       8.871500000000
        55    2       16.074400000000       2.320154640300       7.492957615000
        56    2       20.093000000000       9.280604640300       7.492957615000
        57    2       18.083700000000       1.160070359700      10.250042385000
        58    2       22.102300000000       8.120520359700      10.250042385000
        59    1       22.102300000000       3.480225000000       8.871500000000
        60    1       18.083700000000      10.440675000000       8.871500000000
        61    2       18.083700000000       5.800379640300       7.492957615000
        62    2       22.102300000000      12.760829640300       7.492957615000
        63    2       20.093000000000       4.640295359700      10.250042385000
        64    2       16.074400000000      11.600745359700      10.250042385000
        65    2       20.093000000000       2.320154640300       7.492957615000
        66    2       16.074400000000       9.280604640300       7.492957615000
        67    1       20.093000000000      13.920900000000       8.871500000000
        68    1       16.074400000000       6.960450000000       8.871500000000
        69    2       22.102300000000       5.800379640300       7.492957615000
        70    2       18.083700000000      12.760829640300       7.492957615000
        71    2       24.111600000000       4.640295359700      10.250042385000
        72    2       20.093000000000      11.600745359700      10.250042385000
        73    1       24.111600000000      13.920900000000       8.871500000000
        74    1       28.130200000000       6.960450000000       8.871500000000
        75    2       30.139500000000       1.160070359700      10.250042385000
        76    2       26.120900000000       8.120520359700      10.250042385000
        77    1       26.120900000000       3.480225000000       8.871500000000
        78    1       30.139500000000      10.440675000000       8.871500000000
        79    2       24.111600000000       2.320154640300       7.492957615000
        80    2       28.130200000000       9.280604640300       7.492957615000
        81    2       26.120900000000       1.160070359700      10.250042385000
        82    2       30.139500000000       8.120520359700      10.250042385000
        83    1       30.139500000000       3.480225000000       8.871500000000
        84    1       26.120900000000      10.440675000000       8.871500000000
        85    2       26.120900000000       5.800379640300       7.492957615000
        86    2       30.139500000000      12.760829640300       7.492957615000
        87    2       28.130200000000       4.640295359700      10.250042385000
        88    2       24.111600000000      11.600745359700      10.250042385000
        89    2       28.130200000000       2.320154640300       7.492957615000
        90    2       24.111600000000       9.280604640300       7.492957615000
        91    1       28.130200000000      13.920900000000       8.871500000000
        92    1       24.111600000000       6.960450000000       8.871500000000
        93    2       30.139500000000       5.800379640300       7.492957615000
        94    2       26.120900000000      12.760829640300       7.492957615000
        95    2       32.148800000000       4.640295359700      10.250042385000
        96    2       28.130200000000      11.600745359700      10.250042385000
        97    1       32.148800000000      13.920900000000       8.871500000000
        98    1       36.167400000000       6.960450000000       8.871500000000
        99    2       38.176700000000       1.160070359700      10.250042385000
       100    2       34.158100000000       8.120520359700      10.250042385000
       101    1       34.158100000000       3.480225000000       8.871500000000
       102    1       38.176700000000      10.440675000000       8.871500000000
       103    2       32.148800000000       2.320154640300       7.492957615000
       104    2       36.167400000000       9.280604640300       7.492957615000
       105    2       34.158100000000       1.160070359700      10.250042385000
       106    2       38.176700000000       8.120520359700      10.250042385000
       107    1       38.176700000000       3.480225000000       8.871500000000
       108    1       34.158100000000      10.440675000000       8.871500000000
       109    2       34.158100000000       5.800379640300       7.492957615000
       110    2       38.176700000000      12.760829640300       7.492957615000
       111    2       36.167400000000       4.640295359700      10.250042385000
       112    2       32.148800000000      11.600745359700      10.250042385000
       113    2       36.167400000000       2.320154640300       7.492957615000
       114    2       32.148800000000       9.280604640300       7.492957615000
       115    1       36.167400000000      13.920900000000       8.871500000000
       116    1       32.148800000000       6.960450000000       8.871500000000
       117    2       38.176700000000       5.800379640300       7.492957615000
       118    2       34.158100000000      12.760829640300       7.492957615000
       119    2       40.186000000000       4.640295359700      10.250042385000
       120    2       36.167400000000      11.600745359700      10.250042385000
       121    1       40.186000000000      13.920900000000       8.871500000000
       122    1       44.204600000000       6.960450000000       8.871500000000
       123    2       46.213900000000       1.160070359700      10.250042385000
       124    2       42.195300000000       8.120520359700      10.250042385000
       125    1       42.195300000000       3.480225000000       8.871500000000
       126    1       46.213900000000      10.440675000000       8.871500000000
       127    2       40.186000000000       2.320154640300       7.492957615000
       128    2       44.204600000000       9.280604640300       7.492957615000
       129    2       42.195300000000       1.160070359700      10.250042385000
       130    2       46.213900000000       8.120520359700      10.250042385000
       131    1       46.213900000000       3.480225000000       8.871500000000
       132    1       42.195300000000      10.440675000000       8.871500000000
       133    2       42.195300000000       5.800379640300       7.492957615000
       134    2       46.213900000000      12.760829640300       7.492957615000
       135    2       44.204600000000       4.640295359700      10.250042385000
       136    2       40.186000000000      11.600745359700      10.250042385000
       137    2       44.204600000000       2.320154640300       7.492957615000
       138    2       40.186000000000       9.280604640300       7.492957615000
       139    1       44.204600000000      13.920900000000       8.871500000000
       140    1       40.186000000000       6.960450000000       8.871500000000
       141    2       46.213900000000       5.800379640300       7.492957615000
       142    2       42.195300000000      12.760829640300       7.492957615000
       143    2       48.223200000000       4.640295359700      10.250042385000
       144    2       44.204600000000      11.600745359700      10.250042385000
       145    1       48.223200000000      13.920900000000       8.871500000000
       146    1       52.241800000000       6.960450000000       8.871500000000
       147    2       54.251100000000       1.160070359700      10.250042385000
       148    2       50.232500000000       8.120520359700      10.250042385000
       149    1       50.232500000000       3.480225000000       8.871500000000
       150    1       54.251100000000      10.440675000000       8.871500000000
       151    2       48.223200000000       2.320154640300       7.492957615000
       152    2       52.241800000000       9.280604640300       7.492957615000
       153    2       50.232500000000       1.160070359700      10.250042385000
       154    2       54.251100000000       8.120520359700      10.250042385000
       155    1       54.251100000000       3.480225000000       8.871500000000
       156    1       50.232500000000      10.440675000000       8.871500000000
       157    2       50.232500000000       5.800379640300       7.492957615000
       158    2       54.251100000000      12.760829640300       7.492957615000
       159    2       52.241800000000       4.640295359700      10.250042385000
       160    2       48.223200000000      11.600745359700      10.250042385000
       161    2       52.241800000000       2.320154640300       7.492957615000
       162    2       48.223200000000       9.280604640300       7.492957615000
       163    1       52.241800000000      13.920900000000       8.871500000000
       164    1       48.223200000000       6.960450000000       8.871500000000
       165    2       54.251100000000       5.800379640300       7.492957615000
       166    2       50.232500000000      12.760829640300       7.492957615000
       167    2       56.260400000000       4.640295359700      10.250042385000
       168    2       52.241800000000      11.600745359700      10.250042385000
       169    1       56.260400000000      13.920900000000       8.871500000000
       170    1       60.279000000000       6.960450000000       8.871500000000
       171    2       62.288300000000       1.160070359700      10.250042385000
       172    2       58.269700000000       8.120520359700      10.250042385000
       173    1       58.269700000000       3.480225000000       8.871500000000
       174    1       62.288300000000      10.440675000000       8.871500000000
       175    2       56.260400000000       2.320154640300       7.492957615000
       176    2       60.279000000000       9.280604640300       7.492957615000
       177    2       58.269700000000       1.160070359700      10.250042385000
       178    2       62.288300000000       8.120520359700      10.250042385000
       179    1       62.288300000000       3.480225000000       8.871500000000
       180    1       58.269700000000      10.440675000000       8.871500000000
       181    2       58.269700000000       5.800379640300       7.492957615000
       182    2       62.288300000000      12.760829640300       7.492957615000
       183    2       60.279000000000       4.640295359700      10.250042385000
       184    2       56.260400000000      11.600745359700      10.250042385000
       185    2       60.279000000000       2.320154640300       7.492957615000
       186    2       56.260400000000       9.280604640300       7.492957615000
       187    1       60.279000000000      13.920900000000       8.871500000000
       188    1       56.260400000000       6.960450000000       8.871500000000
       189    2       62.288300000000       5.800379640300       7.492957615000
       190    2       58.269700000000      12.760829640300       7.492957615000
       191    2       64.297600000000       4.640295359700      10.250042385000
       192    2       60.279000000000      11.600745359700      10.250042385000
       193    1       64.297600000000      13.920900000000       8.871500000000
       194    1       68.316200000000       6.960450000000       8.871500000000
       195    2       70.325500000000       1.160070359700      10.250042385000
       196    2       66.306900000000       8.120520359700      10.250042385000
       197    1       66.306900000000       3.480225000000       8.871500000000
       198    1       70.325500000000      10.440675000000       8.871500000000
       199    2       64.297600000000       2.320154640300       7.492957615000
       200    2       68.316200000000       9.280604640300       7.492957615000
       201    2       66.306900000000       1.160070359700      10.250042385000
       202    2       70.325500000000       8.120520359700      10.250042385000
       203    1       70.325500000000       3.480225000000       8.871500000000
       204    1       66.306900000000      10.440675000000       8.871500000000
       205    2       66.306900000000       5.800379640300       7.492957615000
       206    2       70.325500000000      12.760829640300       7.492957615000
       207    2       68.316200000000       4.640295359700      10.250042385000
       208    2       64.297600000000      11.600745359700      10.250042385000
       209    2       68.316200000000       2.320154640300       7.492957615000
       210    2       64.297600000000       9.280604640300       7.492957615000
       211    1       68.316200000000      13.920900000000       8.871500000000
       212    1       64.297600000000       6.960450000000       8.871500000000
       213    2       70.325500000000       5.800379640300       7.492957615000
       214    2       66.306900000000      12.760829640300       7.492957615000
       215    2       72.334800000000       4.640295359700      10.250042385000
       216    2       68.316200000000      11.600745359700      10.250042385000
       217    1       72.334800000000      13.920900000000       8.871500000000
       218    1       76.353400000000       6.960450000000       8.871500000000
       219    2       78.362700000000       1.160070359700      10.250042385000
       220    2       74.344100000000       8.120520359700      10.250042385000
       221    1       74.344100000000       3.480225000000       8.871500000000
       222    1       78.362700000000      10.440675000000       8.871500000000
       223    2       72.334800000000       2.320154640300       7.492957615000
       224    2       76.353400000000       9.280604640300       7.492957615000
       225    2       74.344100000000       1.160070359700      10.250042385000
       226    2       78.362700000000       8.120520359700      10.250042385000
       227    1       78.362700000000       3.480225000000       8.871500000000
       228    1       74.344100000000      10.440675000000       8.871500000000
       229    2       74.344100000000       5.800379640300       7.492957615000
       230    2       78.362700000000      12.760829640300       7.492957615000
       231    2       76.353400000000       4.640295359700      10.250042385000
       232    2       72.334800000000      11.600745359700      10.250042385000
       233    2       76.353400000000       2.320154640300       7.492957615000
       234    2       72.334800000000       9.280604640300       7.492957615000
       235    1       76.353400000000      13.920900000000       8.871500000000
       236    1       72.334800000000       6.960450000000       8.871500000000
       237    2       78.362700000000       5.800379640300       7.492957615000
       238    2       74.344100000000      12.760829640300       7.492957615000
       239    2       80.372000000000       4.640295359700      10.250042385000
       240    2       76.353400000000      11.600745359700      10.250042385000
       241    1       80.372000000000      13.920900000000       8.871500000000
       242    1       84.390600000000       6.960450000000       8.871500000000
       243    2       86.399900000000       1.160070359700      10.250042385000
       244    2       82.381300000000       8.120520359700      10.250042385000
       245    1       82.381300000000       3.480225000000       8.871500000000
       246    1       86.399900000000      10.440675000000       8.871500000000
       247    2       80.372000000000       2.320154640300       7.492957615000
       248    2       84.390600000000       9.280604640300       7.492957615000
       249    2       82.381300000000       1.160070359700      10.250042385000
       250    2       86.399900000000       8.120520359700      10.250042385000
       251    1       86.399900000000       3.480225000000       8.871500000000
       252    1       82.381300000000      10.440675000000       8.871500000000
       253    2       82.381300000000       5.800379640300       7.492957615000
       254    2       86.399900000000      12.760829640300       7.492957615000
       255    2       84.390600000000       4.640295359700      10.250042385000
       256    2       80.372000000000      11.600745359700      10.250042385000
       257    2       84.390600000000       2.320154640300       7.492957615000
       258    2       80.372000000000       9.280604640300       7.492957615000
       259    1       84.390600000000      13.920900000000       8.871500000000
       260    1       80.372000000000       6.960450000000       8.871500000000
       261    2       86.399900000000       5.800379640300       7.492957615000
       262    2       82.381300000000      12.760829640300       7.492957615000
       263    2       88.409200000000       4.640295359700      10.250042385000
       264    2       84.390600000000      11.600745359700      10.250042385000
       265    1       88.409200000000      13.920900000000       8.871500000000
       266    1       92.427800000000       6.960450000000       8.871500000000
       267    2       94.437100000000       1.160070359700      10.250042385000
       268    2       90.418500000000       8.120520359700      10.250042385000
       269    1       90.418500000000       3.480225000000       8.871500000000
       270    1       94.437100000000      10.440675000000       8.871500000000
       271    2       88.409200000000       2.320154640300       7.492957615000
       272    2       92.427800000000       9.280604640300       7.492957615000
       273    2       90.418500000000       1.160070359700      10.250042385000
       274    2       94.437100000000       8.120520359700      10.250042385000
       275    1       94.437100000000       3.480225000000       8.871500000000
       276    1       90.418500000000      10.440675000000       8.871500000000
       277    2       90.418500000000       5.800379640300       7.492957615000
       278    2       94.437100000000      12.760829640300       7.492957615000
       279    2       92.427800000000       4.640295359700      10.250042385000
       280    2       88.409200000000      11.600745359700      10.250042385000
       281    2       92.427800000000       2.320154640300       7.492957615000
       282    2       88.409200000000       9.280604640300       7.492957615000
       283    1       92.427800000000      13.920900000000       8.871500000000
       284    1       88.409200000000       6.960450000000       8.871500000000
       285    2       94.437100000000       5.800379640300       7.492957615000
       286    2       90.418500000000      12.760829640300       7.492957615000
       287    2       96.446400000000       4.640295359700      10.250042385000
       288    2       92.427800000000      11.600745359700      10.250042385000
       289    1        0.000000000000      27.841800000000       8.871500000000
       290    1        4.018600000000      20.881350000000       8.871500000000
       291    2        6.027900000000      15.080970359700      10.250042385000
       292    2        2.009300000000      22.041420359700      10.250042385000
       293    1        2.009300000000      17.401125000000       8.871500000000
       294    1        6.027900000000      24.361575000000       8.871500000000
       295    2        0.000000000000      16.241054640300       7.492957615000
       296    2        4.018600000000      23.201504640300       7.492957615000
       297    2        2.009300000000      15.080970359700      10.250042385000
       298    2        6.027900000000      22.041420359700      10.250042385000
       299    1        6.027900000000      17.401125000000       8.871500000000
       300    1        2.009300000000      24.361575000000       8.871500000000
       301    2        2.009300000000      19.721279640300       7.492957615000
       302    2        6.027900000000      26.681729640300       7.492957615000
       303    2        4.018600000000      18.561195359700      10.250042385000
       304    2        0.000000000000      25.521645359700      10.250042385000
       305    2        4.018600000000      16.241054640300       7.492957615000
       306    2        0.000000000000      23.201504640300       7.492957615000
       307    1        4.018600000000      27.841800000000       8.871500000000
       308    1        0.000000000000      20.881350000000       8.871500000000
       309    2        6.027900000000      19.721279640300       7.492957615000
       310    2        2.009300000000      26.681729640300       7.492957615000
       311    2        8.037200000000      18.561195359700      10.250042385000
       312    2        4.018600000000      25.521645359700      10.250042385000
       313    1        8.037200000000      27.841800000000       8.871500000000
       314    1       12.055800000000      20.881350000000       8.871500000000
       315    2       14.065100000000      15.080970359700      10.250042385000
       316    2       10.046500000000      22.041420359700      10.250042385000
       317    1       10.046500000000      17.401125000000       8.871500000000
       318    1       14.065100000000      24.361575000000       8.871500000000
       319    2        8.037200000000      16.241054640300       7.492957615000
       320    2       12.055800000000      23.201504640300       7.492957615000
       321    2       10.046500000000      15.080970359700      10.250042385000
       322    2       14.065100000000      22.041420359700      10.250042385000
       323    1       14.065100000000      17.401125000000       8.871500000000
       324    1       10.046500000000      24.361575000000       8.871500000000
       325    2       10.046500000000      19.721279640300       7.492957615000
       326    2       14.065100000000      26.681729640300       7.492957615000
       327    2       12.055800000000      18.561195359700      10.250042385000
       328    2        8.037200000000      25.521645359700      10.250042385000
       329    2       12.055800000000      16.241054640300       7.492957615000
       330    2        8.037200000000      23.201504640300       7.492957615000
       331    1       12.055800000000      27.841800000000       8.871500000000
       332    1        8.037200000000      20.881350000000       8.871500000000
       333    2       14.065100000000      19.721279640300       7.492957615000
       334    2       10.046500000000      26.681729640300       7.492957615000
       335    2       16.074400000000      18.561195359700      10.250042385000
       336    2       12.055800000000      25.521645359700      10.250042385000
       337    1       16.074400000000      27.841800000000       8.871500000000
       338    1       20.093000000000      20.881350000000       8.871500000000
       339    2       22.102300000000      15.080970359700      10.250042385000
       340    2       18.083700000000      22.041420359700      10.250042385000
       341    1       18.083700000000      17.401125000000       8.871500000000
       342    1       22.102300000000      24.361575000000       8.871500000000
       343    2       16.074400000000      16.241054640300       7.492957615000
       344    2       20.093000000000      23.201504640300       7.492957615000
       345    2       18.083700000000      15.080970359700      10.250042385000
       346    2       22.102300000000      22.041420359700      10.250042385000
       347    1       22.102300000000      17.401125000000       8.871500000000
       348    1       18.083700000000      24.361575000000       8.871500000000
       349    2       18.083700000000      19.721279640300       7.492957615000
       350    2       22.102300000000      26.681729640300       7.492957615000
       351    2       20.093000000000      18.561195359700      10.250042385000
       352    2       16.074400000000      25.521645359700      10.250042385000
       353    2       20.093000000000      16.241054640300       7.492957615000
       354    2       16.074400000000      23.201504640300       7.492957615000
       355    1       20.093000000000      27.841800000000       8.871500000000
       356    1       16.074400000000      20.881350000000       8.871500000000
       357    2       22.102300000000      19.721279640300       7.492957615000
       358    2       18.083700000000      26.681729640300       7.492957615000
       359    2       24.111600000000      18.561195359700      10.250042385000
       360    2       20.093000000000      25.521645359700      10.250042385000
       361    1       24.111600000000      27.841800000000       8.871500000000
       362    1       28.130200000000      20.881350000000       8.871500000000
       363    2       30.139500000000      15.080970359700      10.250042385000
       364    2       26.120900000000      22.041420359700      10.250042385000
       365    1       26.120900000000      17.401125000000       8.871500000000
       366    1       30.139500000000      24.361575000000       8.871500000000
       367    2       24.111600000000      16.241054640300       7.492957615000
       368    2       28.130200000000      23.201504640300       7.492957615000
       369    2       26.120900000000      15.080970359700      10.250042385000
       370    2       30.139500000000      22.041420359700      10.250042385000