 # S16 Pt8
  
        2688  atoms
           2  atom types
 
      0.000000000000     100.062200000000  xlo xhi
      0.000000000000      99.035200000000  ylo yhi
      0.000000000000      17.464100000000  zlo zhi
 
Masses
 
            1   32.06000000             # S
            2   195.08400000            # Pt
 
Atoms # atomic
 
         1    1        3.573650000000       4.126462540200       9.964072398600
         2    1        0.000000000000      10.316162540200       9.964072398600
         3    2        1.786825000000       3.094850000000       8.732050000000
         4    2        5.360475000000       9.284550000000       8.732050000000
         5    2        0.000000000000       0.000000000000       8.732050000000
         6    2        3.573650000000       6.189700000000       8.732050000000
         7    1        0.000000000000       2.063237459800       7.500027601400
         8    1        3.573650000000       8.252937459800       7.500027601400
         9    1        3.573650000000       2.063237459800       7.500027601400
        10    1        0.000000000000       8.252937459800       7.500027601400
        11    1        5.360475000000       5.158087459800       7.500027601400
        12    1        1.786825000000      11.347787459800       7.500027601400
        13    2        5.360475000000       3.094850000000       8.732050000000
        14    2        1.786825000000       9.284550000000       8.732050000000
        15    1        0.000000000000       4.126462540200       9.964072398600
        16    1        3.573650000000      10.316162540200       9.964072398600
        17    2        3.573650000000       0.000000000000       8.732050000000
        18    2        0.000000000000       6.189700000000       8.732050000000
        19    1        5.360475000000       1.031612540200       9.964072398600
        20    1        1.786825000000       7.221312540200       9.964072398600
        21    1        1.786825000000       1.031612540200       9.964072398600
        22    1        5.360475000000       7.221312540200       9.964072398600
        23    1        1.786825000000       5.158087459800       7.500027601400
        24    1        5.360475000000      11.347787459800       7.500027601400
        25    1       10.720950000000       4.126462540200       9.964072398600
        26    1        7.147300000000      10.316162540200       9.964072398600
        27    2        8.934125000000       3.094850000000       8.732050000000
        28    2       12.507775000000       9.284550000000       8.732050000000
        29    2        7.147300000000       0.000000000000       8.732050000000
        30    2       10.720950000000       6.189700000000       8.732050000000
        31    1        7.147300000000       2.063237459800       7.500027601400
        32    1       10.720950000000       8.252937459800       7.500027601400
        33    1       10.720950000000       2.063237459800       7.500027601400
        34    1        7.147300000000       8.252937459800       7.500027601400
        35    1       12.507775000000       5.158087459800       7.500027601400
        36    1        8.934125000000      11.347787459800       7.500027601400
        37    2       12.507775000000       3.094850000000       8.732050000000
        38    2        8.934125000000       9.284550000000       8.732050000000
        39    1        7.147300000000       4.126462540200       9.964072398600
        40    1       10.720950000000      10.316162540200       9.964072398600
        41    2       10.720950000000       0.000000000000       8.732050000000
        42    2        7.147300000000       6.189700000000       8.732050000000
        43    1       12.507775000000       1.031612540200       9.964072398600
        44    1        8.934125000000       7.221312540200       9.964072398600
        45    1        8.934125000000       1.031612540200       9.964072398600
        46    1       12.507775000000       7.221312540200       9.964072398600
        47    1        8.934125000000       5.158087459800       7.500027601400
        48    1       12.507775000000      11.347787459800       7.500027601400
        49    1       17.868250000000       4.126462540200       9.964072398600
        50    1       14.294600000000      10.316162540200       9.964072398600
        51    2       16.081425000000       3.094850000000       8.732050000000
        52    2       19.655075000000       9.284550000000       8.732050000000
        53    2       14.294600000000       0.000000000000       8.732050000000
        54    2       17.868250000000       6.189700000000       8.732050000000
        55    1       14.294600000000       2.063237459800       7.500027601400
        56    1       17.868250000000       8.252937459800       7.500027601400
        57    1       17.868250000000       2.063237459800       7.500027601400
        58    1       14.294600000000       8.252937459800       7.500027601400
        59    1       19.655075000000       5.158087459800       7.500027601400
        60    1       16.081425000000      11.347787459800       7.500027601400
        61    2       19.655075000000       3.094850000000       8.732050000000
        62    2       16.081425000000       9.284550000000       8.732050000000
        63    1       14.294600000000       4.126462540200       9.964072398600
        64    1       17.868250000000      10.316162540200       9.964072398600
        65    2       17.868250000000       0.000000000000       8.732050000000
        66    2       14.294600000000       6.189700000000       8.732050000000
        67    1       19.655075000000       1.031612540200       9.964072398600
        68    1       16.081425000000       7.221312540200       9.964072398600
        69    1       16.081425000000       1.031612540200       9.964072398600
        70    1       19.655075000000       7.221312540200       9.964072398600
        71    1       16.081425000000       5.158087459800       7.500027601400
        72    1       19.655075000000      11.347787459800       7.500027601400
        73    1       25.015550000000       4.126462540200       9.964072398600
        74    1       21.441900000000      10.316162540200       9.964072398600
        75    2       23.228725000000       3.094850000000       8.732050000000
        76    2       26.802375000000       9.284550000000       8.732050000000
        77    2       21.441900000000       0.000000000000       8.732050000000
        78    2       25.015550000000       6.189700000000       8.732050000000
        79    1       21.441900000000       2.063237459800       7.500027601400
        80    1       25.015550000000       8.252937459800       7.500027601400
        81    1       25.015550000000       2.063237459800       7.500027601400
        82    1       21.441900000000       8.252937459800       7.500027601400
        83    1       26.802375000000       5.158087459800       7.500027601400
        84    1       23.228725000000      11.347787459800       7.500027601400
        85    2       26.802375000000       3.094850000000       8.732050000000
        86    2       23.228725000000       9.284550000000       8.732050000000
        87    1       21.441900000000       4.126462540200       9.964072398600
        88    1       25.015550000000      10.316162540200       9.964072398600
        89    2       25.015550000000       0.000000000000       8.732050000000
        90    2       21.441900000000       6.189700000000       8.732050000000
        91    1       26.802375000000       1.031612540200       9.964072398600
        92    1       23.228725000000       7.221312540200       9.964072398600
        93    1       23.228725000000       1.031612540200       9.964072398600
        94    1       26.802375000000       7.221312540200       9.964072398600
        95    1       23.228725000000       5.158087459800       7.500027601400
        96    1       26.802375000000      11.347787459800       7.500027601400
        97    1       32.162850000000       4.126462540200       9.964072398600
        98    1       28.589200000000      10.316162540200       9.964072398600
        99    2       30.376025000000       3.094850000000       8.732050000000
       100    2       33.949675000000       9.284550000000       8.732050000000
       101    2       28.589200000000       0.000000000000       8.732050000000
       102    2       32.162850000000       6.189700000000       8.732050000000
       103    1       28.589200000000       2.063237459800       7.500027601400
       104    1       32.162850000000       8.252937459800       7.500027601400
       105    1       32.162850000000       2.063237459800       7.500027601400
       106    1       28.589200000000       8.252937459800       7.500027601400
       107    1       33.949675000000       5.158087459800       7.500027601400
       108    1       30.376025000000      11.347787459800       7.500027601400
       109    2       33.949675000000       3.094850000000       8.732050000000
       110    2       30.376025000000       9.284550000000       8.732050000000
       111    1       28.589200000000       4.126462540200       9.964072398600
       112    1       32.162850000000      10.316162540200       9.964072398600
       113    2       32.162850000000       0.000000000000       8.732050000000
       114    2       28.589200000000       6.189700000000       8.732050000000
       115    1       33.949675000000       1.031612540200       9.964072398600
       116    1       30.376025000000       7.221312540200       9.964072398600
       117    1       30.376025000000       1.031612540200       9.964072398600
       118    1       33.949675000000       7.221312540200       9.964072398600
       119    1       30.376025000000       5.158087459800       7.500027601400
       120    1       33.949675000000      11.347787459800       7.500027601400
       121    1       39.310150000000       4.126462540200       9.964072398600
       122    1       35.736500000000      10.316162540200       9.964072398600
       123    2       37.523325000000       3.094850000000       8.732050000000
       124    2       41.096975000000       9.284550000000       8.732050000000
       125    2       35.736500000000       0.000000000000       8.732050000000
       126    2       39.310150000000       6.189700000000       8.732050000000
       127    1       35.736500000000       2.063237459800       7.500027601400
       128    1       39.310150000000       8.252937459800       7.500027601400
       129    1       39.310150000000       2.063237459800       7.500027601400
       130    1       35.736500000000       8.252937459800       7.500027601400
       131    1       41.096975000000       5.158087459800       7.500027601400
       132    1       37.523325000000      11.347787459800       7.500027601400
       133    2       41.096975000000       3.094850000000       8.732050000000
       134    2       37.523325000000       9.284550000000       8.732050000000
       135    1       35.736500000000       4.126462540200       9.964072398600
       136    1       39.310150000000      10.316162540200       9.964072398600
       137    2       39.310150000000       0.000000000000       8.732050000000
       138    2       35.736500000000       6.189700000000       8.732050000000
       139    1       41.096975000000       1.031612540200       9.964072398600
       140    1       37.523325000000       7.221312540200       9.964072398600
       141    1       37.523325000000       1.031612540200       9.964072398600
       142    1       41.096975000000       7.221312540200       9.964072398600
       143    1       37.523325000000       5.158087459800       7.500027601400
       144    1       41.096975000000      11.347787459800       7.500027601400
       145    1       46.457450000000       4.126462540200       9.964072398600
       146    1       42.883800000000      10.316162540200       9.964072398600
       147    2       44.670625000000       3.094850000000       8.732050000000
       148    2       48.244275000000       9.284550000000       8.732050000000
       149    2       42.883800000000       0.000000000000       8.732050000000
       150    2       46.457450000000       6.189700000000       8.732050000000
       151    1       42.883800000000       2.063237459800       7.500027601400
       152    1       46.457450000000       8.252937459800       7.500027601400
       153    1       46.457450000000       2.063237459800       7.500027601400
       154    1       42.883800000000       8.252937459800       7.500027601400
       155    1       48.244275000000       5.158087459800       7.500027601400
       156    1       44.670625000000      11.347787459800       7.500027601400
       157    2       48.244275000000       3.094850000000       8.732050000000
       158    2       44.670625000000       9.284550000000       8.732050000000
       159    1       42.883800000000       4.126462540200       9.964072398600
       160    1       46.457450000000      10.316162540200       9.964072398600
       161    2       46.457450000000       0.000000000000       8.732050000000
       162    2       42.883800000000       6.189700000000       8.732050000000
       163    1       48.244275000000       1.031612540200       9.964072398600
       164    1       44.670625000000       7.221312540200       9.964072398600
       165    1       44.670625000000       1.031612540200       9.964072398600
       166    1       48.244275000000       7.221312540200       9.964072398600
       167    1       44.670625000000       5.158087459800       7.500027601400
       168    1       48.244275000000      11.347787459800       7.500027601400
       169    1       53.604750000000       4.126462540200       9.964072398600
       170    1       50.031100000000      10.316162540200       9.964072398600
       171    2       51.817925000000       3.094850000000       8.732050000000
       172    2       55.391575000000       9.284550000000       8.732050000000
       173    2       50.031100000000       0.000000000000       8.732050000000
       174    2       53.604750000000       6.189700000000       8.732050000000
       175    1       50.031100000000       2.063237459800       7.500027601400
       176    1       53.604750000000       8.252937459800       7.500027601400
       177    1       53.604750000000       2.063237459800       7.500027601400
       178    1       50.031100000000       8.252937459800       7.500027601400
       179    1       55.391575000000       5.158087459800       7.500027601400
       180    1       51.817925000000      11.347787459800       7.500027601400
       181    2       55.391575000000       3.094850000000       8.732050000000
       182    2       51.817925000000       9.284550000000       8.732050000000
       183    1       50.031100000000       4.126462540200       9.964072398600
       184    1       53.604750000000      10.316162540200       9.964072398600
       185    2       53.604750000000       0.000000000000       8.732050000000
       186    2       50.031100000000       6.189700000000       8.732050000000
       187    1       55.391575000000       1.031612540200       9.964072398600
       188    1       51.817925000000       7.221312540200       9.964072398600
       189    1       51.817925000000       1.031612540200       9.964072398600
       190    1       55.391575000000       7.221312540200       9.964072398600
       191    1       51.817925000000       5.158087459800       7.500027601400
       192    1       55.391575000000      11.347787459800       7.500027601400
       193    1       60.752050000000       4.126462540200       9.964072398600
       194    1       57.178400000000      10.316162540200       9.964072398600
       195    2       58.965225000000       3.094850000000       8.732050000000
       196    2       62.538875000000       9.284550000000       8.732050000000
       197    2       57.178400000000       0.000000000000       8.732050000000
       198    2       60.752050000000       6.189700000000       8.732050000000
       199    1       57.178400000000       2.063237459800       7.500027601400
       200    1       60.752050000000       8.252937459800       7.500027601400
       201    1       60.752050000000       2.063237459800       7.500027601400
       202    1       57.178400000000       8.252937459800       7.500027601400
       203    1       62.538875000000       5.158087459800       7.500027601400
       204    1       58.965225000000      11.347787459800       7.500027601400
       205    2       62.538875000000       3.094850000000       8.732050000000
       206    2       58.965225000000       9.284550000000       8.732050000000
       207    1       57.178400000000       4.126462540200       9.964072398600
       208    1       60.752050000000      10.316162540200       9.964072398600
       209    2       60.752050000000       0.000000000000       8.732050000000
       210    2       57.178400000000       6.189700000000       8.732050000000
       211    1       62.538875000000       1.031612540200       9.964072398600
       212    1       58.965225000000       7.221312540200       9.964072398600
       213    1       58.965225000000       1.031612540200       9.964072398600
       214    1       62.538875000000       7.221312540200       9.964072398600
       215    1       58.965225000000       5.158087459800       7.500027601400
       216    1       62.538875000000      11.347787459800       7.500027601400
       217    1       67.899350000000       4.126462540200       9.964072398600
       218    1       64.325700000000      10.316162540200       9.964072398600
       219    2       66.112525000000       3.094850000000       8.732050000000
       220    2       69.686175000000       9.284550000000       8.732050000000
       221    2       64.325700000000       0.000000000000       8.732050000000
       222    2       67.899350000000       6.189700000000       8.732050000000
       223    1       64.325700000000       2.063237459800       7.500027601400
       224    1       67.899350000000       8.252937459800       7.500027601400
       225    1       67.899350000000       2.063237459800       7.500027601400
       226    1       64.325700000000       8.252937459800       7.500027601400
       227    1       69.686175000000       5.158087459800       7.500027601400
       228    1       66.112525000000      11.347787459800       7.500027601400
       229    2       69.686175000000       3.094850000000       8.732050000000
       230    2       66.112525000000       9.284550000000       8.732050000000
       231    1       64.325700000000       4.126462540200       9.964072398600
       232    1       67.899350000000      10.316162540200       9.964072398600
       233    2       67.899350000000       0.000000000000       8.732050000000
       234    2       64.325700000000       6.189700000000       8.732050000000
       235    1       69.686175000000       1.031612540200       9.964072398600
       236    1       66.112525000000       7.221312540200       9.964072398600
       237    1       66.112525000000       1.031612540200       9.964072398600
       238    1       69.686175000000       7.221312540200       9.964072398600
       239    1       66.112525000000       5.158087459800       7.500027601400
       240    1       69.686175000000      11.347787459800       7.500027601400
       241    1       75.046650000000       4.126462540200       9.964072398600
       242    1       71.473000000000      10.316162540200       9.964072398600
       243    2       73.259825000000       3.094850000000       8.732050000000
       244    2       76.833475000000       9.284550000000       8.732050000000
       245    2       71.473000000000       0.000000000000       8.732050000000
       246    2       75.046650000000       6.189700000000       8.732050000000
       247    1       71.473000000000       2.063237459800       7.500027601400
       248    1       75.046650000000       8.252937459800       7.500027601400
       249    1       75.046650000000       2.063237459800       7.500027601400
       250    1       71.473000000000       8.252937459800       7.500027601400
       251    1       76.833475000000       5.158087459800       7.500027601400
       252    1       73.259825000000      11.347787459800       7.500027601400
       253    2       76.833475000000       3.094850000000       8.732050000000
       254    2       73.259825000000       9.284550000000       8.732050000000
       255    1       71.473000000000       4.126462540200       9.964072398600
       256    1       75.046650000000      10.316162540200       9.964072398600
       257    2       75.046650000000       0.000000000000       8.732050000000
       258    2       71.473000000000       6.189700000000       8.732050000000
       259    1       76.833475000000       1.031612540200       9.964072398600
       260    1       73.259825000000       7.221312540200       9.964072398600
       261    1       73.259825000000       1.031612540200       9.964072398600
       262    1       76.833475000000       7.221312540200       9.964072398600
       263    1       73.259825000000       5.158087459800       7.500027601400
       264    1       76.833475000000      11.347787459800       7.500027601400
       265    1       82.193950000000       4.126462540200       9.964072398600
       266    1       78.620300000000      10.316162540200       9.964072398600
       267    2       80.407125000000       3.094850000000       8.732050000000
       268    2       83.980775000000       9.284550000000       8.732050000000
       269    2       78.620300000000       0.000000000000       8.732050000000
       270    2       82.193950000000       6.189700000000       8.732050000000
       271    1       78.620300000000       2.063237459800       7.500027601400
       272    1       82.193950000000       8.252937459800       7.500027601400
       273    1       82.193950000000       2.063237459800       7.500027601400
       274    1       78.620300000000       8.252937459800       7.500027601400
       275    1       83.980775000000       5.158087459800       7.500027601400
       276    1       80.407125000000      11.347787459800       7.500027601400
       277    2       83.980775000000       3.094850000000       8.732050000000
       278    2       80.407125000000       9.284550000000       8.732050000000
       279    1       78.620300000000       4.126462540200       9.964072398600
       280    1       82.193950000000      10.316162540200       9.964072398600
       281    2       82.193950000000       0.000000000000       8.732050000000
       282    2       78.620300000000       6.189700000000       8.732050000000
       283    1       83.980775000000       1.031612540200       9.964072398600
       284    1       80.407125000000       7.221312540200       9.964072398600
       285    1       80.407125000000       1.031612540200       9.964072398600
       286    1       83.980775000000       7.221312540200       9.964072398600
       287    1       80.407125000000       5.158087459800       7.500027601400
       288    1       83.980775000000      11.347787459800       7.500027601400
       289    1       89.341250000000       4.126462540200       9.964072398600
       290    1       85.767600000000      10.316162540200       9.964072398600
       291    2       87.554425000000       3.094850000000       8.732050000000
       292    2       91.128075000000       9.284550000000       8.732050000000
       293    2       85.767600000000       0.000000000000       8.732050000000
       294    2       89.341250000000       6.189700000000       8.732050000000
       295    1       85.767600000000       2.063237459800       7.500027601400
       296    1       89.341250000000       8.252937459800       7.500027601400
       297    1       89.341250000000       2.063237459800       7.500027601400
       298    1       85.767600000000       8.252937459800       7.500027601400
       299    1       91.128075000000       5.158087459800       7.500027601400
       300    1       87.554425000000      11.347787459800       7.500027601400
       301    2       91.128075000000       3.094850000000       8.732050000000
       302    2       87.554425000000       9.284550000000       8.732050000000
       303    1       85.767600000000       4.126462540200       9.964072398600
       304    1       89.341250000000      10.316162540200       9.964072398600
       305    2       89.341250000000       0.000000000000       8.732050000000
       306    2       85.767600000000       6.189700000000       8.732050000000
       307    1       91.128075000000       1.031612540200       9.964072398600
       308    1       87.554425000000       7.221312540200       9.964072398600
       309    1       87.554425000000       1.031612540200       9.964072398600
       310    1       91.128075000000       7.221312540200       9.964072398600
       311    1       87.554425000000       5.158087459800       7.500027601400
       312    1       91.128075000000      11.347787459800       7.500027601400
       313    1       96.488550000000       4.126462540200       9.964072398600
       314    1       92.914900000000      10.316162540200       9.964072398600
       315    2       94.701725000000       3.094850000000       8.732050000000
       316    2       98.275375000000       9.284550000000       8.732050000000
       317    2       92.914900000000       0.000000000000       8.732050000000
       318    2       96.488550000000       6.189700000000       8.732050000000
       319    1       92.914900000000       2.063237459800       7.500027601400
       320    1       96.488550000000       8.252937459800       7.500027601400
       321    1       96.488550000000       2.063237459800       7.500027601400
       322    1       92.914900000000       8.252937459800       7.500027601400
       323    1       98.275375000000       5.158087459800       7.500027601400
       324    1       94.701725000000      11.347787459800       7.500027601400
       325    2       98.275375000000       3.094850000000       8.732050000000
       326    2       94.701725000000       9.284550000000       8.732050000000
       327    1       92.914900000000       4.126462540200       9.964072398600
       328    1       96.488550000000      10.316162540200       9.964072398600
       329    2       96.488550000000       0.000000000000       8.732050000000
       330    2       92.914900000000       6.189700000000       8.732050000000
       331    1       98.275375000000       1.031612540200       9.964072398600
       332    1       94.701725000000       7.221312540200       9.964072398600
       333    1       94.701725000000       1.031612540200       9.964072398600
       334    1       98.275375000000       7.221312540200       9.964072398600
       335    1       94.701725000000       5.158087459800       7.500027601400
       336    1       98.275375000000      11.347787459800       7.500027601400
       337    1        3.573650000000      16.505862540200       9.964072398600
       338    1        0.000000000000      22.695562540200       9.964072398600
       339    2        1.786825000000      15.474250000000       8.732050000000
       340    2        5.360475000000      21.663950000000       8.732050000000
       341    2        0.000000000000      12.379400000000       8.732050000000
       342    2        3.573650000000      18.569100000000       8.732050000000
       343    1        0.000000000000      14.442637459800       7.500027601400
       344    1        3.573650000000      20.632337459800       7.500027601400
       345    1        3.573650000000      14.442637459800       7.500027601400
       346    1        0.000000000000      20.632337459800       7.500027601400
       347    1        5.360475000000      17.537487459800       7.500027601400
       348    1        1.786825000000      23.727187459800       7.500027601400
       349    2        5.360475000000      15.474250000000       8.732050000000
       350    2        1.786825000000      21.663950000000       8.732050000000
       351    1        0.000000000000      16.505862540200       9.964072398600
       352    1        3.573650000000      22.695562540200       9.964072398600
       353    2        3.573650000000      12.379400000000       8.732050000000
       354    2        0.000000000000      18.569100000000       8.732050000000
       355    1        5.360475000000      13.411012540200       9.964072398600
       356    1        1.786825000000      19.600712540200       9.964072398600
       357    1        1.786825000000      13.411012540200       9.964072398600
       358    1        5.360475000000      19.600712540200       9.964072398600
       359    1        1.786825000000      17.537487459800       7.500027601400
       360    1        5.360475000000      23.727187459800       7.500027601400
       361    1       10.720950000000      16.505862540200       9.964072398600
       362    1        7.147300000000      22.695562540200       9.964072398600
       363    2        8.934125000000      15.474250000000       8.732050000000
       364    2       12.507775000000      21.663950000000       8.732050000000
       365    2        7.147300000000      12.379400000000       8.732050000000
       366    2       10.720950000000      18.569100000000       8.732050000000
       367    1        7.147300000000      14.442637459800       7.500027601400
       368    1       10.720950000000      20.632337459800       7.500027601400
       369    1       10.720950000000      14.442637459800       7.500027601400
       370    1        7.147300000000      20.632337459800       7.500027601400