 # Pt8 Se16
  
        2496  atoms
           2  atom types
 
      0.000000000000      97.454500000000  xlo xhi
      0.000000000000     103.875200000000  ylo yhi
      0.000000000000      17.614900000000  zlo zhi
 
Masses
 
            1   195.08400000            # Pt
            2   78.96000000             # Se
 
Atoms # atomic
 
         1    1        5.622375000000       3.246100000000       8.807450000000
         2    1        1.874125000000       9.738300000000       8.807450000000
         3    2        1.874125000000       5.410170994800       7.497641265800
         4    2        0.000000000000       2.164070994800       7.497641265800
         5    2        5.622375000000       1.082029005200      10.117258734200
         6    2        1.874125000000       1.082029005200      10.117258734200
         7    2        5.622375000000      11.902370994800       7.497641265800
         8    2        5.622375000000       7.574229005200      10.117258734200
         9    2        3.748250000000       8.656270994800       7.497641265800
        10    2        1.874125000000       7.574229005200      10.117258734200
        11    2        5.622375000000       5.410170994800       7.497641265800
        12    2        1.874125000000      11.902370994800       7.497641265800
        13    1        3.748250000000       0.000000000000       8.807450000000
        14    1        0.000000000000       6.492200000000       8.807450000000
        15    2        3.748250000000       2.164070994800       7.497641265800
        16    2        0.000000000000       8.656270994800       7.497641265800
        17    2        3.748250000000       4.328129005200      10.117258734200
        18    2        0.000000000000      10.820329005200      10.117258734200
        19    1        0.000000000000       0.000000000000       8.807450000000
        20    1        3.748250000000       6.492200000000       8.807450000000
        21    2        0.000000000000       4.328129005200      10.117258734200
        22    2        3.748250000000      10.820329005200      10.117258734200
        23    1        1.874125000000       3.246100000000       8.807450000000
        24    1        5.622375000000       9.738300000000       8.807450000000
        25    1       13.118875000000       3.246100000000       8.807450000000
        26    1        9.370625000000       9.738300000000       8.807450000000
        27    2        9.370625000000       5.410170994800       7.497641265800
        28    2        7.496500000000       2.164070994800       7.497641265800
        29    2       13.118875000000       1.082029005200      10.117258734200
        30    2        9.370625000000       1.082029005200      10.117258734200
        31    2       13.118875000000      11.902370994800       7.497641265800
        32    2       13.118875000000       7.574229005200      10.117258734200
        33    2       11.244750000000       8.656270994800       7.497641265800
        34    2        9.370625000000       7.574229005200      10.117258734200
        35    2       13.118875000000       5.410170994800       7.497641265800
        36    2        9.370625000000      11.902370994800       7.497641265800
        37    1       11.244750000000       0.000000000000       8.807450000000
        38    1        7.496500000000       6.492200000000       8.807450000000
        39    2       11.244750000000       2.164070994800       7.497641265800
        40    2        7.496500000000       8.656270994800       7.497641265800
        41    2       11.244750000000       4.328129005200      10.117258734200
        42    2        7.496500000000      10.820329005200      10.117258734200
        43    1        7.496500000000       0.000000000000       8.807450000000
        44    1       11.244750000000       6.492200000000       8.807450000000
        45    2        7.496500000000       4.328129005200      10.117258734200
        46    2       11.244750000000      10.820329005200      10.117258734200
        47    1        9.370625000000       3.246100000000       8.807450000000
        48    1       13.118875000000       9.738300000000       8.807450000000
        49    1       20.615375000000       3.246100000000       8.807450000000
        50    1       16.867125000000       9.738300000000       8.807450000000
        51    2       16.867125000000       5.410170994800       7.497641265800
        52    2       14.993000000000       2.164070994800       7.497641265800
        53    2       20.615375000000       1.082029005200      10.117258734200
        54    2       16.867125000000       1.082029005200      10.117258734200
        55    2       20.615375000000      11.902370994800       7.497641265800
        56    2       20.615375000000       7.574229005200      10.117258734200
        57    2       18.741250000000       8.656270994800       7.497641265800
        58    2       16.867125000000       7.574229005200      10.117258734200
        59    2       20.615375000000       5.410170994800       7.497641265800
        60    2       16.867125000000      11.902370994800       7.497641265800
        61    1       18.741250000000       0.000000000000       8.807450000000
        62    1       14.993000000000       6.492200000000       8.807450000000
        63    2       18.741250000000       2.164070994800       7.497641265800
        64    2       14.993000000000       8.656270994800       7.497641265800
        65    2       18.741250000000       4.328129005200      10.117258734200
        66    2       14.993000000000      10.820329005200      10.117258734200
        67    1       14.993000000000       0.000000000000       8.807450000000
        68    1       18.741250000000       6.492200000000       8.807450000000
        69    2       14.993000000000       4.328129005200      10.117258734200
        70    2       18.741250000000      10.820329005200      10.117258734200
        71    1       16.867125000000       3.246100000000       8.807450000000
        72    1       20.615375000000       9.738300000000       8.807450000000
        73    1       28.111875000000       3.246100000000       8.807450000000
        74    1       24.363625000000       9.738300000000       8.807450000000
        75    2       24.363625000000       5.410170994800       7.497641265800
        76    2       22.489500000000       2.164070994800       7.497641265800
        77    2       28.111875000000       1.082029005200      10.117258734200
        78    2       24.363625000000       1.082029005200      10.117258734200
        79    2       28.111875000000      11.902370994800       7.497641265800
        80    2       28.111875000000       7.574229005200      10.117258734200
        81    2       26.237750000000       8.656270994800       7.497641265800
        82    2       24.363625000000       7.574229005200      10.117258734200
        83    2       28.111875000000       5.410170994800       7.497641265800
        84    2       24.363625000000      11.902370994800       7.497641265800
        85    1       26.237750000000       0.000000000000       8.807450000000
        86    1       22.489500000000       6.492200000000       8.807450000000
        87    2       26.237750000000       2.164070994800       7.497641265800
        88    2       22.489500000000       8.656270994800       7.497641265800
        89    2       26.237750000000       4.328129005200      10.117258734200
        90    2       22.489500000000      10.820329005200      10.117258734200
        91    1       22.489500000000       0.000000000000       8.807450000000
        92    1       26.237750000000       6.492200000000       8.807450000000
        93    2       22.489500000000       4.328129005200      10.117258734200
        94    2       26.237750000000      10.820329005200      10.117258734200
        95    1       24.363625000000       3.246100000000       8.807450000000
        96    1       28.111875000000       9.738300000000       8.807450000000
        97    1       35.608375000000       3.246100000000       8.807450000000
        98    1       31.860125000000       9.738300000000       8.807450000000
        99    2       31.860125000000       5.410170994800       7.497641265800
       100    2       29.986000000000       2.164070994800       7.497641265800
       101    2       35.608375000000       1.082029005200      10.117258734200
       102    2       31.860125000000       1.082029005200      10.117258734200
       103    2       35.608375000000      11.902370994800       7.497641265800
       104    2       35.608375000000       7.574229005200      10.117258734200
       105    2       33.734250000000       8.656270994800       7.497641265800
       106    2       31.860125000000       7.574229005200      10.117258734200
       107    2       35.608375000000       5.410170994800       7.497641265800
       108    2       31.860125000000      11.902370994800       7.497641265800
       109    1       33.734250000000       0.000000000000       8.807450000000
       110    1       29.986000000000       6.492200000000       8.807450000000
       111    2       33.734250000000       2.164070994800       7.497641265800
       112    2       29.986000000000       8.656270994800       7.497641265800
       113    2       33.734250000000       4.328129005200      10.117258734200
       114    2       29.986000000000      10.820329005200      10.117258734200
       115    1       29.986000000000       0.000000000000       8.807450000000
       116    1       33.734250000000       6.492200000000       8.807450000000
       117    2       29.986000000000       4.328129005200      10.117258734200
       118    2       33.734250000000      10.820329005200      10.117258734200
       119    1       31.860125000000       3.246100000000       8.807450000000
       120    1       35.608375000000       9.738300000000       8.807450000000
       121    1       43.104875000000       3.246100000000       8.807450000000
       122    1       39.356625000000       9.738300000000       8.807450000000
       123    2       39.356625000000       5.410170994800       7.497641265800
       124    2       37.482500000000       2.164070994800       7.497641265800
       125    2       43.104875000000       1.082029005200      10.117258734200
       126    2       39.356625000000       1.082029005200      10.117258734200
       127    2       43.104875000000      11.902370994800       7.497641265800
       128    2       43.104875000000       7.574229005200      10.117258734200
       129    2       41.230750000000       8.656270994800       7.497641265800
       130    2       39.356625000000       7.574229005200      10.117258734200
       131    2       43.104875000000       5.410170994800       7.497641265800
       132    2       39.356625000000      11.902370994800       7.497641265800
       133    1       41.230750000000       0.000000000000       8.807450000000
       134    1       37.482500000000       6.492200000000       8.807450000000
       135    2       41.230750000000       2.164070994800       7.497641265800
       136    2       37.482500000000       8.656270994800       7.497641265800
       137    2       41.230750000000       4.328129005200      10.117258734200
       138    2       37.482500000000      10.820329005200      10.117258734200
       139    1       37.482500000000       0.000000000000       8.807450000000
       140    1       41.230750000000       6.492200000000       8.807450000000
       141    2       37.482500000000       4.328129005200      10.117258734200
       142    2       41.230750000000      10.820329005200      10.117258734200
       143    1       39.356625000000       3.246100000000       8.807450000000
       144    1       43.104875000000       9.738300000000       8.807450000000
       145    1       50.601375000000       3.246100000000       8.807450000000
       146    1       46.853125000000       9.738300000000       8.807450000000
       147    2       46.853125000000       5.410170994800       7.497641265800
       148    2       44.979000000000       2.164070994800       7.497641265800
       149    2       50.601375000000       1.082029005200      10.117258734200
       150    2       46.853125000000       1.082029005200      10.117258734200
       151    2       50.601375000000      11.902370994800       7.497641265800
       152    2       50.601375000000       7.574229005200      10.117258734200
       153    2       48.727250000000       8.656270994800       7.497641265800
       154    2       46.853125000000       7.574229005200      10.117258734200
       155    2       50.601375000000       5.410170994800       7.497641265800
       156    2       46.853125000000      11.902370994800       7.497641265800
       157    1       48.727250000000       0.000000000000       8.807450000000
       158    1       44.979000000000       6.492200000000       8.807450000000
       159    2       48.727250000000       2.164070994800       7.497641265800
       160    2       44.979000000000       8.656270994800       7.497641265800
       161    2       48.727250000000       4.328129005200      10.117258734200
       162    2       44.979000000000      10.820329005200      10.117258734200
       163    1       44.979000000000       0.000000000000       8.807450000000
       164    1       48.727250000000       6.492200000000       8.807450000000
       165    2       44.979000000000       4.328129005200      10.117258734200
       166    2       48.727250000000      10.820329005200      10.117258734200
       167    1       46.853125000000       3.246100000000       8.807450000000
       168    1       50.601375000000       9.738300000000       8.807450000000
       169    1       58.097875000000       3.246100000000       8.807450000000
       170    1       54.349625000000       9.738300000000       8.807450000000
       171    2       54.349625000000       5.410170994800       7.497641265800
       172    2       52.475500000000       2.164070994800       7.497641265800
       173    2       58.097875000000       1.082029005200      10.117258734200
       174    2       54.349625000000       1.082029005200      10.117258734200
       175    2       58.097875000000      11.902370994800       7.497641265800
       176    2       58.097875000000       7.574229005200      10.117258734200
       177    2       56.223750000000       8.656270994800       7.497641265800
       178    2       54.349625000000       7.574229005200      10.117258734200
       179    2       58.097875000000       5.410170994800       7.497641265800
       180    2       54.349625000000      11.902370994800       7.497641265800
       181    1       56.223750000000       0.000000000000       8.807450000000
       182    1       52.475500000000       6.492200000000       8.807450000000
       183    2       56.223750000000       2.164070994800       7.497641265800
       184    2       52.475500000000       8.656270994800       7.497641265800
       185    2       56.223750000000       4.328129005200      10.117258734200
       186    2       52.475500000000      10.820329005200      10.117258734200
       187    1       52.475500000000       0.000000000000       8.807450000000
       188    1       56.223750000000       6.492200000000       8.807450000000
       189    2       52.475500000000       4.328129005200      10.117258734200
       190    2       56.223750000000      10.820329005200      10.117258734200
       191    1       54.349625000000       3.246100000000       8.807450000000
       192    1       58.097875000000       9.738300000000       8.807450000000
       193    1       65.594375000000       3.246100000000       8.807450000000
       194    1       61.846125000000       9.738300000000       8.807450000000
       195    2       61.846125000000       5.410170994800       7.497641265800
       196    2       59.972000000000       2.164070994800       7.497641265800
       197    2       65.594375000000       1.082029005200      10.117258734200
       198    2       61.846125000000       1.082029005200      10.117258734200
       199    2       65.594375000000      11.902370994800       7.497641265800
       200    2       65.594375000000       7.574229005200      10.117258734200
       201    2       63.720250000000       8.656270994800       7.497641265800
       202    2       61.846125000000       7.574229005200      10.117258734200
       203    2       65.594375000000       5.410170994800       7.497641265800
       204    2       61.846125000000      11.902370994800       7.497641265800
       205    1       63.720250000000       0.000000000000       8.807450000000
       206    1       59.972000000000       6.492200000000       8.807450000000
       207    2       63.720250000000       2.164070994800       7.497641265800
       208    2       59.972000000000       8.656270994800       7.497641265800
       209    2       63.720250000000       4.328129005200      10.117258734200
       210    2       59.972000000000      10.820329005200      10.117258734200
       211    1       59.972000000000       0.000000000000       8.807450000000
       212    1       63.720250000000       6.492200000000       8.807450000000
       213    2       59.972000000000       4.328129005200      10.117258734200
       214    2       63.720250000000      10.820329005200      10.117258734200
       215    1       61.846125000000       3.246100000000       8.807450000000
       216    1       65.594375000000       9.738300000000       8.807450000000
       217    1       73.090875000000       3.246100000000       8.807450000000
       218    1       69.342625000000       9.738300000000       8.807450000000
       219    2       69.342625000000       5.410170994800       7.497641265800
       220    2       67.468500000000       2.164070994800       7.497641265800
       221    2       73.090875000000       1.082029005200      10.117258734200
       222    2       69.342625000000       1.082029005200      10.117258734200
       223    2       73.090875000000      11.902370994800       7.497641265800
       224    2       73.090875000000       7.574229005200      10.117258734200
       225    2       71.216750000000       8.656270994800       7.497641265800
       226    2       69.342625000000       7.574229005200      10.117258734200
       227    2       73.090875000000       5.410170994800       7.497641265800
       228    2       69.342625000000      11.902370994800       7.497641265800
       229    1       71.216750000000       0.000000000000       8.807450000000
       230    1       67.468500000000       6.492200000000       8.807450000000
       231    2       71.216750000000       2.164070994800       7.497641265800
       232    2       67.468500000000       8.656270994800       7.497641265800
       233    2       71.216750000000       4.328129005200      10.117258734200
       234    2       67.468500000000      10.820329005200      10.117258734200
       235    1       67.468500000000       0.000000000000       8.807450000000
       236    1       71.216750000000       6.492200000000       8.807450000000
       237    2       67.468500000000       4.328129005200      10.117258734200
       238    2       71.216750000000      10.820329005200      10.117258734200
       239    1       69.342625000000       3.246100000000       8.807450000000
       240    1       73.090875000000       9.738300000000       8.807450000000
       241    1       80.587375000000       3.246100000000       8.807450000000
       242    1       76.839125000000       9.738300000000       8.807450000000
       243    2       76.839125000000       5.410170994800       7.497641265800
       244    2       74.965000000000       2.164070994800       7.497641265800
       245    2       80.587375000000       1.082029005200      10.117258734200
       246    2       76.839125000000       1.082029005200      10.117258734200
       247    2       80.587375000000      11.902370994800       7.497641265800
       248    2       80.587375000000       7.574229005200      10.117258734200
       249    2       78.713250000000       8.656270994800       7.497641265800
       250    2       76.839125000000       7.574229005200      10.117258734200
       251    2       80.587375000000       5.410170994800       7.497641265800
       252    2       76.839125000000      11.902370994800       7.497641265800
       253    1       78.713250000000       0.000000000000       8.807450000000
       254    1       74.965000000000       6.492200000000       8.807450000000
       255    2       78.713250000000       2.164070994800       7.497641265800
       256    2       74.965000000000       8.656270994800       7.497641265800
       257    2       78.713250000000       4.328129005200      10.117258734200
       258    2       74.965000000000      10.820329005200      10.117258734200
       259    1       74.965000000000       0.000000000000       8.807450000000
       260    1       78.713250000000       6.492200000000       8.807450000000
       261    2       74.965000000000       4.328129005200      10.117258734200
       262    2       78.713250000000      10.820329005200      10.117258734200
       263    1       76.839125000000       3.246100000000       8.807450000000
       264    1       80.587375000000       9.738300000000       8.807450000000
       265    1       88.083875000000       3.246100000000       8.807450000000
       266    1       84.335625000000       9.738300000000       8.807450000000
       267    2       84.335625000000       5.410170994800       7.497641265800
       268    2       82.461500000000       2.164070994800       7.497641265800
       269    2       88.083875000000       1.082029005200      10.117258734200
       270    2       84.335625000000       1.082029005200      10.117258734200
       271    2       88.083875000000      11.902370994800       7.497641265800
       272    2       88.083875000000       7.574229005200      10.117258734200
       273    2       86.209750000000       8.656270994800       7.497641265800
       274    2       84.335625000000       7.574229005200      10.117258734200
       275    2       88.083875000000       5.410170994800       7.497641265800
       276    2       84.335625000000      11.902370994800       7.497641265800
       277    1       86.209750000000       0.000000000000       8.807450000000
       278    1       82.461500000000       6.492200000000       8.807450000000
       279    2       86.209750000000       2.164070994800       7.497641265800
       280    2       82.461500000000       8.656270994800       7.497641265800
       281    2       86.209750000000       4.328129005200      10.117258734200
       282    2       82.461500000000      10.820329005200      10.117258734200
       283    1       82.461500000000       0.000000000000       8.807450000000
       284    1       86.209750000000       6.492200000000       8.807450000000
       285    2       82.461500000000       4.328129005200      10.117258734200
       286    2       86.209750000000      10.820329005200      10.117258734200
       287    1       84.335625000000       3.246100000000       8.807450000000
       288    1       88.083875000000       9.738300000000       8.807450000000
       289    1       95.580375000000       3.246100000000       8.807450000000
       290    1       91.832125000000       9.738300000000       8.807450000000
       291    2       91.832125000000       5.410170994800       7.497641265800
       292    2       89.958000000000       2.164070994800       7.497641265800
       293    2       95.580375000000       1.082029005200      10.117258734200
       294    2       91.832125000000       1.082029005200      10.117258734200
       295    2       95.580375000000      11.902370994800       7.497641265800
       296    2       95.580375000000       7.574229005200      10.117258734200
       297    2       93.706250000000       8.656270994800       7.497641265800
       298    2       91.832125000000       7.574229005200      10.117258734200
       299    2       95.580375000000       5.410170994800       7.497641265800
       300    2       91.832125000000      11.902370994800       7.497641265800
       301    1       93.706250000000       0.000000000000       8.807450000000
       302    1       89.958000000000       6.492200000000       8.807450000000
       303    2       93.706250000000       2.164070994800       7.497641265800
       304    2       89.958000000000       8.656270994800       7.497641265800
       305    2       93.706250000000       4.328129005200      10.117258734200
       306    2       89.958000000000      10.820329005200      10.117258734200
       307    1       89.958000000000       0.000000000000       8.807450000000
       308    1       93.706250000000       6.492200000000       8.807450000000
       309    2       89.958000000000       4.328129005200      10.117258734200
       310    2       93.706250000000      10.820329005200      10.117258734200
       311    1       91.832125000000       3.246100000000       8.807450000000
       312    1       95.580375000000       9.738300000000       8.807450000000
       313    1        5.622375000000      16.230500000000       8.807450000000
       314    1        1.874125000000      22.722700000000       8.807450000000
       315    2        1.874125000000      18.394570994800       7.497641265800
       316    2        0.000000000000      15.148470994800       7.497641265800
       317    2        5.622375000000      14.066429005200      10.117258734200
       318    2        1.874125000000      14.066429005200      10.117258734200
       319    2        5.622375000000      24.886770994800       7.497641265800
       320    2        5.622375000000      20.558629005200      10.117258734200
       321    2        3.748250000000      21.640670994800       7.497641265800
       322    2        1.874125000000      20.558629005200      10.117258734200
       323    2        5.622375000000      18.394570994800       7.497641265800
       324    2        1.874125000000      24.886770994800       7.497641265800
       325    1        3.748250000000      12.984400000000       8.807450000000
       326    1        0.000000000000      19.476600000000       8.807450000000
       327    2        3.748250000000      15.148470994800       7.497641265800
       328    2        0.000000000000      21.640670994800       7.497641265800
       329    2        3.748250000000      17.312529005200      10.117258734200
       330    2        0.000000000000      23.804729005200      10.117258734200
       331    1        0.000000000000      12.984400000000       8.807450000000
       332    1        3.748250000000      19.476600000000       8.807450000000
       333    2        0.000000000000      17.312529005200      10.117258734200
       334    2        3.748250000000      23.804729005200      10.117258734200
       335    1        1.874125000000      16.230500000000       8.807450000000
       336    1        5.622375000000      22.722700000000       8.807450000000
       337    1       13.118875000000      16.230500000000       8.807450000000
       338    1        9.370625000000      22.722700000000       8.807450000000
       339    2        9.370625000000      18.394570994800       7.497641265800
       340    2        7.496500000000      15.148470994800       7.497641265800
       341    2       13.118875000000      14.066429005200      10.117258734200
       342    2        9.370625000000      14.066429005200      10.117258734200
       343    2       13.118875000000      24.886770994800       7.497641265800
       344    2       13.118875000000      20.558629005200      10.117258734200
       345    2       11.244750000000      21.640670994800       7.497641265800
       346    2        9.370625000000      20.558629005200      10.117258734200
       347    2       13.118875000000      18.394570994800       7.497641265800
       348    2        9.370625000000      24.886770994800       7.497641265800
       349    1       11.244750000000      12.984400000000       8.807450000000
       350    1        7.496500000000      19.476600000000       8.807450000000
       351    2       11.244750000000      15.148470994800       7.497641265800
       352    2        7.496500000000      21.640670994800       7.497641265800
       353    2       11.244750000000      17.312529005200      10.117258734200
       354    2        7.496500000000      23.804729005200      10.117258734200
       355    1        7.496500000000      12.984400000000       8.807450000000
       356    1       11.244750000000      19.476600000000       8.807450000000
       357    2        7.496500000000      17.312529005200      10.117258734200
       358    2       11.244750000000      23.804729005200      10.117258734200
       359    1        9.370625000000      16.230500000000       8.807450000000
       360    1       13.118875000000      22.722700000000       8.807450000000
       361    1       20.615375000000      16.230500000000       8.807450000000
       362    1       16.867125000000      22.722700000000       8.807450000000
       363    2       16.867125000000      18.394570994800       7.497641265800
       364    2       14.993000000000      15.148470994800       7.497641265800
       365    2       20.615375000000      14.066429005200      10.117258734200
       366    2       16.867125000000      14.066429005200      10.117258734200
       367    2       20.615375000000      24.886770994800       7.497641265800
       368    2       20.615375000000      20.558629005200      10.117258734200
       369    2       18.741250000000      21.640670994800       7.497641265800
       370    2       16.867125000000      20.558629005200      10.117258734200