 # S16 Sc8
  
        2496  atoms
           2  atom types
 
      0.000000000000      97.340100000000  xlo xhi
      0.000000000000     103.752800000000  ylo yhi
      0.000000000000      17.743500000000  zlo zhi
 
Masses
 
            1   32.06000000             # S
            2   44.95591200             # Sc
 
Atoms # atomic
 
         1    1        3.743850000000       4.323029010300      10.228826110500
         2    1        0.000000000000      10.807579010300      10.228826110500
         3    1        5.615775000000       1.080754010300      10.228826110500
         4    1        1.871925000000       7.565304010300      10.228826110500
         5    2        3.743850000000       0.000000000000       8.871750000000
         6    2        0.000000000000       6.484550000000       8.871750000000
         7    1        3.743850000000       2.161520989700       7.514673889500
         8    1        0.000000000000       8.646070989700       7.514673889500
         9    1        0.000000000000       4.323029010300      10.228826110500
        10    1        3.743850000000      10.807579010300      10.228826110500
        11    1        1.871925000000       5.403795989700       7.514673889500
        12    1        5.615775000000      11.888345989700       7.514673889500
        13    1        5.615775000000       5.403795989700       7.514673889500
        14    1        1.871925000000      11.888345989700       7.514673889500
        15    2        1.871925000000       3.242275000000       8.871750000000
        16    2        5.615775000000       9.726825000000       8.871750000000
        17    2        0.000000000000       0.000000000000       8.871750000000
        18    2        3.743850000000       6.484550000000       8.871750000000
        19    1        0.000000000000       2.161520989700       7.514673889500
        20    1        3.743850000000       8.646070989700       7.514673889500
        21    1        1.871925000000       1.080754010300      10.228826110500
        22    1        5.615775000000       7.565304010300      10.228826110500
        23    2        5.615775000000       3.242275000000       8.871750000000
        24    2        1.871925000000       9.726825000000       8.871750000000
        25    1       11.231550000000       4.323029010300      10.228826110500
        26    1        7.487700000000      10.807579010300      10.228826110500
        27    1       13.103475000000       1.080754010300      10.228826110500
        28    1        9.359625000000       7.565304010300      10.228826110500
        29    2       11.231550000000       0.000000000000       8.871750000000
        30    2        7.487700000000       6.484550000000       8.871750000000
        31    1       11.231550000000       2.161520989700       7.514673889500
        32    1        7.487700000000       8.646070989700       7.514673889500
        33    1        7.487700000000       4.323029010300      10.228826110500
        34    1       11.231550000000      10.807579010300      10.228826110500
        35    1        9.359625000000       5.403795989700       7.514673889500
        36    1       13.103475000000      11.888345989700       7.514673889500
        37    1       13.103475000000       5.403795989700       7.514673889500
        38    1        9.359625000000      11.888345989700       7.514673889500
        39    2        9.359625000000       3.242275000000       8.871750000000
        40    2       13.103475000000       9.726825000000       8.871750000000
        41    2        7.487700000000       0.000000000000       8.871750000000
        42    2       11.231550000000       6.484550000000       8.871750000000
        43    1        7.487700000000       2.161520989700       7.514673889500
        44    1       11.231550000000       8.646070989700       7.514673889500
        45    1        9.359625000000       1.080754010300      10.228826110500
        46    1       13.103475000000       7.565304010300      10.228826110500
        47    2       13.103475000000       3.242275000000       8.871750000000
        48    2        9.359625000000       9.726825000000       8.871750000000
        49    1       18.719250000000       4.323029010300      10.228826110500
        50    1       14.975400000000      10.807579010300      10.228826110500
        51    1       20.591175000000       1.080754010300      10.228826110500
        52    1       16.847325000000       7.565304010300      10.228826110500
        53    2       18.719250000000       0.000000000000       8.871750000000
        54    2       14.975400000000       6.484550000000       8.871750000000
        55    1       18.719250000000       2.161520989700       7.514673889500
        56    1       14.975400000000       8.646070989700       7.514673889500
        57    1       14.975400000000       4.323029010300      10.228826110500
        58    1       18.719250000000      10.807579010300      10.228826110500
        59    1       16.847325000000       5.403795989700       7.514673889500
        60    1       20.591175000000      11.888345989700       7.514673889500
        61    1       20.591175000000       5.403795989700       7.514673889500
        62    1       16.847325000000      11.888345989700       7.514673889500
        63    2       16.847325000000       3.242275000000       8.871750000000
        64    2       20.591175000000       9.726825000000       8.871750000000
        65    2       14.975400000000       0.000000000000       8.871750000000
        66    2       18.719250000000       6.484550000000       8.871750000000
        67    1       14.975400000000       2.161520989700       7.514673889500
        68    1       18.719250000000       8.646070989700       7.514673889500
        69    1       16.847325000000       1.080754010300      10.228826110500
        70    1       20.591175000000       7.565304010300      10.228826110500
        71    2       20.591175000000       3.242275000000       8.871750000000
        72    2       16.847325000000       9.726825000000       8.871750000000
        73    1       26.206950000000       4.323029010300      10.228826110500
        74    1       22.463100000000      10.807579010300      10.228826110500
        75    1       28.078875000000       1.080754010300      10.228826110500
        76    1       24.335025000000       7.565304010300      10.228826110500
        77    2       26.206950000000       0.000000000000       8.871750000000
        78    2       22.463100000000       6.484550000000       8.871750000000
        79    1       26.206950000000       2.161520989700       7.514673889500
        80    1       22.463100000000       8.646070989700       7.514673889500
        81    1       22.463100000000       4.323029010300      10.228826110500
        82    1       26.206950000000      10.807579010300      10.228826110500
        83    1       24.335025000000       5.403795989700       7.514673889500
        84    1       28.078875000000      11.888345989700       7.514673889500
        85    1       28.078875000000       5.403795989700       7.514673889500
        86    1       24.335025000000      11.888345989700       7.514673889500
        87    2       24.335025000000       3.242275000000       8.871750000000
        88    2       28.078875000000       9.726825000000       8.871750000000
        89    2       22.463100000000       0.000000000000       8.871750000000
        90    2       26.206950000000       6.484550000000       8.871750000000
        91    1       22.463100000000       2.161520989700       7.514673889500
        92    1       26.206950000000       8.646070989700       7.514673889500
        93    1       24.335025000000       1.080754010300      10.228826110500
        94    1       28.078875000000       7.565304010300      10.228826110500
        95    2       28.078875000000       3.242275000000       8.871750000000
        96    2       24.335025000000       9.726825000000       8.871750000000
        97    1       33.694650000000       4.323029010300      10.228826110500
        98    1       29.950800000000      10.807579010300      10.228826110500
        99    1       35.566575000000       1.080754010300      10.228826110500
       100    1       31.822725000000       7.565304010300      10.228826110500
       101    2       33.694650000000       0.000000000000       8.871750000000
       102    2       29.950800000000       6.484550000000       8.871750000000
       103    1       33.694650000000       2.161520989700       7.514673889500
       104    1       29.950800000000       8.646070989700       7.514673889500
       105    1       29.950800000000       4.323029010300      10.228826110500
       106    1       33.694650000000      10.807579010300      10.228826110500
       107    1       31.822725000000       5.403795989700       7.514673889500
       108    1       35.566575000000      11.888345989700       7.514673889500
       109    1       35.566575000000       5.403795989700       7.514673889500
       110    1       31.822725000000      11.888345989700       7.514673889500
       111    2       31.822725000000       3.242275000000       8.871750000000
       112    2       35.566575000000       9.726825000000       8.871750000000
       113    2       29.950800000000       0.000000000000       8.871750000000
       114    2       33.694650000000       6.484550000000       8.871750000000
       115    1       29.950800000000       2.161520989700       7.514673889500
       116    1       33.694650000000       8.646070989700       7.514673889500
       117    1       31.822725000000       1.080754010300      10.228826110500
       118    1       35.566575000000       7.565304010300      10.228826110500
       119    2       35.566575000000       3.242275000000       8.871750000000
       120    2       31.822725000000       9.726825000000       8.871750000000
       121    1       41.182350000000       4.323029010300      10.228826110500
       122    1       37.438500000000      10.807579010300      10.228826110500
       123    1       43.054275000000       1.080754010300      10.228826110500
       124    1       39.310425000000       7.565304010300      10.228826110500
       125    2       41.182350000000       0.000000000000       8.871750000000
       126    2       37.438500000000       6.484550000000       8.871750000000
       127    1       41.182350000000       2.161520989700       7.514673889500
       128    1       37.438500000000       8.646070989700       7.514673889500
       129    1       37.438500000000       4.323029010300      10.228826110500
       130    1       41.182350000000      10.807579010300      10.228826110500
       131    1       39.310425000000       5.403795989700       7.514673889500
       132    1       43.054275000000      11.888345989700       7.514673889500
       133    1       43.054275000000       5.403795989700       7.514673889500
       134    1       39.310425000000      11.888345989700       7.514673889500
       135    2       39.310425000000       3.242275000000       8.871750000000
       136    2       43.054275000000       9.726825000000       8.871750000000
       137    2       37.438500000000       0.000000000000       8.871750000000
       138    2       41.182350000000       6.484550000000       8.871750000000
       139    1       37.438500000000       2.161520989700       7.514673889500
       140    1       41.182350000000       8.646070989700       7.514673889500
       141    1       39.310425000000       1.080754010300      10.228826110500
       142    1       43.054275000000       7.565304010300      10.228826110500
       143    2       43.054275000000       3.242275000000       8.871750000000
       144    2       39.310425000000       9.726825000000       8.871750000000
       145    1       48.670050000000       4.323029010300      10.228826110500
       146    1       44.926200000000      10.807579010300      10.228826110500
       147    1       50.541975000000       1.080754010300      10.228826110500
       148    1       46.798125000000       7.565304010300      10.228826110500
       149    2       48.670050000000       0.000000000000       8.871750000000
       150    2       44.926200000000       6.484550000000       8.871750000000
       151    1       48.670050000000       2.161520989700       7.514673889500
       152    1       44.926200000000       8.646070989700       7.514673889500
       153    1       44.926200000000       4.323029010300      10.228826110500
       154    1       48.670050000000      10.807579010300      10.228826110500
       155    1       46.798125000000       5.403795989700       7.514673889500
       156    1       50.541975000000      11.888345989700       7.514673889500
       157    1       50.541975000000       5.403795989700       7.514673889500
       158    1       46.798125000000      11.888345989700       7.514673889500
       159    2       46.798125000000       3.242275000000       8.871750000000
       160    2       50.541975000000       9.726825000000       8.871750000000
       161    2       44.926200000000       0.000000000000       8.871750000000
       162    2       48.670050000000       6.484550000000       8.871750000000
       163    1       44.926200000000       2.161520989700       7.514673889500
       164    1       48.670050000000       8.646070989700       7.514673889500
       165    1       46.798125000000       1.080754010300      10.228826110500
       166    1       50.541975000000       7.565304010300      10.228826110500
       167    2       50.541975000000       3.242275000000       8.871750000000
       168    2       46.798125000000       9.726825000000       8.871750000000
       169    1       56.157750000000       4.323029010300      10.228826110500
       170    1       52.413900000000      10.807579010300      10.228826110500
       171    1       58.029675000000       1.080754010300      10.228826110500
       172    1       54.285825000000       7.565304010300      10.228826110500
       173    2       56.157750000000       0.000000000000       8.871750000000
       174    2       52.413900000000       6.484550000000       8.871750000000
       175    1       56.157750000000       2.161520989700       7.514673889500
       176    1       52.413900000000       8.646070989700       7.514673889500
       177    1       52.413900000000       4.323029010300      10.228826110500
       178    1       56.157750000000      10.807579010300      10.228826110500
       179    1       54.285825000000       5.403795989700       7.514673889500
       180    1       58.029675000000      11.888345989700       7.514673889500
       181    1       58.029675000000       5.403795989700       7.514673889500
       182    1       54.285825000000      11.888345989700       7.514673889500
       183    2       54.285825000000       3.242275000000       8.871750000000
       184    2       58.029675000000       9.726825000000       8.871750000000
       185    2       52.413900000000       0.000000000000       8.871750000000
       186    2       56.157750000000       6.484550000000       8.871750000000
       187    1       52.413900000000       2.161520989700       7.514673889500
       188    1       56.157750000000       8.646070989700       7.514673889500
       189    1       54.285825000000       1.080754010300      10.228826110500
       190    1       58.029675000000       7.565304010300      10.228826110500
       191    2       58.029675000000       3.242275000000       8.871750000000
       192    2       54.285825000000       9.726825000000       8.871750000000
       193    1       63.645450000000       4.323029010300      10.228826110500
       194    1       59.901600000000      10.807579010300      10.228826110500
       195    1       65.517375000000       1.080754010300      10.228826110500
       196    1       61.773525000000       7.565304010300      10.228826110500
       197    2       63.645450000000       0.000000000000       8.871750000000
       198    2       59.901600000000       6.484550000000       8.871750000000
       199    1       63.645450000000       2.161520989700       7.514673889500
       200    1       59.901600000000       8.646070989700       7.514673889500
       201    1       59.901600000000       4.323029010300      10.228826110500
       202    1       63.645450000000      10.807579010300      10.228826110500
       203    1       61.773525000000       5.403795989700       7.514673889500
       204    1       65.517375000000      11.888345989700       7.514673889500
       205    1       65.517375000000       5.403795989700       7.514673889500
       206    1       61.773525000000      11.888345989700       7.514673889500
       207    2       61.773525000000       3.242275000000       8.871750000000
       208    2       65.517375000000       9.726825000000       8.871750000000
       209    2       59.901600000000       0.000000000000       8.871750000000
       210    2       63.645450000000       6.484550000000       8.871750000000
       211    1       59.901600000000       2.161520989700       7.514673889500
       212    1       63.645450000000       8.646070989700       7.514673889500
       213    1       61.773525000000       1.080754010300      10.228826110500
       214    1       65.517375000000       7.565304010300      10.228826110500
       215    2       65.517375000000       3.242275000000       8.871750000000
       216    2       61.773525000000       9.726825000000       8.871750000000
       217    1       71.133150000000       4.323029010300      10.228826110500
       218    1       67.389300000000      10.807579010300      10.228826110500
       219    1       73.005075000000       1.080754010300      10.228826110500
       220    1       69.261225000000       7.565304010300      10.228826110500
       221    2       71.133150000000       0.000000000000       8.871750000000
       222    2       67.389300000000       6.484550000000       8.871750000000
       223    1       71.133150000000       2.161520989700       7.514673889500
       224    1       67.389300000000       8.646070989700       7.514673889500
       225    1       67.389300000000       4.323029010300      10.228826110500
       226    1       71.133150000000      10.807579010300      10.228826110500
       227    1       69.261225000000       5.403795989700       7.514673889500
       228    1       73.005075000000      11.888345989700       7.514673889500
       229    1       73.005075000000       5.403795989700       7.514673889500
       230    1       69.261225000000      11.888345989700       7.514673889500
       231    2       69.261225000000       3.242275000000       8.871750000000
       232    2       73.005075000000       9.726825000000       8.871750000000
       233    2       67.389300000000       0.000000000000       8.871750000000
       234    2       71.133150000000       6.484550000000       8.871750000000
       235    1       67.389300000000       2.161520989700       7.514673889500
       236    1       71.133150000000       8.646070989700       7.514673889500
       237    1       69.261225000000       1.080754010300      10.228826110500
       238    1       73.005075000000       7.565304010300      10.228826110500
       239    2       73.005075000000       3.242275000000       8.871750000000
       240    2       69.261225000000       9.726825000000       8.871750000000
       241    1       78.620850000000       4.323029010300      10.228826110500
       242    1       74.877000000000      10.807579010300      10.228826110500
       243    1       80.492775000000       1.080754010300      10.228826110500
       244    1       76.748925000000       7.565304010300      10.228826110500
       245    2       78.620850000000       0.000000000000       8.871750000000
       246    2       74.877000000000       6.484550000000       8.871750000000
       247    1       78.620850000000       2.161520989700       7.514673889500
       248    1       74.877000000000       8.646070989700       7.514673889500
       249    1       74.877000000000       4.323029010300      10.228826110500
       250    1       78.620850000000      10.807579010300      10.228826110500
       251    1       76.748925000000       5.403795989700       7.514673889500
       252    1       80.492775000000      11.888345989700       7.514673889500
       253    1       80.492775000000       5.403795989700       7.514673889500
       254    1       76.748925000000      11.888345989700       7.514673889500
       255    2       76.748925000000       3.242275000000       8.871750000000
       256    2       80.492775000000       9.726825000000       8.871750000000
       257    2       74.877000000000       0.000000000000       8.871750000000
       258    2       78.620850000000       6.484550000000       8.871750000000
       259    1       74.877000000000       2.161520989700       7.514673889500
       260    1       78.620850000000       8.646070989700       7.514673889500
       261    1       76.748925000000       1.080754010300      10.228826110500
       262    1       80.492775000000       7.565304010300      10.228826110500
       263    2       80.492775000000       3.242275000000       8.871750000000
       264    2       76.748925000000       9.726825000000       8.871750000000
       265    1       86.108550000000       4.323029010300      10.228826110500
       266    1       82.364700000000      10.807579010300      10.228826110500
       267    1       87.980475000000       1.080754010300      10.228826110500
       268    1       84.236625000000       7.565304010300      10.228826110500
       269    2       86.108550000000       0.000000000000       8.871750000000
       270    2       82.364700000000       6.484550000000       8.871750000000
       271    1       86.108550000000       2.161520989700       7.514673889500
       272    1       82.364700000000       8.646070989700       7.514673889500
       273    1       82.364700000000       4.323029010300      10.228826110500
       274    1       86.108550000000      10.807579010300      10.228826110500
       275    1       84.236625000000       5.403795989700       7.514673889500
       276    1       87.980475000000      11.888345989700       7.514673889500
       277    1       87.980475000000       5.403795989700       7.514673889500
       278    1       84.236625000000      11.888345989700       7.514673889500
       279    2       84.236625000000       3.242275000000       8.871750000000
       280    2       87.980475000000       9.726825000000       8.871750000000
       281    2       82.364700000000       0.000000000000       8.871750000000
       282    2       86.108550000000       6.484550000000       8.871750000000
       283    1       82.364700000000       2.161520989700       7.514673889500
       284    1       86.108550000000       8.646070989700       7.514673889500
       285    1       84.236625000000       1.080754010300      10.228826110500
       286    1       87.980475000000       7.565304010300      10.228826110500
       287    2       87.980475000000       3.242275000000       8.871750000000
       288    2       84.236625000000       9.726825000000       8.871750000000
       289    1       93.596250000000       4.323029010300      10.228826110500
       290    1       89.852400000000      10.807579010300      10.228826110500
       291    1       95.468175000000       1.080754010300      10.228826110500
       292    1       91.724325000000       7.565304010300      10.228826110500
       293    2       93.596250000000       0.000000000000       8.871750000000
       294    2       89.852400000000       6.484550000000       8.871750000000
       295    1       93.596250000000       2.161520989700       7.514673889500
       296    1       89.852400000000       8.646070989700       7.514673889500
       297    1       89.852400000000       4.323029010300      10.228826110500
       298    1       93.596250000000      10.807579010300      10.228826110500
       299    1       91.724325000000       5.403795989700       7.514673889500
       300    1       95.468175000000      11.888345989700       7.514673889500
       301    1       95.468175000000       5.403795989700       7.514673889500
       302    1       91.724325000000      11.888345989700       7.514673889500
       303    2       91.724325000000       3.242275000000       8.871750000000
       304    2       95.468175000000       9.726825000000       8.871750000000
       305    2       89.852400000000       0.000000000000       8.871750000000
       306    2       93.596250000000       6.484550000000       8.871750000000
       307    1       89.852400000000       2.161520989700       7.514673889500
       308    1       93.596250000000       8.646070989700       7.514673889500
       309    1       91.724325000000       1.080754010300      10.228826110500
       310    1       95.468175000000       7.565304010300      10.228826110500
       311    2       95.468175000000       3.242275000000       8.871750000000
       312    2       91.724325000000       9.726825000000       8.871750000000
       313    1        3.743850000000      17.292129010300      10.228826110500
       314    1        0.000000000000      23.776679010300      10.228826110500
       315    1        5.615775000000      14.049854010300      10.228826110500
       316    1        1.871925000000      20.534404010300      10.228826110500
       317    2        3.743850000000      12.969100000000       8.871750000000
       318    2        0.000000000000      19.453650000000       8.871750000000
       319    1        3.743850000000      15.130620989700       7.514673889500
       320    1        0.000000000000      21.615170989700       7.514673889500
       321    1        0.000000000000      17.292129010300      10.228826110500
       322    1        3.743850000000      23.776679010300      10.228826110500
       323    1        1.871925000000      18.372895989700       7.514673889500
       324    1        5.615775000000      24.857445989700       7.514673889500
       325    1        5.615775000000      18.372895989700       7.514673889500
       326    1        1.871925000000      24.857445989700       7.514673889500
       327    2        1.871925000000      16.211375000000       8.871750000000
       328    2        5.615775000000      22.695925000000       8.871750000000
       329    2        0.000000000000      12.969100000000       8.871750000000
       330    2        3.743850000000      19.453650000000       8.871750000000
       331    1        0.000000000000      15.130620989700       7.514673889500
       332    1        3.743850000000      21.615170989700       7.514673889500
       333    1        1.871925000000      14.049854010300      10.228826110500
       334    1        5.615775000000      20.534404010300      10.228826110500
       335    2        5.615775000000      16.211375000000       8.871750000000
       336    2        1.871925000000      22.695925000000       8.871750000000
       337    1       11.231550000000      17.292129010300      10.228826110500
       338    1        7.487700000000      23.776679010300      10.228826110500
       339    1       13.103475000000      14.049854010300      10.228826110500
       340    1        9.359625000000      20.534404010300      10.228826110500
       341    2       11.231550000000      12.969100000000       8.871750000000
       342    2        7.487700000000      19.453650000000       8.871750000000
       343    1       11.231550000000      15.130620989700       7.514673889500
       344    1        7.487700000000      21.615170989700       7.514673889500
       345    1        7.487700000000      17.292129010300      10.228826110500
       346    1       11.231550000000      23.776679010300      10.228826110500
       347    1        9.359625000000      18.372895989700       7.514673889500
       348    1       13.103475000000      24.857445989700       7.514673889500
       349    1       13.103475000000      18.372895989700       7.514673889500
       350    1        9.359625000000      24.857445989700       7.514673889500
       351    2        9.359625000000      16.211375000000       8.871750000000
       352    2       13.103475000000      22.695925000000       8.871750000000
       353    2        7.487700000000      12.969100000000       8.871750000000
       354    2       11.231550000000      19.453650000000       8.871750000000
       355    1        7.487700000000      15.130620989700       7.514673889500
       356    1       11.231550000000      21.615170989700       7.514673889500
       357    1        9.359625000000      14.049854010300      10.228826110500
       358    1       13.103475000000      20.534404010300      10.228826110500
       359    2       13.103475000000      16.211375000000       8.871750000000
       360    2        9.359625000000      22.695925000000       8.871750000000
       361    1       18.719250000000      17.292129010300      10.228826110500
       362    1       14.975400000000      23.776679010300      10.228826110500
       363    1       20.591175000000      14.049854010300      10.228826110500
       364    1       16.847325000000      20.534404010300      10.228826110500
       365    2       18.719250000000      12.969100000000       8.871750000000
       366    2       14.975400000000      19.453650000000       8.871750000000
       367    1       18.719250000000      15.130620989700       7.514673889500
       368    1       14.975400000000      21.615170989700       7.514673889500
       369    1       14.975400000000      17.292129010300      10.228826110500
       370    1       18.719250000000      23.776679010300      10.228826110500