 # S16 Sn8
  
        2688  atoms
           2  atom types
 
      0.000000000000     103.486600000000  xlo xhi
      0.000000000000     102.425600000000  ylo yhi
      0.000000000000      17.955100000000  zlo zhi
 
Masses
 
            1   32.06000000             # S
            2   118.71000000            # Sn
 
Atoms # atomic
 
         1    1        0.000000000000       2.133870934400       7.499988910800
         2    2        3.695950000000       0.000000000000       8.977550000000
         3    2        0.000000000000       6.401600000000       8.977550000000
         4    1        3.695950000000       8.535470934400       7.499988910800
         5    2        1.847975000000       3.200800000000       8.977550000000
         6    2        5.543925000000       9.602400000000       8.977550000000
         7    1        3.695950000000       4.267729065600      10.455111089200
         8    1        0.000000000000      10.669329065600      10.455111089200
         9    1        5.543925000000       1.066929065600      10.455111089200
        10    1        3.695950000000       2.133870934400       7.499988910800
        11    1        1.847975000000       7.468529065600      10.455111089200
        12    1        0.000000000000       8.535470934400       7.499988910800
        13    1        5.543925000000       5.334670934400       7.499988910800
        14    1        1.847975000000      11.736270934400       7.499988910800
        15    2        0.000000000000       0.000000000000       8.977550000000
        16    2        3.695950000000       6.401600000000       8.977550000000
        17    1        1.847975000000       1.066929065600      10.455111089200
        18    1        5.543925000000       7.468529065600      10.455111089200
        19    1        1.847975000000       5.334670934400       7.499988910800
        20    1        5.543925000000      11.736270934400       7.499988910800
        21    2        5.543925000000       3.200800000000       8.977550000000
        22    2        1.847975000000       9.602400000000       8.977550000000
        23    1        0.000000000000       4.267729065600      10.455111089200
        24    1        3.695950000000      10.669329065600      10.455111089200
        25    1        7.391900000000       2.133870934400       7.499988910800
        26    2       11.087850000000       0.000000000000       8.977550000000
        27    2        7.391900000000       6.401600000000       8.977550000000
        28    1       11.087850000000       8.535470934400       7.499988910800
        29    2        9.239875000000       3.200800000000       8.977550000000
        30    2       12.935825000000       9.602400000000       8.977550000000
        31    1       11.087850000000       4.267729065600      10.455111089200
        32    1        7.391900000000      10.669329065600      10.455111089200
        33    1       12.935825000000       1.066929065600      10.455111089200
        34    1       11.087850000000       2.133870934400       7.499988910800
        35    1        9.239875000000       7.468529065600      10.455111089200
        36    1        7.391900000000       8.535470934400       7.499988910800
        37    1       12.935825000000       5.334670934400       7.499988910800
        38    1        9.239875000000      11.736270934400       7.499988910800
        39    2        7.391900000000       0.000000000000       8.977550000000
        40    2       11.087850000000       6.401600000000       8.977550000000
        41    1        9.239875000000       1.066929065600      10.455111089200
        42    1       12.935825000000       7.468529065600      10.455111089200
        43    1        9.239875000000       5.334670934400       7.499988910800
        44    1       12.935825000000      11.736270934400       7.499988910800
        45    2       12.935825000000       3.200800000000       8.977550000000
        46    2        9.239875000000       9.602400000000       8.977550000000
        47    1        7.391900000000       4.267729065600      10.455111089200
        48    1       11.087850000000      10.669329065600      10.455111089200
        49    1       14.783800000000       2.133870934400       7.499988910800
        50    2       18.479750000000       0.000000000000       8.977550000000
        51    2       14.783800000000       6.401600000000       8.977550000000
        52    1       18.479750000000       8.535470934400       7.499988910800
        53    2       16.631775000000       3.200800000000       8.977550000000
        54    2       20.327725000000       9.602400000000       8.977550000000
        55    1       18.479750000000       4.267729065600      10.455111089200
        56    1       14.783800000000      10.669329065600      10.455111089200
        57    1       20.327725000000       1.066929065600      10.455111089200
        58    1       18.479750000000       2.133870934400       7.499988910800
        59    1       16.631775000000       7.468529065600      10.455111089200
        60    1       14.783800000000       8.535470934400       7.499988910800
        61    1       20.327725000000       5.334670934400       7.499988910800
        62    1       16.631775000000      11.736270934400       7.499988910800
        63    2       14.783800000000       0.000000000000       8.977550000000
        64    2       18.479750000000       6.401600000000       8.977550000000
        65    1       16.631775000000       1.066929065600      10.455111089200
        66    1       20.327725000000       7.468529065600      10.455111089200
        67    1       16.631775000000       5.334670934400       7.499988910800
        68    1       20.327725000000      11.736270934400       7.499988910800
        69    2       20.327725000000       3.200800000000       8.977550000000
        70    2       16.631775000000       9.602400000000       8.977550000000
        71    1       14.783800000000       4.267729065600      10.455111089200
        72    1       18.479750000000      10.669329065600      10.455111089200
        73    1       22.175700000000       2.133870934400       7.499988910800
        74    2       25.871650000000       0.000000000000       8.977550000000
        75    2       22.175700000000       6.401600000000       8.977550000000
        76    1       25.871650000000       8.535470934400       7.499988910800
        77    2       24.023675000000       3.200800000000       8.977550000000
        78    2       27.719625000000       9.602400000000       8.977550000000
        79    1       25.871650000000       4.267729065600      10.455111089200
        80    1       22.175700000000      10.669329065600      10.455111089200
        81    1       27.719625000000       1.066929065600      10.455111089200
        82    1       25.871650000000       2.133870934400       7.499988910800
        83    1       24.023675000000       7.468529065600      10.455111089200
        84    1       22.175700000000       8.535470934400       7.499988910800
        85    1       27.719625000000       5.334670934400       7.499988910800
        86    1       24.023675000000      11.736270934400       7.499988910800
        87    2       22.175700000000       0.000000000000       8.977550000000
        88    2       25.871650000000       6.401600000000       8.977550000000
        89    1       24.023675000000       1.066929065600      10.455111089200
        90    1       27.719625000000       7.468529065600      10.455111089200
        91    1       24.023675000000       5.334670934400       7.499988910800
        92    1       27.719625000000      11.736270934400       7.499988910800
        93    2       27.719625000000       3.200800000000       8.977550000000
        94    2       24.023675000000       9.602400000000       8.977550000000
        95    1       22.175700000000       4.267729065600      10.455111089200
        96    1       25.871650000000      10.669329065600      10.455111089200
        97    1       29.567600000000       2.133870934400       7.499988910800
        98    2       33.263550000000       0.000000000000       8.977550000000
        99    2       29.567600000000       6.401600000000       8.977550000000
       100    1       33.263550000000       8.535470934400       7.499988910800
       101    2       31.415575000000       3.200800000000       8.977550000000
       102    2       35.111525000000       9.602400000000       8.977550000000
       103    1       33.263550000000       4.267729065600      10.455111089200
       104    1       29.567600000000      10.669329065600      10.455111089200
       105    1       35.111525000000       1.066929065600      10.455111089200
       106    1       33.263550000000       2.133870934400       7.499988910800
       107    1       31.415575000000       7.468529065600      10.455111089200
       108    1       29.567600000000       8.535470934400       7.499988910800
       109    1       35.111525000000       5.334670934400       7.499988910800
       110    1       31.415575000000      11.736270934400       7.499988910800
       111    2       29.567600000000       0.000000000000       8.977550000000
       112    2       33.263550000000       6.401600000000       8.977550000000
       113    1       31.415575000000       1.066929065600      10.455111089200
       114    1       35.111525000000       7.468529065600      10.455111089200
       115    1       31.415575000000       5.334670934400       7.499988910800
       116    1       35.111525000000      11.736270934400       7.499988910800
       117    2       35.111525000000       3.200800000000       8.977550000000
       118    2       31.415575000000       9.602400000000       8.977550000000
       119    1       29.567600000000       4.267729065600      10.455111089200
       120    1       33.263550000000      10.669329065600      10.455111089200
       121    1       36.959500000000       2.133870934400       7.499988910800
       122    2       40.655450000000       0.000000000000       8.977550000000
       123    2       36.959500000000       6.401600000000       8.977550000000
       124    1       40.655450000000       8.535470934400       7.499988910800
       125    2       38.807475000000       3.200800000000       8.977550000000
       126    2       42.503425000000       9.602400000000       8.977550000000
       127    1       40.655450000000       4.267729065600      10.455111089200
       128    1       36.959500000000      10.669329065600      10.455111089200
       129    1       42.503425000000       1.066929065600      10.455111089200
       130    1       40.655450000000       2.133870934400       7.499988910800
       131    1       38.807475000000       7.468529065600      10.455111089200
       132    1       36.959500000000       8.535470934400       7.499988910800
       133    1       42.503425000000       5.334670934400       7.499988910800
       134    1       38.807475000000      11.736270934400       7.499988910800
       135    2       36.959500000000       0.000000000000       8.977550000000
       136    2       40.655450000000       6.401600000000       8.977550000000
       137    1       38.807475000000       1.066929065600      10.455111089200
       138    1       42.503425000000       7.468529065600      10.455111089200
       139    1       38.807475000000       5.334670934400       7.499988910800
       140    1       42.503425000000      11.736270934400       7.499988910800
       141    2       42.503425000000       3.200800000000       8.977550000000
       142    2       38.807475000000       9.602400000000       8.977550000000
       143    1       36.959500000000       4.267729065600      10.455111089200
       144    1       40.655450000000      10.669329065600      10.455111089200
       145    1       44.351400000000       2.133870934400       7.499988910800
       146    2       48.047350000000       0.000000000000       8.977550000000
       147    2       44.351400000000       6.401600000000       8.977550000000
       148    1       48.047350000000       8.535470934400       7.499988910800
       149    2       46.199375000000       3.200800000000       8.977550000000
       150    2       49.895325000000       9.602400000000       8.977550000000
       151    1       48.047350000000       4.267729065600      10.455111089200
       152    1       44.351400000000      10.669329065600      10.455111089200
       153    1       49.895325000000       1.066929065600      10.455111089200
       154    1       48.047350000000       2.133870934400       7.499988910800
       155    1       46.199375000000       7.468529065600      10.455111089200
       156    1       44.351400000000       8.535470934400       7.499988910800
       157    1       49.895325000000       5.334670934400       7.499988910800
       158    1       46.199375000000      11.736270934400       7.499988910800
       159    2       44.351400000000       0.000000000000       8.977550000000
       160    2       48.047350000000       6.401600000000       8.977550000000
       161    1       46.199375000000       1.066929065600      10.455111089200
       162    1       49.895325000000       7.468529065600      10.455111089200
       163    1       46.199375000000       5.334670934400       7.499988910800
       164    1       49.895325000000      11.736270934400       7.499988910800
       165    2       49.895325000000       3.200800000000       8.977550000000
       166    2       46.199375000000       9.602400000000       8.977550000000
       167    1       44.351400000000       4.267729065600      10.455111089200
       168    1       48.047350000000      10.669329065600      10.455111089200
       169    1       51.743300000000       2.133870934400       7.499988910800
       170    2       55.439250000000       0.000000000000       8.977550000000
       171    2       51.743300000000       6.401600000000       8.977550000000
       172    1       55.439250000000       8.535470934400       7.499988910800
       173    2       53.591275000000       3.200800000000       8.977550000000
       174    2       57.287225000000       9.602400000000       8.977550000000
       175    1       55.439250000000       4.267729065600      10.455111089200
       176    1       51.743300000000      10.669329065600      10.455111089200
       177    1       57.287225000000       1.066929065600      10.455111089200
       178    1       55.439250000000       2.133870934400       7.499988910800
       179    1       53.591275000000       7.468529065600      10.455111089200
       180    1       51.743300000000       8.535470934400       7.499988910800
       181    1       57.287225000000       5.334670934400       7.499988910800
       182    1       53.591275000000      11.736270934400       7.499988910800
       183    2       51.743300000000       0.000000000000       8.977550000000
       184    2       55.439250000000       6.401600000000       8.977550000000
       185    1       53.591275000000       1.066929065600      10.455111089200
       186    1       57.287225000000       7.468529065600      10.455111089200
       187    1       53.591275000000       5.334670934400       7.499988910800
       188    1       57.287225000000      11.736270934400       7.499988910800
       189    2       57.287225000000       3.200800000000       8.977550000000
       190    2       53.591275000000       9.602400000000       8.977550000000
       191    1       51.743300000000       4.267729065600      10.455111089200
       192    1       55.439250000000      10.669329065600      10.455111089200
       193    1       59.135200000000       2.133870934400       7.499988910800
       194    2       62.831150000000       0.000000000000       8.977550000000
       195    2       59.135200000000       6.401600000000       8.977550000000
       196    1       62.831150000000       8.535470934400       7.499988910800
       197    2       60.983175000000       3.200800000000       8.977550000000
       198    2       64.679125000000       9.602400000000       8.977550000000
       199    1       62.831150000000       4.267729065600      10.455111089200
       200    1       59.135200000000      10.669329065600      10.455111089200
       201    1       64.679125000000       1.066929065600      10.455111089200
       202    1       62.831150000000       2.133870934400       7.499988910800
       203    1       60.983175000000       7.468529065600      10.455111089200
       204    1       59.135200000000       8.535470934400       7.499988910800
       205    1       64.679125000000       5.334670934400       7.499988910800
       206    1       60.983175000000      11.736270934400       7.499988910800
       207    2       59.135200000000       0.000000000000       8.977550000000
       208    2       62.831150000000       6.401600000000       8.977550000000
       209    1       60.983175000000       1.066929065600      10.455111089200
       210    1       64.679125000000       7.468529065600      10.455111089200
       211    1       60.983175000000       5.334670934400       7.499988910800
       212    1       64.679125000000      11.736270934400       7.499988910800
       213    2       64.679125000000       3.200800000000       8.977550000000
       214    2       60.983175000000       9.602400000000       8.977550000000
       215    1       59.135200000000       4.267729065600      10.455111089200
       216    1       62.831150000000      10.669329065600      10.455111089200
       217    1       66.527100000000       2.133870934400       7.499988910800
       218    2       70.223050000000       0.000000000000       8.977550000000
       219    2       66.527100000000       6.401600000000       8.977550000000
       220    1       70.223050000000       8.535470934400       7.499988910800
       221    2       68.375075000000       3.200800000000       8.977550000000
       222    2       72.071025000000       9.602400000000       8.977550000000
       223    1       70.223050000000       4.267729065600      10.455111089200
       224    1       66.527100000000      10.669329065600      10.455111089200
       225    1       72.071025000000       1.066929065600      10.455111089200
       226    1       70.223050000000       2.133870934400       7.499988910800
       227    1       68.375075000000       7.468529065600      10.455111089200
       228    1       66.527100000000       8.535470934400       7.499988910800
       229    1       72.071025000000       5.334670934400       7.499988910800
       230    1       68.375075000000      11.736270934400       7.499988910800
       231    2       66.527100000000       0.000000000000       8.977550000000
       232    2       70.223050000000       6.401600000000       8.977550000000
       233    1       68.375075000000       1.066929065600      10.455111089200
       234    1       72.071025000000       7.468529065600      10.455111089200
       235    1       68.375075000000       5.334670934400       7.499988910800
       236    1       72.071025000000      11.736270934400       7.499988910800
       237    2       72.071025000000       3.200800000000       8.977550000000
       238    2       68.375075000000       9.602400000000       8.977550000000
       239    1       66.527100000000       4.267729065600      10.455111089200
       240    1       70.223050000000      10.669329065600      10.455111089200
       241    1       73.919000000000       2.133870934400       7.499988910800
       242    2       77.614950000000       0.000000000000       8.977550000000
       243    2       73.919000000000       6.401600000000       8.977550000000
       244    1       77.614950000000       8.535470934400       7.499988910800
       245    2       75.766975000000       3.200800000000       8.977550000000
       246    2       79.462925000000       9.602400000000       8.977550000000
       247    1       77.614950000000       4.267729065600      10.455111089200
       248    1       73.919000000000      10.669329065600      10.455111089200
       249    1       79.462925000000       1.066929065600      10.455111089200
       250    1       77.614950000000       2.133870934400       7.499988910800
       251    1       75.766975000000       7.468529065600      10.455111089200
       252    1       73.919000000000       8.535470934400       7.499988910800
       253    1       79.462925000000       5.334670934400       7.499988910800
       254    1       75.766975000000      11.736270934400       7.499988910800
       255    2       73.919000000000       0.000000000000       8.977550000000
       256    2       77.614950000000       6.401600000000       8.977550000000
       257    1       75.766975000000       1.066929065600      10.455111089200
       258    1       79.462925000000       7.468529065600      10.455111089200
       259    1       75.766975000000       5.334670934400       7.499988910800
       260    1       79.462925000000      11.736270934400       7.499988910800
       261    2       79.462925000000       3.200800000000       8.977550000000
       262    2       75.766975000000       9.602400000000       8.977550000000
       263    1       73.919000000000       4.267729065600      10.455111089200
       264    1       77.614950000000      10.669329065600      10.455111089200
       265    1       81.310900000000       2.133870934400       7.499988910800
       266    2       85.006850000000       0.000000000000       8.977550000000
       267    2       81.310900000000       6.401600000000       8.977550000000
       268    1       85.006850000000       8.535470934400       7.499988910800
       269    2       83.158875000000       3.200800000000       8.977550000000
       270    2       86.854825000000       9.602400000000       8.977550000000
       271    1       85.006850000000       4.267729065600      10.455111089200
       272    1       81.310900000000      10.669329065600      10.455111089200
       273    1       86.854825000000       1.066929065600      10.455111089200
       274    1       85.006850000000       2.133870934400       7.499988910800
       275    1       83.158875000000       7.468529065600      10.455111089200
       276    1       81.310900000000       8.535470934400       7.499988910800
       277    1       86.854825000000       5.334670934400       7.499988910800
       278    1       83.158875000000      11.736270934400       7.499988910800
       279    2       81.310900000000       0.000000000000       8.977550000000
       280    2       85.006850000000       6.401600000000       8.977550000000
       281    1       83.158875000000       1.066929065600      10.455111089200
       282    1       86.854825000000       7.468529065600      10.455111089200
       283    1       83.158875000000       5.334670934400       7.499988910800
       284    1       86.854825000000      11.736270934400       7.499988910800
       285    2       86.854825000000       3.200800000000       8.977550000000
       286    2       83.158875000000       9.602400000000       8.977550000000
       287    1       81.310900000000       4.267729065600      10.455111089200
       288    1       85.006850000000      10.669329065600      10.455111089200
       289    1       88.702800000000       2.133870934400       7.499988910800
       290    2       92.398750000000       0.000000000000       8.977550000000
       291    2       88.702800000000       6.401600000000       8.977550000000
       292    1       92.398750000000       8.535470934400       7.499988910800
       293    2       90.550775000000       3.200800000000       8.977550000000
       294    2       94.246725000000       9.602400000000       8.977550000000
       295    1       92.398750000000       4.267729065600      10.455111089200
       296    1       88.702800000000      10.669329065600      10.455111089200
       297    1       94.246725000000       1.066929065600      10.455111089200
       298    1       92.398750000000       2.133870934400       7.499988910800
       299    1       90.550775000000       7.468529065600      10.455111089200
       300    1       88.702800000000       8.535470934400       7.499988910800
       301    1       94.246725000000       5.334670934400       7.499988910800
       302    1       90.550775000000      11.736270934400       7.499988910800
       303    2       88.702800000000       0.000000000000       8.977550000000
       304    2       92.398750000000       6.401600000000       8.977550000000
       305    1       90.550775000000       1.066929065600      10.455111089200
       306    1       94.246725000000       7.468529065600      10.455111089200
       307    1       90.550775000000       5.334670934400       7.499988910800
       308    1       94.246725000000      11.736270934400       7.499988910800
       309    2       94.246725000000       3.200800000000       8.977550000000
       310    2       90.550775000000       9.602400000000       8.977550000000
       311    1       88.702800000000       4.267729065600      10.455111089200
       312    1       92.398750000000      10.669329065600      10.455111089200
       313    1       96.094700000000       2.133870934400       7.499988910800
       314    2       99.790650000000       0.000000000000       8.977550000000
       315    2       96.094700000000       6.401600000000       8.977550000000
       316    1       99.790650000000       8.535470934400       7.499988910800
       317    2       97.942675000000       3.200800000000       8.977550000000
       318    2      101.638625000000       9.602400000000       8.977550000000
       319    1       99.790650000000       4.267729065600      10.455111089200
       320    1       96.094700000000      10.669329065600      10.455111089200
       321    1      101.638625000000       1.066929065600      10.455111089200
       322    1       99.790650000000       2.133870934400       7.499988910800
       323    1       97.942675000000       7.468529065600      10.455111089200
       324    1       96.094700000000       8.535470934400       7.499988910800
       325    1      101.638625000000       5.334670934400       7.499988910800
       326    1       97.942675000000      11.736270934400       7.499988910800
       327    2       96.094700000000       0.000000000000       8.977550000000
       328    2       99.790650000000       6.401600000000       8.977550000000
       329    1       97.942675000000       1.066929065600      10.455111089200
       330    1      101.638625000000       7.468529065600      10.455111089200
       331    1       97.942675000000       5.334670934400       7.499988910800
       332    1      101.638625000000      11.736270934400       7.499988910800
       333    2      101.638625000000       3.200800000000       8.977550000000
       334    2       97.942675000000       9.602400000000       8.977550000000
       335    1       96.094700000000       4.267729065600      10.455111089200
       336    1       99.790650000000      10.669329065600      10.455111089200
       337    1        0.000000000000      14.937070934400       7.499988910800
       338    2        3.695950000000      12.803200000000       8.977550000000
       339    2        0.000000000000      19.204800000000       8.977550000000
       340    1        3.695950000000      21.338670934400       7.499988910800
       341    2        1.847975000000      16.004000000000       8.977550000000
       342    2        5.543925000000      22.405600000000       8.977550000000
       343    1        3.695950000000      17.070929065600      10.455111089200
       344    1        0.000000000000      23.472529065600      10.455111089200
       345    1        5.543925000000      13.870129065600      10.455111089200
       346    1        3.695950000000      14.937070934400       7.499988910800
       347    1        1.847975000000      20.271729065600      10.455111089200
       348    1        0.000000000000      21.338670934400       7.499988910800
       349    1        5.543925000000      18.137870934400       7.499988910800
       350    1        1.847975000000      24.539470934400       7.499988910800
       351    2        0.000000000000      12.803200000000       8.977550000000
       352    2        3.695950000000      19.204800000000       8.977550000000
       353    1        1.847975000000      13.870129065600      10.455111089200
       354    1        5.543925000000      20.271729065600      10.455111089200
       355    1        1.847975000000      18.137870934400       7.499988910800
       356    1        5.543925000000      24.539470934400       7.499988910800
       357    2        5.543925000000      16.004000000000       8.977550000000
       358    2        1.847975000000      22.405600000000       8.977550000000
       359    1        0.000000000000      17.070929065600      10.455111089200
       360    1        3.695950000000      23.472529065600      10.455111089200
       361    1        7.391900000000      14.937070934400       7.499988910800
       362    2       11.087850000000      12.803200000000       8.977550000000
       363    2        7.391900000000      19.204800000000       8.977550000000
       364    1       11.087850000000      21.338670934400       7.499988910800
       365    2        9.239875000000      16.004000000000       8.977550000000
       366    2       12.935825000000      22.405600000000       8.977550000000
       367    1       11.087850000000      17.070929065600      10.455111089200
       368    1        7.391900000000      23.472529065600      10.455111089200
       369    1       12.935825000000      13.870129065600      10.455111089200
       370    1       11.087850000000      14.937070934400       7.499988910800