 # Se16 Sn8
  
        2184  atoms
           2  atom types
 
      0.000000000000     100.486100000000  xlo xhi
      0.000000000000      93.717400000000  ylo yhi
      0.000000000000      18.182600000000  zlo zhi
 
Masses
 
            1   78.96000000             # Se
            2   118.71000000            # Sn
 
Atoms # atomic
 
         1    1        5.797275000000       1.115678870600      10.684241220800
         2    1        3.864850000000       4.462728870600      10.684241220800
         3    1        1.932425000000       7.809778870600      10.684241220800
         4    1        0.000000000000      11.156828870600      10.684241220800
         5    1        0.000000000000       4.462728870600      10.684241220800
         6    1        0.000000000000       2.231371129400       7.498358779200
         7    1        1.932425000000       5.578421129400       7.498358779200
         8    1        3.864850000000      11.156828870600      10.684241220800
         9    1        3.864850000000       8.925471129400       7.498358779200
        10    1        5.797275000000      12.272521129400       7.498358779200
        11    1        3.864850000000       2.231371129400       7.498358779200
        12    1        0.000000000000       8.925471129400       7.498358779200
        13    1        1.932425000000       1.115678870600      10.684241220800
        14    1        5.797275000000       7.809778870600      10.684241220800
        15    2        3.864850000000       0.000000000000       9.091300000000
        16    2        0.000000000000       6.694100000000       9.091300000000
        17    2        5.797275000000       3.347050000000       9.091300000000
        18    2        1.932425000000      10.041150000000       9.091300000000
        19    1        5.797275000000       5.578421129400       7.498358779200
        20    1        1.932425000000      12.272521129400       7.498358779200
        21    2        1.932425000000       3.347050000000       9.091300000000
        22    2        5.797275000000      10.041150000000       9.091300000000
        23    2        0.000000000000       0.000000000000       9.091300000000
        24    2        3.864850000000       6.694100000000       9.091300000000
        25    1       13.526975000000       1.115678870600      10.684241220800
        26    1       11.594550000000       4.462728870600      10.684241220800
        27    1        9.662125000000       7.809778870600      10.684241220800
        28    1        7.729700000000      11.156828870600      10.684241220800
        29    1        7.729700000000       4.462728870600      10.684241220800
        30    1        7.729700000000       2.231371129400       7.498358779200
        31    1        9.662125000000       5.578421129400       7.498358779200
        32    1       11.594550000000      11.156828870600      10.684241220800
        33    1       11.594550000000       8.925471129400       7.498358779200
        34    1       13.526975000000      12.272521129400       7.498358779200
        35    1       11.594550000000       2.231371129400       7.498358779200
        36    1        7.729700000000       8.925471129400       7.498358779200
        37    1        9.662125000000       1.115678870600      10.684241220800
        38    1       13.526975000000       7.809778870600      10.684241220800
        39    2       11.594550000000       0.000000000000       9.091300000000
        40    2        7.729700000000       6.694100000000       9.091300000000
        41    2       13.526975000000       3.347050000000       9.091300000000
        42    2        9.662125000000      10.041150000000       9.091300000000
        43    1       13.526975000000       5.578421129400       7.498358779200
        44    1        9.662125000000      12.272521129400       7.498358779200
        45    2        9.662125000000       3.347050000000       9.091300000000
        46    2       13.526975000000      10.041150000000       9.091300000000
        47    2        7.729700000000       0.000000000000       9.091300000000
        48    2       11.594550000000       6.694100000000       9.091300000000
        49    1       21.256675000000       1.115678870600      10.684241220800
        50    1       19.324250000000       4.462728870600      10.684241220800
        51    1       17.391825000000       7.809778870600      10.684241220800
        52    1       15.459400000000      11.156828870600      10.684241220800
        53    1       15.459400000000       4.462728870600      10.684241220800
        54    1       15.459400000000       2.231371129400       7.498358779200
        55    1       17.391825000000       5.578421129400       7.498358779200
        56    1       19.324250000000      11.156828870600      10.684241220800
        57    1       19.324250000000       8.925471129400       7.498358779200
        58    1       21.256675000000      12.272521129400       7.498358779200
        59    1       19.324250000000       2.231371129400       7.498358779200
        60    1       15.459400000000       8.925471129400       7.498358779200
        61    1       17.391825000000       1.115678870600      10.684241220800
        62    1       21.256675000000       7.809778870600      10.684241220800
        63    2       19.324250000000       0.000000000000       9.091300000000
        64    2       15.459400000000       6.694100000000       9.091300000000
        65    2       21.256675000000       3.347050000000       9.091300000000
        66    2       17.391825000000      10.041150000000       9.091300000000
        67    1       21.256675000000       5.578421129400       7.498358779200
        68    1       17.391825000000      12.272521129400       7.498358779200
        69    2       17.391825000000       3.347050000000       9.091300000000
        70    2       21.256675000000      10.041150000000       9.091300000000
        71    2       15.459400000000       0.000000000000       9.091300000000
        72    2       19.324250000000       6.694100000000       9.091300000000
        73    1       28.986375000000       1.115678870600      10.684241220800
        74    1       27.053950000000       4.462728870600      10.684241220800
        75    1       25.121525000000       7.809778870600      10.684241220800
        76    1       23.189100000000      11.156828870600      10.684241220800
        77    1       23.189100000000       4.462728870600      10.684241220800
        78    1       23.189100000000       2.231371129400       7.498358779200
        79    1       25.121525000000       5.578421129400       7.498358779200
        80    1       27.053950000000      11.156828870600      10.684241220800
        81    1       27.053950000000       8.925471129400       7.498358779200
        82    1       28.986375000000      12.272521129400       7.498358779200
        83    1       27.053950000000       2.231371129400       7.498358779200
        84    1       23.189100000000       8.925471129400       7.498358779200
        85    1       25.121525000000       1.115678870600      10.684241220800
        86    1       28.986375000000       7.809778870600      10.684241220800
        87    2       27.053950000000       0.000000000000       9.091300000000
        88    2       23.189100000000       6.694100000000       9.091300000000
        89    2       28.986375000000       3.347050000000       9.091300000000
        90    2       25.121525000000      10.041150000000       9.091300000000
        91    1       28.986375000000       5.578421129400       7.498358779200
        92    1       25.121525000000      12.272521129400       7.498358779200
        93    2       25.121525000000       3.347050000000       9.091300000000
        94    2       28.986375000000      10.041150000000       9.091300000000
        95    2       23.189100000000       0.000000000000       9.091300000000
        96    2       27.053950000000       6.694100000000       9.091300000000
        97    1       36.716075000000       1.115678870600      10.684241220800
        98    1       34.783650000000       4.462728870600      10.684241220800
        99    1       32.851225000000       7.809778870600      10.684241220800
       100    1       30.918800000000      11.156828870600      10.684241220800
       101    1       30.918800000000       4.462728870600      10.684241220800
       102    1       30.918800000000       2.231371129400       7.498358779200
       103    1       32.851225000000       5.578421129400       7.498358779200
       104    1       34.783650000000      11.156828870600      10.684241220800
       105    1       34.783650000000       8.925471129400       7.498358779200
       106    1       36.716075000000      12.272521129400       7.498358779200
       107    1       34.783650000000       2.231371129400       7.498358779200
       108    1       30.918800000000       8.925471129400       7.498358779200
       109    1       32.851225000000       1.115678870600      10.684241220800
       110    1       36.716075000000       7.809778870600      10.684241220800
       111    2       34.783650000000       0.000000000000       9.091300000000
       112    2       30.918800000000       6.694100000000       9.091300000000
       113    2       36.716075000000       3.347050000000       9.091300000000
       114    2       32.851225000000      10.041150000000       9.091300000000
       115    1       36.716075000000       5.578421129400       7.498358779200
       116    1       32.851225000000      12.272521129400       7.498358779200
       117    2       32.851225000000       3.347050000000       9.091300000000
       118    2       36.716075000000      10.041150000000       9.091300000000
       119    2       30.918800000000       0.000000000000       9.091300000000
       120    2       34.783650000000       6.694100000000       9.091300000000
       121    1       44.445775000000       1.115678870600      10.684241220800
       122    1       42.513350000000       4.462728870600      10.684241220800
       123    1       40.580925000000       7.809778870600      10.684241220800
       124    1       38.648500000000      11.156828870600      10.684241220800
       125    1       38.648500000000       4.462728870600      10.684241220800
       126    1       38.648500000000       2.231371129400       7.498358779200
       127    1       40.580925000000       5.578421129400       7.498358779200
       128    1       42.513350000000      11.156828870600      10.684241220800
       129    1       42.513350000000       8.925471129400       7.498358779200
       130    1       44.445775000000      12.272521129400       7.498358779200
       131    1       42.513350000000       2.231371129400       7.498358779200
       132    1       38.648500000000       8.925471129400       7.498358779200
       133    1       40.580925000000       1.115678870600      10.684241220800
       134    1       44.445775000000       7.809778870600      10.684241220800
       135    2       42.513350000000       0.000000000000       9.091300000000
       136    2       38.648500000000       6.694100000000       9.091300000000
       137    2       44.445775000000       3.347050000000       9.091300000000
       138    2       40.580925000000      10.041150000000       9.091300000000
       139    1       44.445775000000       5.578421129400       7.498358779200
       140    1       40.580925000000      12.272521129400       7.498358779200
       141    2       40.580925000000       3.347050000000       9.091300000000
       142    2       44.445775000000      10.041150000000       9.091300000000
       143    2       38.648500000000       0.000000000000       9.091300000000
       144    2       42.513350000000       6.694100000000       9.091300000000
       145    1       52.175475000000       1.115678870600      10.684241220800
       146    1       50.243050000000       4.462728870600      10.684241220800
       147    1       48.310625000000       7.809778870600      10.684241220800
       148    1       46.378200000000      11.156828870600      10.684241220800
       149    1       46.378200000000       4.462728870600      10.684241220800
       150    1       46.378200000000       2.231371129400       7.498358779200
       151    1       48.310625000000       5.578421129400       7.498358779200
       152    1       50.243050000000      11.156828870600      10.684241220800
       153    1       50.243050000000       8.925471129400       7.498358779200
       154    1       52.175475000000      12.272521129400       7.498358779200
       155    1       50.243050000000       2.231371129400       7.498358779200
       156    1       46.378200000000       8.925471129400       7.498358779200
       157    1       48.310625000000       1.115678870600      10.684241220800
       158    1       52.175475000000       7.809778870600      10.684241220800
       159    2       50.243050000000       0.000000000000       9.091300000000
       160    2       46.378200000000       6.694100000000       9.091300000000
       161    2       52.175475000000       3.347050000000       9.091300000000
       162    2       48.310625000000      10.041150000000       9.091300000000
       163    1       52.175475000000       5.578421129400       7.498358779200
       164    1       48.310625000000      12.272521129400       7.498358779200
       165    2       48.310625000000       3.347050000000       9.091300000000
       166    2       52.175475000000      10.041150000000       9.091300000000
       167    2       46.378200000000       0.000000000000       9.091300000000
       168    2       50.243050000000       6.694100000000       9.091300000000
       169    1       59.905175000000       1.115678870600      10.684241220800
       170    1       57.972750000000       4.462728870600      10.684241220800
       171    1       56.040325000000       7.809778870600      10.684241220800
       172    1       54.107900000000      11.156828870600      10.684241220800
       173    1       54.107900000000       4.462728870600      10.684241220800
       174    1       54.107900000000       2.231371129400       7.498358779200
       175    1       56.040325000000       5.578421129400       7.498358779200
       176    1       57.972750000000      11.156828870600      10.684241220800
       177    1       57.972750000000       8.925471129400       7.498358779200
       178    1       59.905175000000      12.272521129400       7.498358779200
       179    1       57.972750000000       2.231371129400       7.498358779200
       180    1       54.107900000000       8.925471129400       7.498358779200
       181    1       56.040325000000       1.115678870600      10.684241220800
       182    1       59.905175000000       7.809778870600      10.684241220800
       183    2       57.972750000000       0.000000000000       9.091300000000
       184    2       54.107900000000       6.694100000000       9.091300000000
       185    2       59.905175000000       3.347050000000       9.091300000000
       186    2       56.040325000000      10.041150000000       9.091300000000
       187    1       59.905175000000       5.578421129400       7.498358779200
       188    1       56.040325000000      12.272521129400       7.498358779200
       189    2       56.040325000000       3.347050000000       9.091300000000
       190    2       59.905175000000      10.041150000000       9.091300000000
       191    2       54.107900000000       0.000000000000       9.091300000000
       192    2       57.972750000000       6.694100000000       9.091300000000
       193    1       67.634875000000       1.115678870600      10.684241220800
       194    1       65.702450000000       4.462728870600      10.684241220800
       195    1       63.770025000000       7.809778870600      10.684241220800
       196    1       61.837600000000      11.156828870600      10.684241220800
       197    1       61.837600000000       4.462728870600      10.684241220800
       198    1       61.837600000000       2.231371129400       7.498358779200
       199    1       63.770025000000       5.578421129400       7.498358779200
       200    1       65.702450000000      11.156828870600      10.684241220800
       201    1       65.702450000000       8.925471129400       7.498358779200
       202    1       67.634875000000      12.272521129400       7.498358779200
       203    1       65.702450000000       2.231371129400       7.498358779200
       204    1       61.837600000000       8.925471129400       7.498358779200
       205    1       63.770025000000       1.115678870600      10.684241220800
       206    1       67.634875000000       7.809778870600      10.684241220800
       207    2       65.702450000000       0.000000000000       9.091300000000
       208    2       61.837600000000       6.694100000000       9.091300000000
       209    2       67.634875000000       3.347050000000       9.091300000000
       210    2       63.770025000000      10.041150000000       9.091300000000
       211    1       67.634875000000       5.578421129400       7.498358779200
       212    1       63.770025000000      12.272521129400       7.498358779200
       213    2       63.770025000000       3.347050000000       9.091300000000
       214    2       67.634875000000      10.041150000000       9.091300000000
       215    2       61.837600000000       0.000000000000       9.091300000000
       216    2       65.702450000000       6.694100000000       9.091300000000
       217    1       75.364575000000       1.115678870600      10.684241220800
       218    1       73.432150000000       4.462728870600      10.684241220800
       219    1       71.499725000000       7.809778870600      10.684241220800
       220    1       69.567300000000      11.156828870600      10.684241220800
       221    1       69.567300000000       4.462728870600      10.684241220800
       222    1       69.567300000000       2.231371129400       7.498358779200
       223    1       71.499725000000       5.578421129400       7.498358779200
       224    1       73.432150000000      11.156828870600      10.684241220800
       225    1       73.432150000000       8.925471129400       7.498358779200
       226    1       75.364575000000      12.272521129400       7.498358779200
       227    1       73.432150000000       2.231371129400       7.498358779200
       228    1       69.567300000000       8.925471129400       7.498358779200
       229    1       71.499725000000       1.115678870600      10.684241220800
       230    1       75.364575000000       7.809778870600      10.684241220800
       231    2       73.432150000000       0.000000000000       9.091300000000
       232    2       69.567300000000       6.694100000000       9.091300000000
       233    2       75.364575000000       3.347050000000       9.091300000000
       234    2       71.499725000000      10.041150000000       9.091300000000
       235    1       75.364575000000       5.578421129400       7.498358779200
       236    1       71.499725000000      12.272521129400       7.498358779200
       237    2       71.499725000000       3.347050000000       9.091300000000
       238    2       75.364575000000      10.041150000000       9.091300000000
       239    2       69.567300000000       0.000000000000       9.091300000000
       240    2       73.432150000000       6.694100000000       9.091300000000
       241    1       83.094275000000       1.115678870600      10.684241220800
       242    1       81.161850000000       4.462728870600      10.684241220800
       243    1       79.229425000000       7.809778870600      10.684241220800
       244    1       77.297000000000      11.156828870600      10.684241220800
       245    1       77.297000000000       4.462728870600      10.684241220800
       246    1       77.297000000000       2.231371129400       7.498358779200
       247    1       79.229425000000       5.578421129400       7.498358779200
       248    1       81.161850000000      11.156828870600      10.684241220800
       249    1       81.161850000000       8.925471129400       7.498358779200
       250    1       83.094275000000      12.272521129400       7.498358779200
       251    1       81.161850000000       2.231371129400       7.498358779200
       252    1       77.297000000000       8.925471129400       7.498358779200
       253    1       79.229425000000       1.115678870600      10.684241220800
       254    1       83.094275000000       7.809778870600      10.684241220800
       255    2       81.161850000000       0.000000000000       9.091300000000
       256    2       77.297000000000       6.694100000000       9.091300000000
       257    2       83.094275000000       3.347050000000       9.091300000000
       258    2       79.229425000000      10.041150000000       9.091300000000
       259    1       83.094275000000       5.578421129400       7.498358779200
       260    1       79.229425000000      12.272521129400       7.498358779200
       261    2       79.229425000000       3.347050000000       9.091300000000
       262    2       83.094275000000      10.041150000000       9.091300000000
       263    2       77.297000000000       0.000000000000       9.091300000000
       264    2       81.161850000000       6.694100000000       9.091300000000
       265    1       90.823975000000       1.115678870600      10.684241220800
       266    1       88.891550000000       4.462728870600      10.684241220800
       267    1       86.959125000000       7.809778870600      10.684241220800
       268    1       85.026700000000      11.156828870600      10.684241220800
       269    1       85.026700000000       4.462728870600      10.684241220800
       270    1       85.026700000000       2.231371129400       7.498358779200
       271    1       86.959125000000       5.578421129400       7.498358779200
       272    1       88.891550000000      11.156828870600      10.684241220800
       273    1       88.891550000000       8.925471129400       7.498358779200
       274    1       90.823975000000      12.272521129400       7.498358779200
       275    1       88.891550000000       2.231371129400       7.498358779200
       276    1       85.026700000000       8.925471129400       7.498358779200
       277    1       86.959125000000       1.115678870600      10.684241220800
       278    1       90.823975000000       7.809778870600      10.684241220800
       279    2       88.891550000000       0.000000000000       9.091300000000
       280    2       85.026700000000       6.694100000000       9.091300000000
       281    2       90.823975000000       3.347050000000       9.091300000000
       282    2       86.959125000000      10.041150000000       9.091300000000
       283    1       90.823975000000       5.578421129400       7.498358779200
       284    1       86.959125000000      12.272521129400       7.498358779200
       285    2       86.959125000000       3.347050000000       9.091300000000
       286    2       90.823975000000      10.041150000000       9.091300000000
       287    2       85.026700000000       0.000000000000       9.091300000000
       288    2       88.891550000000       6.694100000000       9.091300000000
       289    1       98.553675000000       1.115678870600      10.684241220800
       290    1       96.621250000000       4.462728870600      10.684241220800
       291    1       94.688825000000       7.809778870600      10.684241220800
       292    1       92.756400000000      11.156828870600      10.684241220800
       293    1       92.756400000000       4.462728870600      10.684241220800
       294    1       92.756400000000       2.231371129400       7.498358779200
       295    1       94.688825000000       5.578421129400       7.498358779200
       296    1       96.621250000000      11.156828870600      10.684241220800
       297    1       96.621250000000       8.925471129400       7.498358779200
       298    1       98.553675000000      12.272521129400       7.498358779200
       299    1       96.621250000000       2.231371129400       7.498358779200
       300    1       92.756400000000       8.925471129400       7.498358779200
       301    1       94.688825000000       1.115678870600      10.684241220800
       302    1       98.553675000000       7.809778870600      10.684241220800
       303    2       96.621250000000       0.000000000000       9.091300000000
       304    2       92.756400000000       6.694100000000       9.091300000000
       305    2       98.553675000000       3.347050000000       9.091300000000
       306    2       94.688825000000      10.041150000000       9.091300000000
       307    1       98.553675000000       5.578421129400       7.498358779200
       308    1       94.688825000000      12.272521129400       7.498358779200
       309    2       94.688825000000       3.347050000000       9.091300000000
       310    2       98.553675000000      10.041150000000       9.091300000000
       311    2       92.756400000000       0.000000000000       9.091300000000
       312    2       96.621250000000       6.694100000000       9.091300000000
       313    1        5.797275000000      14.503878870600      10.684241220800
       314    1        3.864850000000      17.850928870600      10.684241220800
       315    1        1.932425000000      21.197978870600      10.684241220800
       316    1        0.000000000000      24.545028870600      10.684241220800
       317    1        0.000000000000      17.850928870600      10.684241220800
       318    1        0.000000000000      15.619571129400       7.498358779200
       319    1        1.932425000000      18.966621129400       7.498358779200
       320    1        3.864850000000      24.545028870600      10.684241220800
       321    1        3.864850000000      22.313671129400       7.498358779200
       322    1        5.797275000000      25.660721129400       7.498358779200
       323    1        3.864850000000      15.619571129400       7.498358779200
       324    1        0.000000000000      22.313671129400       7.498358779200
       325    1        1.932425000000      14.503878870600      10.684241220800
       326    1        5.797275000000      21.197978870600      10.684241220800
       327    2        3.864850000000      13.388200000000       9.091300000000
       328    2        0.000000000000      20.082300000000       9.091300000000
       329    2        5.797275000000      16.735250000000       9.091300000000
       330    2        1.932425000000      23.429350000000       9.091300000000
       331    1        5.797275000000      18.966621129400       7.498358779200
       332    1        1.932425000000      25.660721129400       7.498358779200
       333    2        1.932425000000      16.735250000000       9.091300000000
       334    2        5.797275000000      23.429350000000       9.091300000000
       335    2        0.000000000000      13.388200000000       9.091300000000
       336    2        3.864850000000      20.082300000000       9.091300000000
       337    1       13.526975000000      14.503878870600      10.684241220800
       338    1       11.594550000000      17.850928870600      10.684241220800
       339    1        9.662125000000      21.197978870600      10.684241220800
       340    1        7.729700000000      24.545028870600      10.684241220800
       341    1        7.729700000000      17.850928870600      10.684241220800
       342    1        7.729700000000      15.619571129400       7.498358779200
       343    1        9.662125000000      18.966621129400       7.498358779200
       344    1       11.594550000000      24.545028870600      10.684241220800
       345    1       11.594550000000      22.313671129400       7.498358779200
       346    1       13.526975000000      25.660721129400       7.498358779200
       347    1       11.594550000000      15.619571129400       7.498358779200
       348    1        7.729700000000      22.313671129400       7.498358779200
       349    1        9.662125000000      14.503878870600      10.684241220800
       350    1       13.526975000000      21.197978870600      10.684241220800
       351    2       11.594550000000      13.388200000000       9.091300000000
       352    2        7.729700000000      20.082300000000       9.091300000000
       353    2       13.526975000000      16.735250000000       9.091300000000
       354    2        9.662125000000      23.429350000000       9.091300000000
       355    1       13.526975000000      18.966621129400       7.498358779200
       356    1        9.662125000000      25.660721129400       7.498358779200
       357    2        9.662125000000      16.735250000000       9.091300000000
       358    2       13.526975000000      23.429350000000       9.091300000000
       359    2        7.729700000000      13.388200000000       9.091300000000
       360    2       11.594550000000      20.082300000000       9.091300000000
       361    1       21.256675000000      14.503878870600      10.684241220800
       362    1       19.324250000000      17.850928870600      10.684241220800
       363    1       17.391825000000      21.197978870600      10.684241220800
       364    1       15.459400000000      24.545028870600      10.684241220800
       365    1       15.459400000000      17.850928870600      10.684241220800
       366    1       15.459400000000      15.619571129400       7.498358779200
       367    1       17.391825000000      18.966621129400       7.498358779200
       368    1       19.324250000000      24.545028870600      10.684241220800
       369    1       19.324250000000      22.313671129400       7.498358779200
       370    1       21.256675000000      25.660721129400       7.498358779200