 # Ta8 Se16
  
        2688  atoms
           2  atom types
 
      0.000000000000      98.081200000000  xlo xhi
      0.000000000000      97.075200000000  ylo yhi
      0.000000000000      18.303400000000  zlo zhi
 
Masses
 
            1   180.94788000            # Ta
            2   78.96000000             # Se
 
Atoms # atomic
 
         1    1        0.000000000000      12.134400000000       9.151700000000
         2    1        3.502900000000       6.067200000000       9.151700000000
         3    2        5.254350000000       5.056004044800       7.499159227600
         4    2        1.751450000000      11.123204044800       7.499159227600
         5    2        0.000000000000       4.044795955200      10.804240772400
         6    2        3.502900000000      10.111995955200      10.804240772400
         7    2        3.502900000000       4.044795955200      10.804240772400
         8    2        0.000000000000      10.111995955200      10.804240772400
         9    1        3.502900000000      12.134400000000       9.151700000000
        10    1        0.000000000000       6.067200000000       9.151700000000
        11    2        3.502900000000       2.022404044800       7.499159227600
        12    2        0.000000000000       8.089604044800       7.499159227600
        13    1        1.751450000000       3.033600000000       9.151700000000
        14    1        5.254350000000       9.100800000000       9.151700000000
        15    1        5.254350000000       3.033600000000       9.151700000000
        16    1        1.751450000000       9.100800000000       9.151700000000
        17    2        5.254350000000       1.011195955200      10.804240772400
        18    2        1.751450000000       1.011195955200      10.804240772400
        19    2        1.751450000000       7.078395955200      10.804240772400
        20    2        0.000000000000       2.022404044800       7.499159227600
        21    2        5.254350000000       7.078395955200      10.804240772400
        22    2        3.502900000000       8.089604044800       7.499159227600
        23    2        1.751450000000       5.056004044800       7.499159227600
        24    2        5.254350000000      11.123204044800       7.499159227600
        25    1        7.005800000000      12.134400000000       9.151700000000
        26    1       10.508700000000       6.067200000000       9.151700000000
        27    2       12.260150000000       5.056004044800       7.499159227600
        28    2        8.757250000000      11.123204044800       7.499159227600
        29    2        7.005800000000       4.044795955200      10.804240772400
        30    2       10.508700000000      10.111995955200      10.804240772400
        31    2       10.508700000000       4.044795955200      10.804240772400
        32    2        7.005800000000      10.111995955200      10.804240772400
        33    1       10.508700000000      12.134400000000       9.151700000000
        34    1        7.005800000000       6.067200000000       9.151700000000
        35    2       10.508700000000       2.022404044800       7.499159227600
        36    2        7.005800000000       8.089604044800       7.499159227600
        37    1        8.757250000000       3.033600000000       9.151700000000
        38    1       12.260150000000       9.100800000000       9.151700000000
        39    1       12.260150000000       3.033600000000       9.151700000000
        40    1        8.757250000000       9.100800000000       9.151700000000
        41    2       12.260150000000       1.011195955200      10.804240772400
        42    2        8.757250000000       1.011195955200      10.804240772400
        43    2        8.757250000000       7.078395955200      10.804240772400
        44    2        7.005800000000       2.022404044800       7.499159227600
        45    2       12.260150000000       7.078395955200      10.804240772400
        46    2       10.508700000000       8.089604044800       7.499159227600
        47    2        8.757250000000       5.056004044800       7.499159227600
        48    2       12.260150000000      11.123204044800       7.499159227600
        49    1       14.011600000000      12.134400000000       9.151700000000
        50    1       17.514500000000       6.067200000000       9.151700000000
        51    2       19.265950000000       5.056004044800       7.499159227600
        52    2       15.763050000000      11.123204044800       7.499159227600
        53    2       14.011600000000       4.044795955200      10.804240772400
        54    2       17.514500000000      10.111995955200      10.804240772400
        55    2       17.514500000000       4.044795955200      10.804240772400
        56    2       14.011600000000      10.111995955200      10.804240772400
        57    1       17.514500000000      12.134400000000       9.151700000000
        58    1       14.011600000000       6.067200000000       9.151700000000
        59    2       17.514500000000       2.022404044800       7.499159227600
        60    2       14.011600000000       8.089604044800       7.499159227600
        61    1       15.763050000000       3.033600000000       9.151700000000
        62    1       19.265950000000       9.100800000000       9.151700000000
        63    1       19.265950000000       3.033600000000       9.151700000000
        64    1       15.763050000000       9.100800000000       9.151700000000
        65    2       19.265950000000       1.011195955200      10.804240772400
        66    2       15.763050000000       1.011195955200      10.804240772400
        67    2       15.763050000000       7.078395955200      10.804240772400
        68    2       14.011600000000       2.022404044800       7.499159227600
        69    2       19.265950000000       7.078395955200      10.804240772400
        70    2       17.514500000000       8.089604044800       7.499159227600
        71    2       15.763050000000       5.056004044800       7.499159227600
        72    2       19.265950000000      11.123204044800       7.499159227600
        73    1       21.017400000000      12.134400000000       9.151700000000
        74    1       24.520300000000       6.067200000000       9.151700000000
        75    2       26.271750000000       5.056004044800       7.499159227600
        76    2       22.768850000000      11.123204044800       7.499159227600
        77    2       21.017400000000       4.044795955200      10.804240772400
        78    2       24.520300000000      10.111995955200      10.804240772400
        79    2       24.520300000000       4.044795955200      10.804240772400
        80    2       21.017400000000      10.111995955200      10.804240772400
        81    1       24.520300000000      12.134400000000       9.151700000000
        82    1       21.017400000000       6.067200000000       9.151700000000
        83    2       24.520300000000       2.022404044800       7.499159227600
        84    2       21.017400000000       8.089604044800       7.499159227600
        85    1       22.768850000000       3.033600000000       9.151700000000
        86    1       26.271750000000       9.100800000000       9.151700000000
        87    1       26.271750000000       3.033600000000       9.151700000000
        88    1       22.768850000000       9.100800000000       9.151700000000
        89    2       26.271750000000       1.011195955200      10.804240772400
        90    2       22.768850000000       1.011195955200      10.804240772400
        91    2       22.768850000000       7.078395955200      10.804240772400
        92    2       21.017400000000       2.022404044800       7.499159227600
        93    2       26.271750000000       7.078395955200      10.804240772400
        94    2       24.520300000000       8.089604044800       7.499159227600
        95    2       22.768850000000       5.056004044800       7.499159227600
        96    2       26.271750000000      11.123204044800       7.499159227600
        97    1       28.023200000000      12.134400000000       9.151700000000
        98    1       31.526100000000       6.067200000000       9.151700000000
        99    2       33.277550000000       5.056004044800       7.499159227600
       100    2       29.774650000000      11.123204044800       7.499159227600
       101    2       28.023200000000       4.044795955200      10.804240772400
       102    2       31.526100000000      10.111995955200      10.804240772400
       103    2       31.526100000000       4.044795955200      10.804240772400
       104    2       28.023200000000      10.111995955200      10.804240772400
       105    1       31.526100000000      12.134400000000       9.151700000000
       106    1       28.023200000000       6.067200000000       9.151700000000
       107    2       31.526100000000       2.022404044800       7.499159227600
       108    2       28.023200000000       8.089604044800       7.499159227600
       109    1       29.774650000000       3.033600000000       9.151700000000
       110    1       33.277550000000       9.100800000000       9.151700000000
       111    1       33.277550000000       3.033600000000       9.151700000000
       112    1       29.774650000000       9.100800000000       9.151700000000
       113    2       33.277550000000       1.011195955200      10.804240772400
       114    2       29.774650000000       1.011195955200      10.804240772400
       115    2       29.774650000000       7.078395955200      10.804240772400
       116    2       28.023200000000       2.022404044800       7.499159227600
       117    2       33.277550000000       7.078395955200      10.804240772400
       118    2       31.526100000000       8.089604044800       7.499159227600
       119    2       29.774650000000       5.056004044800       7.499159227600
       120    2       33.277550000000      11.123204044800       7.499159227600
       121    1       35.029000000000      12.134400000000       9.151700000000
       122    1       38.531900000000       6.067200000000       9.151700000000
       123    2       40.283350000000       5.056004044800       7.499159227600
       124    2       36.780450000000      11.123204044800       7.499159227600
       125    2       35.029000000000       4.044795955200      10.804240772400
       126    2       38.531900000000      10.111995955200      10.804240772400
       127    2       38.531900000000       4.044795955200      10.804240772400
       128    2       35.029000000000      10.111995955200      10.804240772400
       129    1       38.531900000000      12.134400000000       9.151700000000
       130    1       35.029000000000       6.067200000000       9.151700000000
       131    2       38.531900000000       2.022404044800       7.499159227600
       132    2       35.029000000000       8.089604044800       7.499159227600
       133    1       36.780450000000       3.033600000000       9.151700000000
       134    1       40.283350000000       9.100800000000       9.151700000000
       135    1       40.283350000000       3.033600000000       9.151700000000
       136    1       36.780450000000       9.100800000000       9.151700000000
       137    2       40.283350000000       1.011195955200      10.804240772400
       138    2       36.780450000000       1.011195955200      10.804240772400
       139    2       36.780450000000       7.078395955200      10.804240772400
       140    2       35.029000000000       2.022404044800       7.499159227600
       141    2       40.283350000000       7.078395955200      10.804240772400
       142    2       38.531900000000       8.089604044800       7.499159227600
       143    2       36.780450000000       5.056004044800       7.499159227600
       144    2       40.283350000000      11.123204044800       7.499159227600
       145    1       42.034800000000      12.134400000000       9.151700000000
       146    1       45.537700000000       6.067200000000       9.151700000000
       147    2       47.289150000000       5.056004044800       7.499159227600
       148    2       43.786250000000      11.123204044800       7.499159227600
       149    2       42.034800000000       4.044795955200      10.804240772400
       150    2       45.537700000000      10.111995955200      10.804240772400
       151    2       45.537700000000       4.044795955200      10.804240772400
       152    2       42.034800000000      10.111995955200      10.804240772400
       153    1       45.537700000000      12.134400000000       9.151700000000
       154    1       42.034800000000       6.067200000000       9.151700000000
       155    2       45.537700000000       2.022404044800       7.499159227600
       156    2       42.034800000000       8.089604044800       7.499159227600
       157    1       43.786250000000       3.033600000000       9.151700000000
       158    1       47.289150000000       9.100800000000       9.151700000000
       159    1       47.289150000000       3.033600000000       9.151700000000
       160    1       43.786250000000       9.100800000000       9.151700000000
       161    2       47.289150000000       1.011195955200      10.804240772400
       162    2       43.786250000000       1.011195955200      10.804240772400
       163    2       43.786250000000       7.078395955200      10.804240772400
       164    2       42.034800000000       2.022404044800       7.499159227600
       165    2       47.289150000000       7.078395955200      10.804240772400
       166    2       45.537700000000       8.089604044800       7.499159227600
       167    2       43.786250000000       5.056004044800       7.499159227600
       168    2       47.289150000000      11.123204044800       7.499159227600
       169    1       49.040600000000      12.134400000000       9.151700000000
       170    1       52.543500000000       6.067200000000       9.151700000000
       171    2       54.294950000000       5.056004044800       7.499159227600
       172    2       50.792050000000      11.123204044800       7.499159227600
       173    2       49.040600000000       4.044795955200      10.804240772400
       174    2       52.543500000000      10.111995955200      10.804240772400
       175    2       52.543500000000       4.044795955200      10.804240772400
       176    2       49.040600000000      10.111995955200      10.804240772400
       177    1       52.543500000000      12.134400000000       9.151700000000
       178    1       49.040600000000       6.067200000000       9.151700000000
       179    2       52.543500000000       2.022404044800       7.499159227600
       180    2       49.040600000000       8.089604044800       7.499159227600
       181    1       50.792050000000       3.033600000000       9.151700000000
       182    1       54.294950000000       9.100800000000       9.151700000000
       183    1       54.294950000000       3.033600000000       9.151700000000
       184    1       50.792050000000       9.100800000000       9.151700000000
       185    2       54.294950000000       1.011195955200      10.804240772400
       186    2       50.792050000000       1.011195955200      10.804240772400
       187    2       50.792050000000       7.078395955200      10.804240772400
       188    2       49.040600000000       2.022404044800       7.499159227600
       189    2       54.294950000000       7.078395955200      10.804240772400
       190    2       52.543500000000       8.089604044800       7.499159227600
       191    2       50.792050000000       5.056004044800       7.499159227600
       192    2       54.294950000000      11.123204044800       7.499159227600
       193    1       56.046400000000      12.134400000000       9.151700000000
       194    1       59.549300000000       6.067200000000       9.151700000000
       195    2       61.300750000000       5.056004044800       7.499159227600
       196    2       57.797850000000      11.123204044800       7.499159227600
       197    2       56.046400000000       4.044795955200      10.804240772400
       198    2       59.549300000000      10.111995955200      10.804240772400
       199    2       59.549300000000       4.044795955200      10.804240772400
       200    2       56.046400000000      10.111995955200      10.804240772400
       201    1       59.549300000000      12.134400000000       9.151700000000
       202    1       56.046400000000       6.067200000000       9.151700000000
       203    2       59.549300000000       2.022404044800       7.499159227600
       204    2       56.046400000000       8.089604044800       7.499159227600
       205    1       57.797850000000       3.033600000000       9.151700000000
       206    1       61.300750000000       9.100800000000       9.151700000000
       207    1       61.300750000000       3.033600000000       9.151700000000
       208    1       57.797850000000       9.100800000000       9.151700000000
       209    2       61.300750000000       1.011195955200      10.804240772400
       210    2       57.797850000000       1.011195955200      10.804240772400
       211    2       57.797850000000       7.078395955200      10.804240772400
       212    2       56.046400000000       2.022404044800       7.499159227600
       213    2       61.300750000000       7.078395955200      10.804240772400
       214    2       59.549300000000       8.089604044800       7.499159227600
       215    2       57.797850000000       5.056004044800       7.499159227600
       216    2       61.300750000000      11.123204044800       7.499159227600
       217    1       63.052200000000      12.134400000000       9.151700000000
       218    1       66.555100000000       6.067200000000       9.151700000000
       219    2       68.306550000000       5.056004044800       7.499159227600
       220    2       64.803650000000      11.123204044800       7.499159227600
       221    2       63.052200000000       4.044795955200      10.804240772400
       222    2       66.555100000000      10.111995955200      10.804240772400
       223    2       66.555100000000       4.044795955200      10.804240772400
       224    2       63.052200000000      10.111995955200      10.804240772400
       225    1       66.555100000000      12.134400000000       9.151700000000
       226    1       63.052200000000       6.067200000000       9.151700000000
       227    2       66.555100000000       2.022404044800       7.499159227600
       228    2       63.052200000000       8.089604044800       7.499159227600
       229    1       64.803650000000       3.033600000000       9.151700000000
       230    1       68.306550000000       9.100800000000       9.151700000000
       231    1       68.306550000000       3.033600000000       9.151700000000
       232    1       64.803650000000       9.100800000000       9.151700000000
       233    2       68.306550000000       1.011195955200      10.804240772400
       234    2       64.803650000000       1.011195955200      10.804240772400
       235    2       64.803650000000       7.078395955200      10.804240772400
       236    2       63.052200000000       2.022404044800       7.499159227600
       237    2       68.306550000000       7.078395955200      10.804240772400
       238    2       66.555100000000       8.089604044800       7.499159227600
       239    2       64.803650000000       5.056004044800       7.499159227600
       240    2       68.306550000000      11.123204044800       7.499159227600
       241    1       70.058000000000      12.134400000000       9.151700000000
       242    1       73.560900000000       6.067200000000       9.151700000000
       243    2       75.312350000000       5.056004044800       7.499159227600
       244    2       71.809450000000      11.123204044800       7.499159227600
       245    2       70.058000000000       4.044795955200      10.804240772400
       246    2       73.560900000000      10.111995955200      10.804240772400
       247    2       73.560900000000       4.044795955200      10.804240772400
       248    2       70.058000000000      10.111995955200      10.804240772400
       249    1       73.560900000000      12.134400000000       9.151700000000
       250    1       70.058000000000       6.067200000000       9.151700000000
       251    2       73.560900000000       2.022404044800       7.499159227600
       252    2       70.058000000000       8.089604044800       7.499159227600
       253    1       71.809450000000       3.033600000000       9.151700000000
       254    1       75.312350000000       9.100800000000       9.151700000000
       255    1       75.312350000000       3.033600000000       9.151700000000
       256    1       71.809450000000       9.100800000000       9.151700000000
       257    2       75.312350000000       1.011195955200      10.804240772400
       258    2       71.809450000000       1.011195955200      10.804240772400
       259    2       71.809450000000       7.078395955200      10.804240772400
       260    2       70.058000000000       2.022404044800       7.499159227600
       261    2       75.312350000000       7.078395955200      10.804240772400
       262    2       73.560900000000       8.089604044800       7.499159227600
       263    2       71.809450000000       5.056004044800       7.499159227600
       264    2       75.312350000000      11.123204044800       7.499159227600
       265    1       77.063800000000      12.134400000000       9.151700000000
       266    1       80.566700000000       6.067200000000       9.151700000000
       267    2       82.318150000000       5.056004044800       7.499159227600
       268    2       78.815250000000      11.123204044800       7.499159227600
       269    2       77.063800000000       4.044795955200      10.804240772400
       270    2       80.566700000000      10.111995955200      10.804240772400
       271    2       80.566700000000       4.044795955200      10.804240772400
       272    2       77.063800000000      10.111995955200      10.804240772400
       273    1       80.566700000000      12.134400000000       9.151700000000
       274    1       77.063800000000       6.067200000000       9.151700000000
       275    2       80.566700000000       2.022404044800       7.499159227600
       276    2       77.063800000000       8.089604044800       7.499159227600
       277    1       78.815250000000       3.033600000000       9.151700000000
       278    1       82.318150000000       9.100800000000       9.151700000000
       279    1       82.318150000000       3.033600000000       9.151700000000
       280    1       78.815250000000       9.100800000000       9.151700000000
       281    2       82.318150000000       1.011195955200      10.804240772400
       282    2       78.815250000000       1.011195955200      10.804240772400
       283    2       78.815250000000       7.078395955200      10.804240772400
       284    2       77.063800000000       2.022404044800       7.499159227600
       285    2       82.318150000000       7.078395955200      10.804240772400
       286    2       80.566700000000       8.089604044800       7.499159227600
       287    2       78.815250000000       5.056004044800       7.499159227600
       288    2       82.318150000000      11.123204044800       7.499159227600
       289    1       84.069600000000      12.134400000000       9.151700000000
       290    1       87.572500000000       6.067200000000       9.151700000000
       291    2       89.323950000000       5.056004044800       7.499159227600
       292    2       85.821050000000      11.123204044800       7.499159227600
       293    2       84.069600000000       4.044795955200      10.804240772400
       294    2       87.572500000000      10.111995955200      10.804240772400
       295    2       87.572500000000       4.044795955200      10.804240772400
       296    2       84.069600000000      10.111995955200      10.804240772400
       297    1       87.572500000000      12.134400000000       9.151700000000
       298    1       84.069600000000       6.067200000000       9.151700000000
       299    2       87.572500000000       2.022404044800       7.499159227600
       300    2       84.069600000000       8.089604044800       7.499159227600
       301    1       85.821050000000       3.033600000000       9.151700000000
       302    1       89.323950000000       9.100800000000       9.151700000000
       303    1       89.323950000000       3.033600000000       9.151700000000
       304    1       85.821050000000       9.100800000000       9.151700000000
       305    2       89.323950000000       1.011195955200      10.804240772400
       306    2       85.821050000000       1.011195955200      10.804240772400
       307    2       85.821050000000       7.078395955200      10.804240772400
       308    2       84.069600000000       2.022404044800       7.499159227600
       309    2       89.323950000000       7.078395955200      10.804240772400
       310    2       87.572500000000       8.089604044800       7.499159227600
       311    2       85.821050000000       5.056004044800       7.499159227600
       312    2       89.323950000000      11.123204044800       7.499159227600
       313    1       91.075400000000      12.134400000000       9.151700000000
       314    1       94.578300000000       6.067200000000       9.151700000000
       315    2       96.329750000000       5.056004044800       7.499159227600
       316    2       92.826850000000      11.123204044800       7.499159227600
       317    2       91.075400000000       4.044795955200      10.804240772400
       318    2       94.578300000000      10.111995955200      10.804240772400
       319    2       94.578300000000       4.044795955200      10.804240772400
       320    2       91.075400000000      10.111995955200      10.804240772400
       321    1       94.578300000000      12.134400000000       9.151700000000
       322    1       91.075400000000       6.067200000000       9.151700000000
       323    2       94.578300000000       2.022404044800       7.499159227600
       324    2       91.075400000000       8.089604044800       7.499159227600
       325    1       92.826850000000       3.033600000000       9.151700000000
       326    1       96.329750000000       9.100800000000       9.151700000000
       327    1       96.329750000000       3.033600000000       9.151700000000
       328    1       92.826850000000       9.100800000000       9.151700000000
       329    2       96.329750000000       1.011195955200      10.804240772400
       330    2       92.826850000000       1.011195955200      10.804240772400
       331    2       92.826850000000       7.078395955200      10.804240772400
       332    2       91.075400000000       2.022404044800       7.499159227600
       333    2       96.329750000000       7.078395955200      10.804240772400
       334    2       94.578300000000       8.089604044800       7.499159227600
       335    2       92.826850000000       5.056004044800       7.499159227600
       336    2       96.329750000000      11.123204044800       7.499159227600
       337    1        0.000000000000      24.268800000000       9.151700000000
       338    1        3.502900000000      18.201600000000       9.151700000000
       339    2        5.254350000000      17.190404044800       7.499159227600
       340    2        1.751450000000      23.257604044800       7.499159227600
       341    2        0.000000000000      16.179195955200      10.804240772400
       342    2        3.502900000000      22.246395955200      10.804240772400
       343    2        3.502900000000      16.179195955200      10.804240772400
       344    2        0.000000000000      22.246395955200      10.804240772400
       345    1        3.502900000000      24.268800000000       9.151700000000
       346    1        0.000000000000      18.201600000000       9.151700000000
       347    2        3.502900000000      14.156804044800       7.499159227600
       348    2        0.000000000000      20.224004044800       7.499159227600
       349    1        1.751450000000      15.168000000000       9.151700000000
       350    1        5.254350000000      21.235200000000       9.151700000000
       351    1        5.254350000000      15.168000000000       9.151700000000
       352    1        1.751450000000      21.235200000000       9.151700000000
       353    2        5.254350000000      13.145595955200      10.804240772400
       354    2        1.751450000000      13.145595955200      10.804240772400
       355    2        1.751450000000      19.212795955200      10.804240772400
       356    2        0.000000000000      14.156804044800       7.499159227600
       357    2        5.254350000000      19.212795955200      10.804240772400
       358    2        3.502900000000      20.224004044800       7.499159227600
       359    2        1.751450000000      17.190404044800       7.499159227600
       360    2        5.254350000000      23.257604044800       7.499159227600
       361    1        7.005800000000      24.268800000000       9.151700000000
       362    1       10.508700000000      18.201600000000       9.151700000000
       363    2       12.260150000000      17.190404044800       7.499159227600
       364    2        8.757250000000      23.257604044800       7.499159227600
       365    2        7.005800000000      16.179195955200      10.804240772400
       366    2       10.508700000000      22.246395955200      10.804240772400
       367    2       10.508700000000      16.179195955200      10.804240772400
       368    2        7.005800000000      22.246395955200      10.804240772400
       369    1       10.508700000000      24.268800000000       9.151700000000
       370    1        7.005800000000      18.201600000000       9.151700000000