 # Ta8 Te16
  
        2688  atoms
           2  atom types
 
      0.000000000000     103.359200000000  xlo xhi
      0.000000000000     102.298400000000  ylo yhi
      0.000000000000      18.677300000000  zlo zhi
 
Masses
 
            1   180.94788000            # Ta
            2   127.60000000            # Te
 
Atoms # atomic
 
         1    1        0.000000000000      12.787300000000       9.338650000000
         2    1        3.691400000000       6.393650000000       9.338650000000
         3    2        1.845700000000       5.328045929100       7.513877790000
         4    2        5.537100000000      11.721695929100       7.513877790000
         5    1        1.845700000000       3.196825000000       9.338650000000
         6    2        5.537100000000       5.328045929100       7.513877790000
         7    2        5.537100000000       1.065604070900      11.163422210000
         8    2        3.691400000000       4.262429070900      11.163422210000
         9    2        1.845700000000       1.065604070900      11.163422210000
        10    2        1.845700000000      11.721695929100       7.513877790000
        11    1        5.537100000000       9.590475000000       9.338650000000
        12    2        1.845700000000       7.459254070900      11.163422210000
        13    2        0.000000000000      10.656079070900      11.163422210000
        14    2        5.537100000000       7.459254070900      11.163422210000
        15    1        5.537100000000       3.196825000000       9.338650000000
        16    1        1.845700000000       9.590475000000       9.338650000000
        17    2        0.000000000000       4.262429070900      11.163422210000
        18    2        3.691400000000      10.656079070900      11.163422210000
        19    2        3.691400000000       2.131220929100       7.513877790000
        20    2        7.382800000000       8.524870929100       7.513877790000
        21    1        3.691400000000      12.787300000000       9.338650000000
        22    1        7.382800000000       6.393650000000       9.338650000000
        23    2        7.382800000000       2.131220929100       7.513877790000
        24    2        3.691400000000       8.524870929100       7.513877790000
        25    1        7.382800000000      12.787300000000       9.338650000000
        26    1       11.074200000000       6.393650000000       9.338650000000
        27    2        9.228500000000       5.328045929100       7.513877790000
        28    2       12.919900000000      11.721695929100       7.513877790000
        29    1        9.228500000000       3.196825000000       9.338650000000
        30    2       12.919900000000       5.328045929100       7.513877790000
        31    2       12.919900000000       1.065604070900      11.163422210000
        32    2       11.074200000000       4.262429070900      11.163422210000
        33    2        9.228500000000       1.065604070900      11.163422210000
        34    2        9.228500000000      11.721695929100       7.513877790000
        35    1       12.919900000000       9.590475000000       9.338650000000
        36    2        9.228500000000       7.459254070900      11.163422210000
        37    2        7.382800000000      10.656079070900      11.163422210000
        38    2       12.919900000000       7.459254070900      11.163422210000
        39    1       12.919900000000       3.196825000000       9.338650000000
        40    1        9.228500000000       9.590475000000       9.338650000000
        41    2        7.382800000000       4.262429070900      11.163422210000
        42    2       11.074200000000      10.656079070900      11.163422210000
        43    2       11.074200000000       2.131220929100       7.513877790000
        44    2       14.765600000000       8.524870929100       7.513877790000
        45    1       11.074200000000      12.787300000000       9.338650000000
        46    1       14.765600000000       6.393650000000       9.338650000000
        47    2       14.765600000000       2.131220929100       7.513877790000
        48    2       11.074200000000       8.524870929100       7.513877790000
        49    1       14.765600000000      12.787300000000       9.338650000000
        50    1       18.457000000000       6.393650000000       9.338650000000
        51    2       16.611300000000       5.328045929100       7.513877790000
        52    2       20.302700000000      11.721695929100       7.513877790000
        53    1       16.611300000000       3.196825000000       9.338650000000
        54    2       20.302700000000       5.328045929100       7.513877790000
        55    2       20.302700000000       1.065604070900      11.163422210000
        56    2       18.457000000000       4.262429070900      11.163422210000
        57    2       16.611300000000       1.065604070900      11.163422210000
        58    2       16.611300000000      11.721695929100       7.513877790000
        59    1       20.302700000000       9.590475000000       9.338650000000
        60    2       16.611300000000       7.459254070900      11.163422210000
        61    2       14.765600000000      10.656079070900      11.163422210000
        62    2       20.302700000000       7.459254070900      11.163422210000
        63    1       20.302700000000       3.196825000000       9.338650000000
        64    1       16.611300000000       9.590475000000       9.338650000000
        65    2       14.765600000000       4.262429070900      11.163422210000
        66    2       18.457000000000      10.656079070900      11.163422210000
        67    2       18.457000000000       2.131220929100       7.513877790000
        68    2       22.148400000000       8.524870929100       7.513877790000
        69    1       18.457000000000      12.787300000000       9.338650000000
        70    1       22.148400000000       6.393650000000       9.338650000000
        71    2       22.148400000000       2.131220929100       7.513877790000
        72    2       18.457000000000       8.524870929100       7.513877790000
        73    1       22.148400000000      12.787300000000       9.338650000000
        74    1       25.839800000000       6.393650000000       9.338650000000
        75    2       23.994100000000       5.328045929100       7.513877790000
        76    2       27.685500000000      11.721695929100       7.513877790000
        77    1       23.994100000000       3.196825000000       9.338650000000
        78    2       27.685500000000       5.328045929100       7.513877790000
        79    2       27.685500000000       1.065604070900      11.163422210000
        80    2       25.839800000000       4.262429070900      11.163422210000
        81    2       23.994100000000       1.065604070900      11.163422210000
        82    2       23.994100000000      11.721695929100       7.513877790000
        83    1       27.685500000000       9.590475000000       9.338650000000
        84    2       23.994100000000       7.459254070900      11.163422210000
        85    2       22.148400000000      10.656079070900      11.163422210000
        86    2       27.685500000000       7.459254070900      11.163422210000
        87    1       27.685500000000       3.196825000000       9.338650000000
        88    1       23.994100000000       9.590475000000       9.338650000000
        89    2       22.148400000000       4.262429070900      11.163422210000
        90    2       25.839800000000      10.656079070900      11.163422210000
        91    2       25.839800000000       2.131220929100       7.513877790000
        92    2       29.531200000000       8.524870929100       7.513877790000
        93    1       25.839800000000      12.787300000000       9.338650000000
        94    1       29.531200000000       6.393650000000       9.338650000000
        95    2       29.531200000000       2.131220929100       7.513877790000
        96    2       25.839800000000       8.524870929100       7.513877790000
        97    1       29.531200000000      12.787300000000       9.338650000000
        98    1       33.222600000000       6.393650000000       9.338650000000
        99    2       31.376900000000       5.328045929100       7.513877790000
       100    2       35.068300000000      11.721695929100       7.513877790000
       101    1       31.376900000000       3.196825000000       9.338650000000
       102    2       35.068300000000       5.328045929100       7.513877790000
       103    2       35.068300000000       1.065604070900      11.163422210000
       104    2       33.222600000000       4.262429070900      11.163422210000
       105    2       31.376900000000       1.065604070900      11.163422210000
       106    2       31.376900000000      11.721695929100       7.513877790000
       107    1       35.068300000000       9.590475000000       9.338650000000
       108    2       31.376900000000       7.459254070900      11.163422210000
       109    2       29.531200000000      10.656079070900      11.163422210000
       110    2       35.068300000000       7.459254070900      11.163422210000
       111    1       35.068300000000       3.196825000000       9.338650000000
       112    1       31.376900000000       9.590475000000       9.338650000000
       113    2       29.531200000000       4.262429070900      11.163422210000
       114    2       33.222600000000      10.656079070900      11.163422210000
       115    2       33.222600000000       2.131220929100       7.513877790000
       116    2       36.914000000000       8.524870929100       7.513877790000
       117    1       33.222600000000      12.787300000000       9.338650000000
       118    1       36.914000000000       6.393650000000       9.338650000000
       119    2       36.914000000000       2.131220929100       7.513877790000
       120    2       33.222600000000       8.524870929100       7.513877790000
       121    1       36.914000000000      12.787300000000       9.338650000000
       122    1       40.605400000000       6.393650000000       9.338650000000
       123    2       38.759700000000       5.328045929100       7.513877790000
       124    2       42.451100000000      11.721695929100       7.513877790000
       125    1       38.759700000000       3.196825000000       9.338650000000
       126    2       42.451100000000       5.328045929100       7.513877790000
       127    2       42.451100000000       1.065604070900      11.163422210000
       128    2       40.605400000000       4.262429070900      11.163422210000
       129    2       38.759700000000       1.065604070900      11.163422210000
       130    2       38.759700000000      11.721695929100       7.513877790000
       131    1       42.451100000000       9.590475000000       9.338650000000
       132    2       38.759700000000       7.459254070900      11.163422210000
       133    2       36.914000000000      10.656079070900      11.163422210000
       134    2       42.451100000000       7.459254070900      11.163422210000
       135    1       42.451100000000       3.196825000000       9.338650000000
       136    1       38.759700000000       9.590475000000       9.338650000000
       137    2       36.914000000000       4.262429070900      11.163422210000
       138    2       40.605400000000      10.656079070900      11.163422210000
       139    2       40.605400000000       2.131220929100       7.513877790000
       140    2       44.296800000000       8.524870929100       7.513877790000
       141    1       40.605400000000      12.787300000000       9.338650000000
       142    1       44.296800000000       6.393650000000       9.338650000000
       143    2       44.296800000000       2.131220929100       7.513877790000
       144    2       40.605400000000       8.524870929100       7.513877790000
       145    1       44.296800000000      12.787300000000       9.338650000000
       146    1       47.988200000000       6.393650000000       9.338650000000
       147    2       46.142500000000       5.328045929100       7.513877790000
       148    2       49.833900000000      11.721695929100       7.513877790000
       149    1       46.142500000000       3.196825000000       9.338650000000
       150    2       49.833900000000       5.328045929100       7.513877790000
       151    2       49.833900000000       1.065604070900      11.163422210000
       152    2       47.988200000000       4.262429070900      11.163422210000
       153    2       46.142500000000       1.065604070900      11.163422210000
       154    2       46.142500000000      11.721695929100       7.513877790000
       155    1       49.833900000000       9.590475000000       9.338650000000
       156    2       46.142500000000       7.459254070900      11.163422210000
       157    2       44.296800000000      10.656079070900      11.163422210000
       158    2       49.833900000000       7.459254070900      11.163422210000
       159    1       49.833900000000       3.196825000000       9.338650000000
       160    1       46.142500000000       9.590475000000       9.338650000000
       161    2       44.296800000000       4.262429070900      11.163422210000
       162    2       47.988200000000      10.656079070900      11.163422210000
       163    2       47.988200000000       2.131220929100       7.513877790000
       164    2       51.679600000000       8.524870929100       7.513877790000
       165    1       47.988200000000      12.787300000000       9.338650000000
       166    1       51.679600000000       6.393650000000       9.338650000000
       167    2       51.679600000000       2.131220929100       7.513877790000
       168    2       47.988200000000       8.524870929100       7.513877790000
       169    1       51.679600000000      12.787300000000       9.338650000000
       170    1       55.371000000000       6.393650000000       9.338650000000
       171    2       53.525300000000       5.328045929100       7.513877790000
       172    2       57.216700000000      11.721695929100       7.513877790000
       173    1       53.525300000000       3.196825000000       9.338650000000
       174    2       57.216700000000       5.328045929100       7.513877790000
       175    2       57.216700000000       1.065604070900      11.163422210000
       176    2       55.371000000000       4.262429070900      11.163422210000
       177    2       53.525300000000       1.065604070900      11.163422210000
       178    2       53.525300000000      11.721695929100       7.513877790000
       179    1       57.216700000000       9.590475000000       9.338650000000
       180    2       53.525300000000       7.459254070900      11.163422210000
       181    2       51.679600000000      10.656079070900      11.163422210000
       182    2       57.216700000000       7.459254070900      11.163422210000
       183    1       57.216700000000       3.196825000000       9.338650000000
       184    1       53.525300000000       9.590475000000       9.338650000000
       185    2       51.679600000000       4.262429070900      11.163422210000
       186    2       55.371000000000      10.656079070900      11.163422210000
       187    2       55.371000000000       2.131220929100       7.513877790000
       188    2       59.062400000000       8.524870929100       7.513877790000
       189    1       55.371000000000      12.787300000000       9.338650000000
       190    1       59.062400000000       6.393650000000       9.338650000000
       191    2       59.062400000000       2.131220929100       7.513877790000
       192    2       55.371000000000       8.524870929100       7.513877790000
       193    1       59.062400000000      12.787300000000       9.338650000000
       194    1       62.753800000000       6.393650000000       9.338650000000
       195    2       60.908100000000       5.328045929100       7.513877790000
       196    2       64.599500000000      11.721695929100       7.513877790000
       197    1       60.908100000000       3.196825000000       9.338650000000
       198    2       64.599500000000       5.328045929100       7.513877790000
       199    2       64.599500000000       1.065604070900      11.163422210000
       200    2       62.753800000000       4.262429070900      11.163422210000
       201    2       60.908100000000       1.065604070900      11.163422210000
       202    2       60.908100000000      11.721695929100       7.513877790000
       203    1       64.599500000000       9.590475000000       9.338650000000
       204    2       60.908100000000       7.459254070900      11.163422210000
       205    2       59.062400000000      10.656079070900      11.163422210000
       206    2       64.599500000000       7.459254070900      11.163422210000
       207    1       64.599500000000       3.196825000000       9.338650000000
       208    1       60.908100000000       9.590475000000       9.338650000000
       209    2       59.062400000000       4.262429070900      11.163422210000
       210    2       62.753800000000      10.656079070900      11.163422210000
       211    2       62.753800000000       2.131220929100       7.513877790000
       212    2       66.445200000000       8.524870929100       7.513877790000
       213    1       62.753800000000      12.787300000000       9.338650000000
       214    1       66.445200000000       6.393650000000       9.338650000000
       215    2       66.445200000000       2.131220929100       7.513877790000
       216    2       62.753800000000       8.524870929100       7.513877790000
       217    1       66.445200000000      12.787300000000       9.338650000000
       218    1       70.136600000000       6.393650000000       9.338650000000
       219    2       68.290900000000       5.328045929100       7.513877790000
       220    2       71.982300000000      11.721695929100       7.513877790000
       221    1       68.290900000000       3.196825000000       9.338650000000
       222    2       71.982300000000       5.328045929100       7.513877790000
       223    2       71.982300000000       1.065604070900      11.163422210000
       224    2       70.136600000000       4.262429070900      11.163422210000
       225    2       68.290900000000       1.065604070900      11.163422210000
       226    2       68.290900000000      11.721695929100       7.513877790000
       227    1       71.982300000000       9.590475000000       9.338650000000
       228    2       68.290900000000       7.459254070900      11.163422210000
       229    2       66.445200000000      10.656079070900      11.163422210000
       230    2       71.982300000000       7.459254070900      11.163422210000
       231    1       71.982300000000       3.196825000000       9.338650000000
       232    1       68.290900000000       9.590475000000       9.338650000000
       233    2       66.445200000000       4.262429070900      11.163422210000
       234    2       70.136600000000      10.656079070900      11.163422210000
       235    2       70.136600000000       2.131220929100       7.513877790000
       236    2       73.828000000000       8.524870929100       7.513877790000
       237    1       70.136600000000      12.787300000000       9.338650000000
       238    1       73.828000000000       6.393650000000       9.338650000000
       239    2       73.828000000000       2.131220929100       7.513877790000
       240    2       70.136600000000       8.524870929100       7.513877790000
       241    1       73.828000000000      12.787300000000       9.338650000000
       242    1       77.519400000000       6.393650000000       9.338650000000
       243    2       75.673700000000       5.328045929100       7.513877790000
       244    2       79.365100000000      11.721695929100       7.513877790000
       245    1       75.673700000000       3.196825000000       9.338650000000
       246    2       79.365100000000       5.328045929100       7.513877790000
       247    2       79.365100000000       1.065604070900      11.163422210000
       248    2       77.519400000000       4.262429070900      11.163422210000
       249    2       75.673700000000       1.065604070900      11.163422210000
       250    2       75.673700000000      11.721695929100       7.513877790000
       251    1       79.365100000000       9.590475000000       9.338650000000
       252    2       75.673700000000       7.459254070900      11.163422210000
       253    2       73.828000000000      10.656079070900      11.163422210000
       254    2       79.365100000000       7.459254070900      11.163422210000
       255    1       79.365100000000       3.196825000000       9.338650000000
       256    1       75.673700000000       9.590475000000       9.338650000000
       257    2       73.828000000000       4.262429070900      11.163422210000
       258    2       77.519400000000      10.656079070900      11.163422210000
       259    2       77.519400000000       2.131220929100       7.513877790000
       260    2       81.210800000000       8.524870929100       7.513877790000
       261    1       77.519400000000      12.787300000000       9.338650000000
       262    1       81.210800000000       6.393650000000       9.338650000000
       263    2       81.210800000000       2.131220929100       7.513877790000
       264    2       77.519400000000       8.524870929100       7.513877790000
       265    1       81.210800000000      12.787300000000       9.338650000000
       266    1       84.902200000000       6.393650000000       9.338650000000
       267    2       83.056500000000       5.328045929100       7.513877790000
       268    2       86.747900000000      11.721695929100       7.513877790000
       269    1       83.056500000000       3.196825000000       9.338650000000
       270    2       86.747900000000       5.328045929100       7.513877790000
       271    2       86.747900000000       1.065604070900      11.163422210000
       272    2       84.902200000000       4.262429070900      11.163422210000
       273    2       83.056500000000       1.065604070900      11.163422210000
       274    2       83.056500000000      11.721695929100       7.513877790000
       275    1       86.747900000000       9.590475000000       9.338650000000
       276    2       83.056500000000       7.459254070900      11.163422210000
       277    2       81.210800000000      10.656079070900      11.163422210000
       278    2       86.747900000000       7.459254070900      11.163422210000
       279    1       86.747900000000       3.196825000000       9.338650000000
       280    1       83.056500000000       9.590475000000       9.338650000000
       281    2       81.210800000000       4.262429070900      11.163422210000
       282    2       84.902200000000      10.656079070900      11.163422210000
       283    2       84.902200000000       2.131220929100       7.513877790000
       284    2       88.593600000000       8.524870929100       7.513877790000
       285    1       84.902200000000      12.787300000000       9.338650000000
       286    1       88.593600000000       6.393650000000       9.338650000000
       287    2       88.593600000000       2.131220929100       7.513877790000
       288    2       84.902200000000       8.524870929100       7.513877790000
       289    1       88.593600000000      12.787300000000       9.338650000000
       290    1       92.285000000000       6.393650000000       9.338650000000
       291    2       90.439300000000       5.328045929100       7.513877790000
       292    2       94.130700000000      11.721695929100       7.513877790000
       293    1       90.439300000000       3.196825000000       9.338650000000
       294    2       94.130700000000       5.328045929100       7.513877790000
       295    2       94.130700000000       1.065604070900      11.163422210000
       296    2       92.285000000000       4.262429070900      11.163422210000
       297    2       90.439300000000       1.065604070900      11.163422210000
       298    2       90.439300000000      11.721695929100       7.513877790000
       299    1       94.130700000000       9.590475000000       9.338650000000
       300    2       90.439300000000       7.459254070900      11.163422210000
       301    2       88.593600000000      10.656079070900      11.163422210000
       302    2       94.130700000000       7.459254070900      11.163422210000
       303    1       94.130700000000       3.196825000000       9.338650000000
       304    1       90.439300000000       9.590475000000       9.338650000000
       305    2       88.593600000000       4.262429070900      11.163422210000
       306    2       92.285000000000      10.656079070900      11.163422210000
       307    2       92.285000000000       2.131220929100       7.513877790000
       308    2       95.976400000000       8.524870929100       7.513877790000
       309    1       92.285000000000      12.787300000000       9.338650000000
       310    1       95.976400000000       6.393650000000       9.338650000000
       311    2       95.976400000000       2.131220929100       7.513877790000
       312    2       92.285000000000       8.524870929100       7.513877790000
       313    1       95.976400000000      12.787300000000       9.338650000000
       314    1       99.667800000000       6.393650000000       9.338650000000
       315    2       97.822100000000       5.328045929100       7.513877790000
       316    2      101.513500000000      11.721695929100       7.513877790000
       317    1       97.822100000000       3.196825000000       9.338650000000
       318    2      101.513500000000       5.328045929100       7.513877790000
       319    2      101.513500000000       1.065604070900      11.163422210000
       320    2       99.667800000000       4.262429070900      11.163422210000
       321    2       97.822100000000       1.065604070900      11.163422210000
       322    2       97.822100000000      11.721695929100       7.513877790000
       323    1      101.513500000000       9.590475000000       9.338650000000
       324    2       97.822100000000       7.459254070900      11.163422210000
       325    2       95.976400000000      10.656079070900      11.163422210000
       326    2      101.513500000000       7.459254070900      11.163422210000
       327    1      101.513500000000       3.196825000000       9.338650000000
       328    1       97.822100000000       9.590475000000       9.338650000000
       329    2       95.976400000000       4.262429070900      11.163422210000
       330    2       99.667800000000      10.656079070900      11.163422210000
       331    2       99.667800000000       2.131220929100       7.513877790000
       332    2      103.359200000000       8.524870929100       7.513877790000
       333    1       99.667800000000      12.787300000000       9.338650000000
       334    1      103.359200000000       6.393650000000       9.338650000000
       335    2      103.359200000000       2.131220929100       7.513877790000
       336    2       99.667800000000       8.524870929100       7.513877790000
       337    1        0.000000000000      25.574600000000       9.338650000000
       338    1        3.691400000000      19.180950000000       9.338650000000
       339    2        1.845700000000      18.115345929100       7.513877790000
       340    2        5.537100000000      24.508995929100       7.513877790000
       341    1        1.845700000000      15.984125000000       9.338650000000
       342    2        5.537100000000      18.115345929100       7.513877790000
       343    2        5.537100000000      13.852904070900      11.163422210000
       344    2        3.691400000000      17.049729070900      11.163422210000
       345    2        1.845700000000      13.852904070900      11.163422210000
       346    2        1.845700000000      24.508995929100       7.513877790000
       347    1        5.537100000000      22.377775000000       9.338650000000
       348    2        1.845700000000      20.246554070900      11.163422210000
       349    2        0.000000000000      23.443379070900      11.163422210000
       350    2        5.537100000000      20.246554070900      11.163422210000
       351    1        5.537100000000      15.984125000000       9.338650000000
       352    1        1.845700000000      22.377775000000       9.338650000000
       353    2        0.000000000000      17.049729070900      11.163422210000
       354    2        3.691400000000      23.443379070900      11.163422210000
       355    2        3.691400000000      14.918520929100       7.513877790000
       356    2        7.382800000000      21.312170929100       7.513877790000
       357    1        3.691400000000      25.574600000000       9.338650000000
       358    1        7.382800000000      19.180950000000       9.338650000000
       359    2        7.382800000000      14.918520929100       7.513877790000
       360    2        3.691400000000      21.312170929100       7.513877790000
       361    1        7.382800000000      25.574600000000       9.338650000000
       362    1       11.074200000000      19.180950000000       9.338650000000
       363    2        9.228500000000      18.115345929100       7.513877790000
       364    2       12.919900000000      24.508995929100       7.513877790000
       365    1        9.228500000000      15.984125000000       9.338650000000
       366    2       12.919900000000      18.115345929100       7.513877790000
       367    2       12.919900000000      13.852904070900      11.163422210000
       368    2       11.074200000000      17.049729070900      11.163422210000
       369    2        9.228500000000      13.852904070900      11.163422210000
       370    2        9.228500000000      24.508995929100       7.513877790000