 # Tc8 Se16
  
        3456  atoms
           2  atom types
 
      0.000000000000     100.937600000000  xlo xhi
      0.000000000000      98.341200000000  ylo yhi
      0.000000000000     106.000000000000  zlo zhi
 
Masses
 
            1   98.90600000             # Tc
            2   78.96000000             # Se
 
Atoms # atomic
 
         1    1        3.154300000000      10.926800000000      53.000000000000
         2    1        0.000000000000       5.463400000000      53.000000000000
         3    2        4.731450000000       0.910563024400      54.721652000000
         4    2        1.577150000000       6.373963024400      54.721652000000
         5    1        1.577150000000       2.731700000000      53.000000000000
         6    1        4.731450000000       8.195100000000      53.000000000000
         7    2        0.000000000000       3.642263024400      54.721652000000
         8    2        3.154300000000       9.105663024400      54.721652000000
         9    2        0.000000000000       1.821136975600      51.278348000000
        10    2        3.154300000000       7.284536975600      51.278348000000
        11    2        3.154300000000       1.821136975600      51.278348000000
        12    2        0.000000000000       7.284536975600      51.278348000000
        13    1        4.731450000000       2.731700000000      53.000000000000
        14    1        1.577150000000       8.195100000000      53.000000000000
        15    2        1.577150000000       0.910563024400      54.721652000000
        16    2        4.731450000000       4.552836975600      51.278348000000
        17    2        4.731450000000       6.373963024400      54.721652000000
        18    2        1.577150000000      10.016236975600      51.278348000000
        19    2        1.577150000000       4.552836975600      51.278348000000
        20    2        4.731450000000      10.016236975600      51.278348000000
        21    1        0.000000000000      10.926800000000      53.000000000000
        22    1        3.154300000000       5.463400000000      53.000000000000
        23    2        3.154300000000       3.642263024400      54.721652000000
        24    2        6.308600000000       9.105663024400      54.721652000000
        25    1        9.462900000000      10.926800000000      53.000000000000
        26    1        6.308600000000       5.463400000000      53.000000000000
        27    2       11.040050000000       0.910563024400      54.721652000000
        28    2        7.885750000000       6.373963024400      54.721652000000
        29    1        7.885750000000       2.731700000000      53.000000000000
        30    1       11.040050000000       8.195100000000      53.000000000000
        31    2        6.308600000000       3.642263024400      54.721652000000
        32    2        9.462900000000       9.105663024400      54.721652000000
        33    2        6.308600000000       1.821136975600      51.278348000000
        34    2        9.462900000000       7.284536975600      51.278348000000
        35    2        9.462900000000       1.821136975600      51.278348000000
        36    2        6.308600000000       7.284536975600      51.278348000000
        37    1       11.040050000000       2.731700000000      53.000000000000
        38    1        7.885750000000       8.195100000000      53.000000000000
        39    2        7.885750000000       0.910563024400      54.721652000000
        40    2       11.040050000000       4.552836975600      51.278348000000
        41    2       11.040050000000       6.373963024400      54.721652000000
        42    2        7.885750000000      10.016236975600      51.278348000000
        43    2        7.885750000000       4.552836975600      51.278348000000
        44    2       11.040050000000      10.016236975600      51.278348000000
        45    1        6.308600000000      10.926800000000      53.000000000000
        46    1        9.462900000000       5.463400000000      53.000000000000
        47    2        9.462900000000       3.642263024400      54.721652000000
        48    2       12.617200000000       9.105663024400      54.721652000000
        49    1       15.771500000000      10.926800000000      53.000000000000
        50    1       12.617200000000       5.463400000000      53.000000000000
        51    2       17.348650000000       0.910563024400      54.721652000000
        52    2       14.194350000000       6.373963024400      54.721652000000
        53    1       14.194350000000       2.731700000000      53.000000000000
        54    1       17.348650000000       8.195100000000      53.000000000000
        55    2       12.617200000000       3.642263024400      54.721652000000
        56    2       15.771500000000       9.105663024400      54.721652000000
        57    2       12.617200000000       1.821136975600      51.278348000000
        58    2       15.771500000000       7.284536975600      51.278348000000
        59    2       15.771500000000       1.821136975600      51.278348000000
        60    2       12.617200000000       7.284536975600      51.278348000000
        61    1       17.348650000000       2.731700000000      53.000000000000
        62    1       14.194350000000       8.195100000000      53.000000000000
        63    2       14.194350000000       0.910563024400      54.721652000000
        64    2       17.348650000000       4.552836975600      51.278348000000
        65    2       17.348650000000       6.373963024400      54.721652000000
        66    2       14.194350000000      10.016236975600      51.278348000000
        67    2       14.194350000000       4.552836975600      51.278348000000
        68    2       17.348650000000      10.016236975600      51.278348000000
        69    1       12.617200000000      10.926800000000      53.000000000000
        70    1       15.771500000000       5.463400000000      53.000000000000
        71    2       15.771500000000       3.642263024400      54.721652000000
        72    2       18.925800000000       9.105663024400      54.721652000000
        73    1       22.080100000000      10.926800000000      53.000000000000
        74    1       18.925800000000       5.463400000000      53.000000000000
        75    2       23.657250000000       0.910563024400      54.721652000000
        76    2       20.502950000000       6.373963024400      54.721652000000
        77    1       20.502950000000       2.731700000000      53.000000000000
        78    1       23.657250000000       8.195100000000      53.000000000000
        79    2       18.925800000000       3.642263024400      54.721652000000
        80    2       22.080100000000       9.105663024400      54.721652000000
        81    2       18.925800000000       1.821136975600      51.278348000000
        82    2       22.080100000000       7.284536975600      51.278348000000
        83    2       22.080100000000       1.821136975600      51.278348000000
        84    2       18.925800000000       7.284536975600      51.278348000000
        85    1       23.657250000000       2.731700000000      53.000000000000
        86    1       20.502950000000       8.195100000000      53.000000000000
        87    2       20.502950000000       0.910563024400      54.721652000000
        88    2       23.657250000000       4.552836975600      51.278348000000
        89    2       23.657250000000       6.373963024400      54.721652000000
        90    2       20.502950000000      10.016236975600      51.278348000000
        91    2       20.502950000000       4.552836975600      51.278348000000
        92    2       23.657250000000      10.016236975600      51.278348000000
        93    1       18.925800000000      10.926800000000      53.000000000000
        94    1       22.080100000000       5.463400000000      53.000000000000
        95    2       22.080100000000       3.642263024400      54.721652000000
        96    2       25.234400000000       9.105663024400      54.721652000000
        97    1       28.388700000000      10.926800000000      53.000000000000
        98    1       25.234400000000       5.463400000000      53.000000000000
        99    2       29.965850000000       0.910563024400      54.721652000000
       100    2       26.811550000000       6.373963024400      54.721652000000
       101    1       26.811550000000       2.731700000000      53.000000000000
       102    1       29.965850000000       8.195100000000      53.000000000000
       103    2       25.234400000000       3.642263024400      54.721652000000
       104    2       28.388700000000       9.105663024400      54.721652000000
       105    2       25.234400000000       1.821136975600      51.278348000000
       106    2       28.388700000000       7.284536975600      51.278348000000
       107    2       28.388700000000       1.821136975600      51.278348000000
       108    2       25.234400000000       7.284536975600      51.278348000000
       109    1       29.965850000000       2.731700000000      53.000000000000
       110    1       26.811550000000       8.195100000000      53.000000000000
       111    2       26.811550000000       0.910563024400      54.721652000000
       112    2       29.965850000000       4.552836975600      51.278348000000
       113    2       29.965850000000       6.373963024400      54.721652000000
       114    2       26.811550000000      10.016236975600      51.278348000000
       115    2       26.811550000000       4.552836975600      51.278348000000
       116    2       29.965850000000      10.016236975600      51.278348000000
       117    1       25.234400000000      10.926800000000      53.000000000000
       118    1       28.388700000000       5.463400000000      53.000000000000
       119    2       28.388700000000       3.642263024400      54.721652000000
       120    2       31.543000000000       9.105663024400      54.721652000000
       121    1       34.697300000000      10.926800000000      53.000000000000
       122    1       31.543000000000       5.463400000000      53.000000000000
       123    2       36.274450000000       0.910563024400      54.721652000000
       124    2       33.120150000000       6.373963024400      54.721652000000
       125    1       33.120150000000       2.731700000000      53.000000000000
       126    1       36.274450000000       8.195100000000      53.000000000000
       127    2       31.543000000000       3.642263024400      54.721652000000
       128    2       34.697300000000       9.105663024400      54.721652000000
       129    2       31.543000000000       1.821136975600      51.278348000000
       130    2       34.697300000000       7.284536975600      51.278348000000
       131    2       34.697300000000       1.821136975600      51.278348000000
       132    2       31.543000000000       7.284536975600      51.278348000000
       133    1       36.274450000000       2.731700000000      53.000000000000
       134    1       33.120150000000       8.195100000000      53.000000000000
       135    2       33.120150000000       0.910563024400      54.721652000000
       136    2       36.274450000000       4.552836975600      51.278348000000
       137    2       36.274450000000       6.373963024400      54.721652000000
       138    2       33.120150000000      10.016236975600      51.278348000000
       139    2       33.120150000000       4.552836975600      51.278348000000
       140    2       36.274450000000      10.016236975600      51.278348000000
       141    1       31.543000000000      10.926800000000      53.000000000000
       142    1       34.697300000000       5.463400000000      53.000000000000
       143    2       34.697300000000       3.642263024400      54.721652000000
       144    2       37.851600000000       9.105663024400      54.721652000000
       145    1       41.005900000000      10.926800000000      53.000000000000
       146    1       37.851600000000       5.463400000000      53.000000000000
       147    2       42.583050000000       0.910563024400      54.721652000000
       148    2       39.428750000000       6.373963024400      54.721652000000
       149    1       39.428750000000       2.731700000000      53.000000000000
       150    1       42.583050000000       8.195100000000      53.000000000000
       151    2       37.851600000000       3.642263024400      54.721652000000
       152    2       41.005900000000       9.105663024400      54.721652000000
       153    2       37.851600000000       1.821136975600      51.278348000000
       154    2       41.005900000000       7.284536975600      51.278348000000
       155    2       41.005900000000       1.821136975600      51.278348000000
       156    2       37.851600000000       7.284536975600      51.278348000000
       157    1       42.583050000000       2.731700000000      53.000000000000
       158    1       39.428750000000       8.195100000000      53.000000000000
       159    2       39.428750000000       0.910563024400      54.721652000000
       160    2       42.583050000000       4.552836975600      51.278348000000
       161    2       42.583050000000       6.373963024400      54.721652000000
       162    2       39.428750000000      10.016236975600      51.278348000000
       163    2       39.428750000000       4.552836975600      51.278348000000
       164    2       42.583050000000      10.016236975600      51.278348000000
       165    1       37.851600000000      10.926800000000      53.000000000000
       166    1       41.005900000000       5.463400000000      53.000000000000
       167    2       41.005900000000       3.642263024400      54.721652000000
       168    2       44.160200000000       9.105663024400      54.721652000000
       169    1       47.314500000000      10.926800000000      53.000000000000
       170    1       44.160200000000       5.463400000000      53.000000000000
       171    2       48.891650000000       0.910563024400      54.721652000000
       172    2       45.737350000000       6.373963024400      54.721652000000
       173    1       45.737350000000       2.731700000000      53.000000000000
       174    1       48.891650000000       8.195100000000      53.000000000000
       175    2       44.160200000000       3.642263024400      54.721652000000
       176    2       47.314500000000       9.105663024400      54.721652000000
       177    2       44.160200000000       1.821136975600      51.278348000000
       178    2       47.314500000000       7.284536975600      51.278348000000
       179    2       47.314500000000       1.821136975600      51.278348000000
       180    2       44.160200000000       7.284536975600      51.278348000000
       181    1       48.891650000000       2.731700000000      53.000000000000
       182    1       45.737350000000       8.195100000000      53.000000000000
       183    2       45.737350000000       0.910563024400      54.721652000000
       184    2       48.891650000000       4.552836975600      51.278348000000
       185    2       48.891650000000       6.373963024400      54.721652000000
       186    2       45.737350000000      10.016236975600      51.278348000000
       187    2       45.737350000000       4.552836975600      51.278348000000
       188    2       48.891650000000      10.016236975600      51.278348000000
       189    1       44.160200000000      10.926800000000      53.000000000000
       190    1       47.314500000000       5.463400000000      53.000000000000
       191    2       47.314500000000       3.642263024400      54.721652000000
       192    2       50.468800000000       9.105663024400      54.721652000000
       193    1       53.623100000000      10.926800000000      53.000000000000
       194    1       50.468800000000       5.463400000000      53.000000000000
       195    2       55.200250000000       0.910563024400      54.721652000000
       196    2       52.045950000000       6.373963024400      54.721652000000
       197    1       52.045950000000       2.731700000000      53.000000000000
       198    1       55.200250000000       8.195100000000      53.000000000000
       199    2       50.468800000000       3.642263024400      54.721652000000
       200    2       53.623100000000       9.105663024400      54.721652000000
       201    2       50.468800000000       1.821136975600      51.278348000000
       202    2       53.623100000000       7.284536975600      51.278348000000
       203    2       53.623100000000       1.821136975600      51.278348000000
       204    2       50.468800000000       7.284536975600      51.278348000000
       205    1       55.200250000000       2.731700000000      53.000000000000
       206    1       52.045950000000       8.195100000000      53.000000000000
       207    2       52.045950000000       0.910563024400      54.721652000000
       208    2       55.200250000000       4.552836975600      51.278348000000
       209    2       55.200250000000       6.373963024400      54.721652000000
       210    2       52.045950000000      10.016236975600      51.278348000000
       211    2       52.045950000000       4.552836975600      51.278348000000
       212    2       55.200250000000      10.016236975600      51.278348000000
       213    1       50.468800000000      10.926800000000      53.000000000000
       214    1       53.623100000000       5.463400000000      53.000000000000
       215    2       53.623100000000       3.642263024400      54.721652000000
       216    2       56.777400000000       9.105663024400      54.721652000000
       217    1       59.931700000000      10.926800000000      53.000000000000
       218    1       56.777400000000       5.463400000000      53.000000000000
       219    2       61.508850000000       0.910563024400      54.721652000000
       220    2       58.354550000000       6.373963024400      54.721652000000
       221    1       58.354550000000       2.731700000000      53.000000000000
       222    1       61.508850000000       8.195100000000      53.000000000000
       223    2       56.777400000000       3.642263024400      54.721652000000
       224    2       59.931700000000       9.105663024400      54.721652000000
       225    2       56.777400000000       1.821136975600      51.278348000000
       226    2       59.931700000000       7.284536975600      51.278348000000
       227    2       59.931700000000       1.821136975600      51.278348000000
       228    2       56.777400000000       7.284536975600      51.278348000000
       229    1       61.508850000000       2.731700000000      53.000000000000
       230    1       58.354550000000       8.195100000000      53.000000000000
       231    2       58.354550000000       0.910563024400      54.721652000000
       232    2       61.508850000000       4.552836975600      51.278348000000
       233    2       61.508850000000       6.373963024400      54.721652000000
       234    2       58.354550000000      10.016236975600      51.278348000000
       235    2       58.354550000000       4.552836975600      51.278348000000
       236    2       61.508850000000      10.016236975600      51.278348000000
       237    1       56.777400000000      10.926800000000      53.000000000000
       238    1       59.931700000000       5.463400000000      53.000000000000
       239    2       59.931700000000       3.642263024400      54.721652000000
       240    2       63.086000000000       9.105663024400      54.721652000000
       241    1       66.240300000000      10.926800000000      53.000000000000
       242    1       63.086000000000       5.463400000000      53.000000000000
       243    2       67.817450000000       0.910563024400      54.721652000000
       244    2       64.663150000000       6.373963024400      54.721652000000
       245    1       64.663150000000       2.731700000000      53.000000000000
       246    1       67.817450000000       8.195100000000      53.000000000000
       247    2       63.086000000000       3.642263024400      54.721652000000
       248    2       66.240300000000       9.105663024400      54.721652000000
       249    2       63.086000000000       1.821136975600      51.278348000000
       250    2       66.240300000000       7.284536975600      51.278348000000
       251    2       66.240300000000       1.821136975600      51.278348000000
       252    2       63.086000000000       7.284536975600      51.278348000000
       253    1       67.817450000000       2.731700000000      53.000000000000
       254    1       64.663150000000       8.195100000000      53.000000000000
       255    2       64.663150000000       0.910563024400      54.721652000000
       256    2       67.817450000000       4.552836975600      51.278348000000
       257    2       67.817450000000       6.373963024400      54.721652000000
       258    2       64.663150000000      10.016236975600      51.278348000000
       259    2       64.663150000000       4.552836975600      51.278348000000
       260    2       67.817450000000      10.016236975600      51.278348000000
       261    1       63.086000000000      10.926800000000      53.000000000000
       262    1       66.240300000000       5.463400000000      53.000000000000
       263    2       66.240300000000       3.642263024400      54.721652000000
       264    2       69.394600000000       9.105663024400      54.721652000000
       265    1       72.548900000000      10.926800000000      53.000000000000
       266    1       69.394600000000       5.463400000000      53.000000000000
       267    2       74.126050000000       0.910563024400      54.721652000000
       268    2       70.971750000000       6.373963024400      54.721652000000
       269    1       70.971750000000       2.731700000000      53.000000000000
       270    1       74.126050000000       8.195100000000      53.000000000000
       271    2       69.394600000000       3.642263024400      54.721652000000
       272    2       72.548900000000       9.105663024400      54.721652000000
       273    2       69.394600000000       1.821136975600      51.278348000000
       274    2       72.548900000000       7.284536975600      51.278348000000
       275    2       72.548900000000       1.821136975600      51.278348000000
       276    2       69.394600000000       7.284536975600      51.278348000000
       277    1       74.126050000000       2.731700000000      53.000000000000
       278    1       70.971750000000       8.195100000000      53.000000000000
       279    2       70.971750000000       0.910563024400      54.721652000000
       280    2       74.126050000000       4.552836975600      51.278348000000
       281    2       74.126050000000       6.373963024400      54.721652000000
       282    2       70.971750000000      10.016236975600      51.278348000000
       283    2       70.971750000000       4.552836975600      51.278348000000
       284    2       74.126050000000      10.016236975600      51.278348000000
       285    1       69.394600000000      10.926800000000      53.000000000000
       286    1       72.548900000000       5.463400000000      53.000000000000
       287    2       72.548900000000       3.642263024400      54.721652000000
       288    2       75.703200000000       9.105663024400      54.721652000000
       289    1       78.857500000000      10.926800000000      53.000000000000
       290    1       75.703200000000       5.463400000000      53.000000000000
       291    2       80.434650000000       0.910563024400      54.721652000000
       292    2       77.280350000000       6.373963024400      54.721652000000
       293    1       77.280350000000       2.731700000000      53.000000000000
       294    1       80.434650000000       8.195100000000      53.000000000000
       295    2       75.703200000000       3.642263024400      54.721652000000
       296    2       78.857500000000       9.105663024400      54.721652000000
       297    2       75.703200000000       1.821136975600      51.278348000000
       298    2       78.857500000000       7.284536975600      51.278348000000
       299    2       78.857500000000       1.821136975600      51.278348000000
       300    2       75.703200000000       7.284536975600      51.278348000000
       301    1       80.434650000000       2.731700000000      53.000000000000
       302    1       77.280350000000       8.195100000000      53.000000000000
       303    2       77.280350000000       0.910563024400      54.721652000000
       304    2       80.434650000000       4.552836975600      51.278348000000
       305    2       80.434650000000       6.373963024400      54.721652000000
       306    2       77.280350000000      10.016236975600      51.278348000000
       307    2       77.280350000000       4.552836975600      51.278348000000
       308    2       80.434650000000      10.016236975600      51.278348000000
       309    1       75.703200000000      10.926800000000      53.000000000000
       310    1       78.857500000000       5.463400000000      53.000000000000
       311    2       78.857500000000       3.642263024400      54.721652000000
       312    2       82.011800000000       9.105663024400      54.721652000000
       313    1       85.166100000000      10.926800000000      53.000000000000
       314    1       82.011800000000       5.463400000000      53.000000000000
       315    2       86.743250000000       0.910563024400      54.721652000000
       316    2       83.588950000000       6.373963024400      54.721652000000
       317    1       83.588950000000       2.731700000000      53.000000000000
       318    1       86.743250000000       8.195100000000      53.000000000000
       319    2       82.011800000000       3.642263024400      54.721652000000
       320    2       85.166100000000       9.105663024400      54.721652000000
       321    2       82.011800000000       1.821136975600      51.278348000000
       322    2       85.166100000000       7.284536975600      51.278348000000
       323    2       85.166100000000       1.821136975600      51.278348000000
       324    2       82.011800000000       7.284536975600      51.278348000000
       325    1       86.743250000000       2.731700000000      53.000000000000
       326    1       83.588950000000       8.195100000000      53.000000000000
       327    2       83.588950000000       0.910563024400      54.721652000000
       328    2       86.743250000000       4.552836975600      51.278348000000
       329    2       86.743250000000       6.373963024400      54.721652000000
       330    2       83.588950000000      10.016236975600      51.278348000000
       331    2       83.588950000000       4.552836975600      51.278348000000
       332    2       86.743250000000      10.016236975600      51.278348000000
       333    1       82.011800000000      10.926800000000      53.000000000000
       334    1       85.166100000000       5.463400000000      53.000000000000
       335    2       85.166100000000       3.642263024400      54.721652000000
       336    2       88.320400000000       9.105663024400      54.721652000000
       337    1       91.474700000000      10.926800000000      53.000000000000
       338    1       88.320400000000       5.463400000000      53.000000000000
       339    2       93.051850000000       0.910563024400      54.721652000000
       340    2       89.897550000000       6.373963024400      54.721652000000
       341    1       89.897550000000       2.731700000000      53.000000000000
       342    1       93.051850000000       8.195100000000      53.000000000000
       343    2       88.320400000000       3.642263024400      54.721652000000
       344    2       91.474700000000       9.105663024400      54.721652000000
       345    2       88.320400000000       1.821136975600      51.278348000000
       346    2       91.474700000000       7.284536975600      51.278348000000
       347    2       91.474700000000       1.821136975600      51.278348000000
       348    2       88.320400000000       7.284536975600      51.278348000000
       349    1       93.051850000000       2.731700000000      53.000000000000
       350    1       89.897550000000       8.195100000000      53.000000000000
       351    2       89.897550000000       0.910563024400      54.721652000000
       352    2       93.051850000000       4.552836975600      51.278348000000
       353    2       93.051850000000       6.373963024400      54.721652000000
       354    2       89.897550000000      10.016236975600      51.278348000000
       355    2       89.897550000000       4.552836975600      51.278348000000
       356    2       93.051850000000      10.016236975600      51.278348000000
       357    1       88.320400000000      10.926800000000      53.000000000000
       358    1       91.474700000000       5.463400000000      53.000000000000
       359    2       91.474700000000       3.642263024400      54.721652000000
       360    2       94.629000000000       9.105663024400      54.721652000000
       361    1       97.783300000000      10.926800000000      53.000000000000
       362    1       94.629000000000       5.463400000000      53.000000000000
       363    2       99.360450000000       0.910563024400      54.721652000000
       364    2       96.206150000000       6.373963024400      54.721652000000
       365    1       96.206150000000       2.731700000000      53.000000000000
       366    1       99.360450000000       8.195100000000      53.000000000000
       367    2       94.629000000000       3.642263024400      54.721652000000
       368    2       97.783300000000       9.105663024400      54.721652000000
       369    2       94.629000000000       1.821136975600      51.278348000000
       370    2       97.783300000000       7.284536975600      51.278348000000