 # Ti8 Te16
  
        2496  atoms
           2  atom types
 
      0.000000000000      97.350500000000  xlo xhi
      0.000000000000     103.764000000000  ylo yhi
      0.000000000000      18.458700000000  zlo zhi
 
Masses
 
            1   47.86700000             # Ti
            2   127.60000000            # Te
 
Atoms # atomic
 
         1    1        0.000000000000      12.970500000000       9.229350000000
         2    1        3.744250000000       6.485250000000       9.229350000000
         3    2        3.744250000000       4.323495676500      10.974195534900
         4    2        0.000000000000      10.808745676500      10.974195534900
         5    1        1.872125000000       3.242625000000       9.229350000000
         6    2        0.000000000000       4.323495676500      10.974195534900
         7    1        5.616375000000       3.242625000000       9.229350000000
         8    2        3.744250000000      10.808745676500      10.974195534900
         9    1        5.616375000000       9.727875000000       9.229350000000
        10    1        1.872125000000       9.727875000000       9.229350000000
        11    2        5.616375000000       1.080870676500      10.974195534900
        12    2        1.872125000000       7.566120676500      10.974195534900
        13    2        5.616375000000       5.404379323500       7.484504465100
        14    2        1.872125000000      11.889629323500       7.484504465100
        15    2        1.872125000000       5.404379323500       7.484504465100
        16    2        5.616375000000      11.889629323500       7.484504465100
        17    1        3.744250000000      12.970500000000       9.229350000000
        18    1        0.000000000000       6.485250000000       9.229350000000
        19    2        7.488500000000       2.161754323500       7.484504465100
        20    2        3.744250000000       8.647004323500       7.484504465100
        21    2        1.872125000000       1.080870676500      10.974195534900
        22    2        5.616375000000       7.566120676500      10.974195534900
        23    2        3.744250000000       2.161754323500       7.484504465100
        24    2        7.488500000000       8.647004323500       7.484504465100
        25    1        7.488500000000      12.970500000000       9.229350000000
        26    1       11.232750000000       6.485250000000       9.229350000000
        27    2       11.232750000000       4.323495676500      10.974195534900
        28    2        7.488500000000      10.808745676500      10.974195534900
        29    1        9.360625000000       3.242625000000       9.229350000000
        30    2        7.488500000000       4.323495676500      10.974195534900
        31    1       13.104875000000       3.242625000000       9.229350000000
        32    2       11.232750000000      10.808745676500      10.974195534900
        33    1       13.104875000000       9.727875000000       9.229350000000
        34    1        9.360625000000       9.727875000000       9.229350000000
        35    2       13.104875000000       1.080870676500      10.974195534900
        36    2        9.360625000000       7.566120676500      10.974195534900
        37    2       13.104875000000       5.404379323500       7.484504465100
        38    2        9.360625000000      11.889629323500       7.484504465100
        39    2        9.360625000000       5.404379323500       7.484504465100
        40    2       13.104875000000      11.889629323500       7.484504465100
        41    1       11.232750000000      12.970500000000       9.229350000000
        42    1        7.488500000000       6.485250000000       9.229350000000
        43    2       14.977000000000       2.161754323500       7.484504465100
        44    2       11.232750000000       8.647004323500       7.484504465100
        45    2        9.360625000000       1.080870676500      10.974195534900
        46    2       13.104875000000       7.566120676500      10.974195534900
        47    2       11.232750000000       2.161754323500       7.484504465100
        48    2       14.977000000000       8.647004323500       7.484504465100
        49    1       14.977000000000      12.970500000000       9.229350000000
        50    1       18.721250000000       6.485250000000       9.229350000000
        51    2       18.721250000000       4.323495676500      10.974195534900
        52    2       14.977000000000      10.808745676500      10.974195534900
        53    1       16.849125000000       3.242625000000       9.229350000000
        54    2       14.977000000000       4.323495676500      10.974195534900
        55    1       20.593375000000       3.242625000000       9.229350000000
        56    2       18.721250000000      10.808745676500      10.974195534900
        57    1       20.593375000000       9.727875000000       9.229350000000
        58    1       16.849125000000       9.727875000000       9.229350000000
        59    2       20.593375000000       1.080870676500      10.974195534900
        60    2       16.849125000000       7.566120676500      10.974195534900
        61    2       20.593375000000       5.404379323500       7.484504465100
        62    2       16.849125000000      11.889629323500       7.484504465100
        63    2       16.849125000000       5.404379323500       7.484504465100
        64    2       20.593375000000      11.889629323500       7.484504465100
        65    1       18.721250000000      12.970500000000       9.229350000000
        66    1       14.977000000000       6.485250000000       9.229350000000
        67    2       22.465500000000       2.161754323500       7.484504465100
        68    2       18.721250000000       8.647004323500       7.484504465100
        69    2       16.849125000000       1.080870676500      10.974195534900
        70    2       20.593375000000       7.566120676500      10.974195534900
        71    2       18.721250000000       2.161754323500       7.484504465100
        72    2       22.465500000000       8.647004323500       7.484504465100
        73    1       22.465500000000      12.970500000000       9.229350000000
        74    1       26.209750000000       6.485250000000       9.229350000000
        75    2       26.209750000000       4.323495676500      10.974195534900
        76    2       22.465500000000      10.808745676500      10.974195534900
        77    1       24.337625000000       3.242625000000       9.229350000000
        78    2       22.465500000000       4.323495676500      10.974195534900
        79    1       28.081875000000       3.242625000000       9.229350000000
        80    2       26.209750000000      10.808745676500      10.974195534900
        81    1       28.081875000000       9.727875000000       9.229350000000
        82    1       24.337625000000       9.727875000000       9.229350000000
        83    2       28.081875000000       1.080870676500      10.974195534900
        84    2       24.337625000000       7.566120676500      10.974195534900
        85    2       28.081875000000       5.404379323500       7.484504465100
        86    2       24.337625000000      11.889629323500       7.484504465100
        87    2       24.337625000000       5.404379323500       7.484504465100
        88    2       28.081875000000      11.889629323500       7.484504465100
        89    1       26.209750000000      12.970500000000       9.229350000000
        90    1       22.465500000000       6.485250000000       9.229350000000
        91    2       29.954000000000       2.161754323500       7.484504465100
        92    2       26.209750000000       8.647004323500       7.484504465100
        93    2       24.337625000000       1.080870676500      10.974195534900
        94    2       28.081875000000       7.566120676500      10.974195534900
        95    2       26.209750000000       2.161754323500       7.484504465100
        96    2       29.954000000000       8.647004323500       7.484504465100
        97    1       29.954000000000      12.970500000000       9.229350000000
        98    1       33.698250000000       6.485250000000       9.229350000000
        99    2       33.698250000000       4.323495676500      10.974195534900
       100    2       29.954000000000      10.808745676500      10.974195534900
       101    1       31.826125000000       3.242625000000       9.229350000000
       102    2       29.954000000000       4.323495676500      10.974195534900
       103    1       35.570375000000       3.242625000000       9.229350000000
       104    2       33.698250000000      10.808745676500      10.974195534900
       105    1       35.570375000000       9.727875000000       9.229350000000
       106    1       31.826125000000       9.727875000000       9.229350000000
       107    2       35.570375000000       1.080870676500      10.974195534900
       108    2       31.826125000000       7.566120676500      10.974195534900
       109    2       35.570375000000       5.404379323500       7.484504465100
       110    2       31.826125000000      11.889629323500       7.484504465100
       111    2       31.826125000000       5.404379323500       7.484504465100
       112    2       35.570375000000      11.889629323500       7.484504465100
       113    1       33.698250000000      12.970500000000       9.229350000000
       114    1       29.954000000000       6.485250000000       9.229350000000
       115    2       37.442500000000       2.161754323500       7.484504465100
       116    2       33.698250000000       8.647004323500       7.484504465100
       117    2       31.826125000000       1.080870676500      10.974195534900
       118    2       35.570375000000       7.566120676500      10.974195534900
       119    2       33.698250000000       2.161754323500       7.484504465100
       120    2       37.442500000000       8.647004323500       7.484504465100
       121    1       37.442500000000      12.970500000000       9.229350000000
       122    1       41.186750000000       6.485250000000       9.229350000000
       123    2       41.186750000000       4.323495676500      10.974195534900
       124    2       37.442500000000      10.808745676500      10.974195534900
       125    1       39.314625000000       3.242625000000       9.229350000000
       126    2       37.442500000000       4.323495676500      10.974195534900
       127    1       43.058875000000       3.242625000000       9.229350000000
       128    2       41.186750000000      10.808745676500      10.974195534900
       129    1       43.058875000000       9.727875000000       9.229350000000
       130    1       39.314625000000       9.727875000000       9.229350000000
       131    2       43.058875000000       1.080870676500      10.974195534900
       132    2       39.314625000000       7.566120676500      10.974195534900
       133    2       43.058875000000       5.404379323500       7.484504465100
       134    2       39.314625000000      11.889629323500       7.484504465100
       135    2       39.314625000000       5.404379323500       7.484504465100
       136    2       43.058875000000      11.889629323500       7.484504465100
       137    1       41.186750000000      12.970500000000       9.229350000000
       138    1       37.442500000000       6.485250000000       9.229350000000
       139    2       44.931000000000       2.161754323500       7.484504465100
       140    2       41.186750000000       8.647004323500       7.484504465100
       141    2       39.314625000000       1.080870676500      10.974195534900
       142    2       43.058875000000       7.566120676500      10.974195534900
       143    2       41.186750000000       2.161754323500       7.484504465100
       144    2       44.931000000000       8.647004323500       7.484504465100
       145    1       44.931000000000      12.970500000000       9.229350000000
       146    1       48.675250000000       6.485250000000       9.229350000000
       147    2       48.675250000000       4.323495676500      10.974195534900
       148    2       44.931000000000      10.808745676500      10.974195534900
       149    1       46.803125000000       3.242625000000       9.229350000000
       150    2       44.931000000000       4.323495676500      10.974195534900
       151    1       50.547375000000       3.242625000000       9.229350000000
       152    2       48.675250000000      10.808745676500      10.974195534900
       153    1       50.547375000000       9.727875000000       9.229350000000
       154    1       46.803125000000       9.727875000000       9.229350000000
       155    2       50.547375000000       1.080870676500      10.974195534900
       156    2       46.803125000000       7.566120676500      10.974195534900
       157    2       50.547375000000       5.404379323500       7.484504465100
       158    2       46.803125000000      11.889629323500       7.484504465100
       159    2       46.803125000000       5.404379323500       7.484504465100
       160    2       50.547375000000      11.889629323500       7.484504465100
       161    1       48.675250000000      12.970500000000       9.229350000000
       162    1       44.931000000000       6.485250000000       9.229350000000
       163    2       52.419500000000       2.161754323500       7.484504465100
       164    2       48.675250000000       8.647004323500       7.484504465100
       165    2       46.803125000000       1.080870676500      10.974195534900
       166    2       50.547375000000       7.566120676500      10.974195534900
       167    2       48.675250000000       2.161754323500       7.484504465100
       168    2       52.419500000000       8.647004323500       7.484504465100
       169    1       52.419500000000      12.970500000000       9.229350000000
       170    1       56.163750000000       6.485250000000       9.229350000000
       171    2       56.163750000000       4.323495676500      10.974195534900
       172    2       52.419500000000      10.808745676500      10.974195534900
       173    1       54.291625000000       3.242625000000       9.229350000000
       174    2       52.419500000000       4.323495676500      10.974195534900
       175    1       58.035875000000       3.242625000000       9.229350000000
       176    2       56.163750000000      10.808745676500      10.974195534900
       177    1       58.035875000000       9.727875000000       9.229350000000
       178    1       54.291625000000       9.727875000000       9.229350000000
       179    2       58.035875000000       1.080870676500      10.974195534900
       180    2       54.291625000000       7.566120676500      10.974195534900
       181    2       58.035875000000       5.404379323500       7.484504465100
       182    2       54.291625000000      11.889629323500       7.484504465100
       183    2       54.291625000000       5.404379323500       7.484504465100
       184    2       58.035875000000      11.889629323500       7.484504465100
       185    1       56.163750000000      12.970500000000       9.229350000000
       186    1       52.419500000000       6.485250000000       9.229350000000
       187    2       59.908000000000       2.161754323500       7.484504465100
       188    2       56.163750000000       8.647004323500       7.484504465100
       189    2       54.291625000000       1.080870676500      10.974195534900
       190    2       58.035875000000       7.566120676500      10.974195534900
       191    2       56.163750000000       2.161754323500       7.484504465100
       192    2       59.908000000000       8.647004323500       7.484504465100
       193    1       59.908000000000      12.970500000000       9.229350000000
       194    1       63.652250000000       6.485250000000       9.229350000000
       195    2       63.652250000000       4.323495676500      10.974195534900
       196    2       59.908000000000      10.808745676500      10.974195534900
       197    1       61.780125000000       3.242625000000       9.229350000000
       198    2       59.908000000000       4.323495676500      10.974195534900
       199    1       65.524375000000       3.242625000000       9.229350000000
       200    2       63.652250000000      10.808745676500      10.974195534900
       201    1       65.524375000000       9.727875000000       9.229350000000
       202    1       61.780125000000       9.727875000000       9.229350000000
       203    2       65.524375000000       1.080870676500      10.974195534900
       204    2       61.780125000000       7.566120676500      10.974195534900
       205    2       65.524375000000       5.404379323500       7.484504465100
       206    2       61.780125000000      11.889629323500       7.484504465100
       207    2       61.780125000000       5.404379323500       7.484504465100
       208    2       65.524375000000      11.889629323500       7.484504465100
       209    1       63.652250000000      12.970500000000       9.229350000000
       210    1       59.908000000000       6.485250000000       9.229350000000
       211    2       67.396500000000       2.161754323500       7.484504465100
       212    2       63.652250000000       8.647004323500       7.484504465100
       213    2       61.780125000000       1.080870676500      10.974195534900
       214    2       65.524375000000       7.566120676500      10.974195534900
       215    2       63.652250000000       2.161754323500       7.484504465100
       216    2       67.396500000000       8.647004323500       7.484504465100
       217    1       67.396500000000      12.970500000000       9.229350000000
       218    1       71.140750000000       6.485250000000       9.229350000000
       219    2       71.140750000000       4.323495676500      10.974195534900
       220    2       67.396500000000      10.808745676500      10.974195534900
       221    1       69.268625000000       3.242625000000       9.229350000000
       222    2       67.396500000000       4.323495676500      10.974195534900
       223    1       73.012875000000       3.242625000000       9.229350000000
       224    2       71.140750000000      10.808745676500      10.974195534900
       225    1       73.012875000000       9.727875000000       9.229350000000
       226    1       69.268625000000       9.727875000000       9.229350000000
       227    2       73.012875000000       1.080870676500      10.974195534900
       228    2       69.268625000000       7.566120676500      10.974195534900
       229    2       73.012875000000       5.404379323500       7.484504465100
       230    2       69.268625000000      11.889629323500       7.484504465100
       231    2       69.268625000000       5.404379323500       7.484504465100
       232    2       73.012875000000      11.889629323500       7.484504465100
       233    1       71.140750000000      12.970500000000       9.229350000000
       234    1       67.396500000000       6.485250000000       9.229350000000
       235    2       74.885000000000       2.161754323500       7.484504465100
       236    2       71.140750000000       8.647004323500       7.484504465100
       237    2       69.268625000000       1.080870676500      10.974195534900
       238    2       73.012875000000       7.566120676500      10.974195534900
       239    2       71.140750000000       2.161754323500       7.484504465100
       240    2       74.885000000000       8.647004323500       7.484504465100
       241    1       74.885000000000      12.970500000000       9.229350000000
       242    1       78.629250000000       6.485250000000       9.229350000000
       243    2       78.629250000000       4.323495676500      10.974195534900
       244    2       74.885000000000      10.808745676500      10.974195534900
       245    1       76.757125000000       3.242625000000       9.229350000000
       246    2       74.885000000000       4.323495676500      10.974195534900
       247    1       80.501375000000       3.242625000000       9.229350000000
       248    2       78.629250000000      10.808745676500      10.974195534900
       249    1       80.501375000000       9.727875000000       9.229350000000
       250    1       76.757125000000       9.727875000000       9.229350000000
       251    2       80.501375000000       1.080870676500      10.974195534900
       252    2       76.757125000000       7.566120676500      10.974195534900
       253    2       80.501375000000       5.404379323500       7.484504465100
       254    2       76.757125000000      11.889629323500       7.484504465100
       255    2       76.757125000000       5.404379323500       7.484504465100
       256    2       80.501375000000      11.889629323500       7.484504465100
       257    1       78.629250000000      12.970500000000       9.229350000000
       258    1       74.885000000000       6.485250000000       9.229350000000
       259    2       82.373500000000       2.161754323500       7.484504465100
       260    2       78.629250000000       8.647004323500       7.484504465100
       261    2       76.757125000000       1.080870676500      10.974195534900
       262    2       80.501375000000       7.566120676500      10.974195534900
       263    2       78.629250000000       2.161754323500       7.484504465100
       264    2       82.373500000000       8.647004323500       7.484504465100
       265    1       82.373500000000      12.970500000000       9.229350000000
       266    1       86.117750000000       6.485250000000       9.229350000000
       267    2       86.117750000000       4.323495676500      10.974195534900
       268    2       82.373500000000      10.808745676500      10.974195534900
       269    1       84.245625000000       3.242625000000       9.229350000000
       270    2       82.373500000000       4.323495676500      10.974195534900
       271    1       87.989875000000       3.242625000000       9.229350000000
       272    2       86.117750000000      10.808745676500      10.974195534900
       273    1       87.989875000000       9.727875000000       9.229350000000
       274    1       84.245625000000       9.727875000000       9.229350000000
       275    2       87.989875000000       1.080870676500      10.974195534900
       276    2       84.245625000000       7.566120676500      10.974195534900
       277    2       87.989875000000       5.404379323500       7.484504465100
       278    2       84.245625000000      11.889629323500       7.484504465100
       279    2       84.245625000000       5.404379323500       7.484504465100
       280    2       87.989875000000      11.889629323500       7.484504465100
       281    1       86.117750000000      12.970500000000       9.229350000000
       282    1       82.373500000000       6.485250000000       9.229350000000
       283    2       89.862000000000       2.161754323500       7.484504465100
       284    2       86.117750000000       8.647004323500       7.484504465100
       285    2       84.245625000000       1.080870676500      10.974195534900
       286    2       87.989875000000       7.566120676500      10.974195534900
       287    2       86.117750000000       2.161754323500       7.484504465100
       288    2       89.862000000000       8.647004323500       7.484504465100
       289    1       89.862000000000      12.970500000000       9.229350000000
       290    1       93.606250000000       6.485250000000       9.229350000000
       291    2       93.606250000000       4.323495676500      10.974195534900
       292    2       89.862000000000      10.808745676500      10.974195534900
       293    1       91.734125000000       3.242625000000       9.229350000000
       294    2       89.862000000000       4.323495676500      10.974195534900
       295    1       95.478375000000       3.242625000000       9.229350000000
       296    2       93.606250000000      10.808745676500      10.974195534900
       297    1       95.478375000000       9.727875000000       9.229350000000
       298    1       91.734125000000       9.727875000000       9.229350000000
       299    2       95.478375000000       1.080870676500      10.974195534900
       300    2       91.734125000000       7.566120676500      10.974195534900
       301    2       95.478375000000       5.404379323500       7.484504465100
       302    2       91.734125000000      11.889629323500       7.484504465100
       303    2       91.734125000000       5.404379323500       7.484504465100
       304    2       95.478375000000      11.889629323500       7.484504465100
       305    1       93.606250000000      12.970500000000       9.229350000000
       306    1       89.862000000000       6.485250000000       9.229350000000
       307    2       97.350500000000       2.161754323500       7.484504465100
       308    2       93.606250000000       8.647004323500       7.484504465100
       309    2       91.734125000000       1.080870676500      10.974195534900
       310    2       95.478375000000       7.566120676500      10.974195534900
       311    2       93.606250000000       2.161754323500       7.484504465100
       312    2       97.350500000000       8.647004323500       7.484504465100
       313    1        0.000000000000      25.941000000000       9.229350000000
       314    1        3.744250000000      19.455750000000       9.229350000000
       315    2        3.744250000000      17.293995676500      10.974195534900
       316    2        0.000000000000      23.779245676500      10.974195534900
       317    1        1.872125000000      16.213125000000       9.229350000000
       318    2        0.000000000000      17.293995676500      10.974195534900
       319    1        5.616375000000      16.213125000000       9.229350000000
       320    2        3.744250000000      23.779245676500      10.974195534900
       321    1        5.616375000000      22.698375000000       9.229350000000
       322    1        1.872125000000      22.698375000000       9.229350000000
       323    2        5.616375000000      14.051370676500      10.974195534900
       324    2        1.872125000000      20.536620676500      10.974195534900
       325    2        5.616375000000      18.374879323500       7.484504465100
       326    2        1.872125000000      24.860129323500       7.484504465100
       327    2        1.872125000000      18.374879323500       7.484504465100
       328    2        5.616375000000      24.860129323500       7.484504465100
       329    1        3.744250000000      25.941000000000       9.229350000000
       330    1        0.000000000000      19.455750000000       9.229350000000
       331    2        7.488500000000      15.132254323500       7.484504465100
       332    2        3.744250000000      21.617504323500       7.484504465100
       333    2        1.872125000000      14.051370676500      10.974195534900
       334    2        5.616375000000      20.536620676500      10.974195534900
       335    2        3.744250000000      15.132254323500       7.484504465100
       336    2        7.488500000000      21.617504323500       7.484504465100
       337    1        7.488500000000      25.941000000000       9.229350000000
       338    1       11.232750000000      19.455750000000       9.229350000000
       339    2       11.232750000000      17.293995676500      10.974195534900
       340    2        7.488500000000      23.779245676500      10.974195534900
       341    1        9.360625000000      16.213125000000       9.229350000000
       342    2        7.488500000000      17.293995676500      10.974195534900
       343    1       13.104875000000      16.213125000000       9.229350000000
       344    2       11.232750000000      23.779245676500      10.974195534900
       345    1       13.104875000000      22.698375000000       9.229350000000
       346    1        9.360625000000      22.698375000000       9.229350000000
       347    2       13.104875000000      14.051370676500      10.974195534900
       348    2        9.360625000000      20.536620676500      10.974195534900
       349    2       13.104875000000      18.374879323500       7.484504465100
       350    2        9.360625000000      24.860129323500       7.484504465100
       351    2        9.360625000000      18.374879323500       7.484504465100
       352    2       13.104875000000      24.860129323500       7.484504465100
       353    1       11.232750000000      25.941000000000       9.229350000000
       354    1        7.488500000000      19.455750000000       9.229350000000
       355    2       14.977000000000      15.132254323500       7.484504465100
       356    2       11.232750000000      21.617504323500       7.484504465100
       357    2        9.360625000000      14.051370676500      10.974195534900
       358    2       13.104875000000      20.536620676500      10.974195534900
       359    2       11.232750000000      15.132254323500       7.484504465100
       360    2       14.977000000000      21.617504323500       7.484504465100
       361    1       14.977000000000      25.941000000000       9.229350000000
       362    1       18.721250000000      19.455750000000       9.229350000000
       363    2       18.721250000000      17.293995676500      10.974195534900
       364    2       14.977000000000      23.779245676500      10.974195534900
       365    1       16.849125000000      16.213125000000       9.229350000000
       366    2       14.977000000000      17.293995676500      10.974195534900
       367    1       20.593375000000      16.213125000000       9.229350000000
       368    2       18.721250000000      23.779245676500      10.974195534900
       369    1       20.593375000000      22.698375000000       9.229350000000
       370    1       16.849125000000      22.698375000000       9.229350000000