 # Ti8 S16
  
        2880  atoms
           2  atom types
 
      0.000000000000     102.432000000000  xlo xhi
      0.000000000000      94.622400000000  ylo yhi
      0.000000000000      17.847400000000  zlo zhi
 
Masses
 
            1   47.86700000             # Ti
            2   32.06000000             # S
 
Atoms # atomic
 
         1    1        5.121600000000       2.956950000000       8.923700000000
         2    1        1.707200000000       8.870850000000       8.923700000000
         3    1        0.000000000000       0.000000000000       8.923700000000
         4    1        3.414400000000       5.913900000000       8.923700000000
         5    1        1.707200000000       2.956950000000       8.923700000000
         6    1        5.121600000000       8.870850000000       8.923700000000
         7    2        0.000000000000       1.971303942600       7.500923119400
         8    2        3.414400000000       7.885203942600       7.500923119400
         9    2        5.121600000000       4.928253942600       7.500923119400
        10    2        1.707200000000       4.928253942600       7.500923119400
        11    2        1.707200000000      10.842153942600       7.500923119400
        12    2        5.121600000000      10.842153942600       7.500923119400
        13    2        1.707200000000       0.985646057400      10.346476880600
        14    2        5.121600000000       6.899546057400      10.346476880600
        15    2        5.121600000000       0.985646057400      10.346476880600
        16    2        1.707200000000       6.899546057400      10.346476880600
        17    2        0.000000000000       3.942596057400      10.346476880600
        18    2        3.414400000000       9.856496057400      10.346476880600
        19    1        3.414400000000       0.000000000000       8.923700000000
        20    1        0.000000000000       5.913900000000       8.923700000000
        21    2        3.414400000000       1.971303942600       7.500923119400
        22    2        0.000000000000       7.885203942600       7.500923119400
        23    2        3.414400000000       3.942596057400      10.346476880600
        24    2        0.000000000000       9.856496057400      10.346476880600
        25    1       11.950400000000       2.956950000000       8.923700000000
        26    1        8.536000000000       8.870850000000       8.923700000000
        27    1        6.828800000000       0.000000000000       8.923700000000
        28    1       10.243200000000       5.913900000000       8.923700000000
        29    1        8.536000000000       2.956950000000       8.923700000000
        30    1       11.950400000000       8.870850000000       8.923700000000
        31    2        6.828800000000       1.971303942600       7.500923119400
        32    2       10.243200000000       7.885203942600       7.500923119400
        33    2       11.950400000000       4.928253942600       7.500923119400
        34    2        8.536000000000       4.928253942600       7.500923119400
        35    2        8.536000000000      10.842153942600       7.500923119400
        36    2       11.950400000000      10.842153942600       7.500923119400
        37    2        8.536000000000       0.985646057400      10.346476880600
        38    2       11.950400000000       6.899546057400      10.346476880600
        39    2       11.950400000000       0.985646057400      10.346476880600
        40    2        8.536000000000       6.899546057400      10.346476880600
        41    2        6.828800000000       3.942596057400      10.346476880600
        42    2       10.243200000000       9.856496057400      10.346476880600
        43    1       10.243200000000       0.000000000000       8.923700000000
        44    1        6.828800000000       5.913900000000       8.923700000000
        45    2       10.243200000000       1.971303942600       7.500923119400
        46    2        6.828800000000       7.885203942600       7.500923119400
        47    2       10.243200000000       3.942596057400      10.346476880600
        48    2        6.828800000000       9.856496057400      10.346476880600
        49    1       18.779200000000       2.956950000000       8.923700000000
        50    1       15.364800000000       8.870850000000       8.923700000000
        51    1       13.657600000000       0.000000000000       8.923700000000
        52    1       17.072000000000       5.913900000000       8.923700000000
        53    1       15.364800000000       2.956950000000       8.923700000000
        54    1       18.779200000000       8.870850000000       8.923700000000
        55    2       13.657600000000       1.971303942600       7.500923119400
        56    2       17.072000000000       7.885203942600       7.500923119400
        57    2       18.779200000000       4.928253942600       7.500923119400
        58    2       15.364800000000       4.928253942600       7.500923119400
        59    2       15.364800000000      10.842153942600       7.500923119400
        60    2       18.779200000000      10.842153942600       7.500923119400
        61    2       15.364800000000       0.985646057400      10.346476880600
        62    2       18.779200000000       6.899546057400      10.346476880600
        63    2       18.779200000000       0.985646057400      10.346476880600
        64    2       15.364800000000       6.899546057400      10.346476880600
        65    2       13.657600000000       3.942596057400      10.346476880600
        66    2       17.072000000000       9.856496057400      10.346476880600
        67    1       17.072000000000       0.000000000000       8.923700000000
        68    1       13.657600000000       5.913900000000       8.923700000000
        69    2       17.072000000000       1.971303942600       7.500923119400
        70    2       13.657600000000       7.885203942600       7.500923119400
        71    2       17.072000000000       3.942596057400      10.346476880600
        72    2       13.657600000000       9.856496057400      10.346476880600
        73    1       25.608000000000       2.956950000000       8.923700000000
        74    1       22.193600000000       8.870850000000       8.923700000000
        75    1       20.486400000000       0.000000000000       8.923700000000
        76    1       23.900800000000       5.913900000000       8.923700000000
        77    1       22.193600000000       2.956950000000       8.923700000000
        78    1       25.608000000000       8.870850000000       8.923700000000
        79    2       20.486400000000       1.971303942600       7.500923119400
        80    2       23.900800000000       7.885203942600       7.500923119400
        81    2       25.608000000000       4.928253942600       7.500923119400
        82    2       22.193600000000       4.928253942600       7.500923119400
        83    2       22.193600000000      10.842153942600       7.500923119400
        84    2       25.608000000000      10.842153942600       7.500923119400
        85    2       22.193600000000       0.985646057400      10.346476880600
        86    2       25.608000000000       6.899546057400      10.346476880600
        87    2       25.608000000000       0.985646057400      10.346476880600
        88    2       22.193600000000       6.899546057400      10.346476880600
        89    2       20.486400000000       3.942596057400      10.346476880600
        90    2       23.900800000000       9.856496057400      10.346476880600
        91    1       23.900800000000       0.000000000000       8.923700000000
        92    1       20.486400000000       5.913900000000       8.923700000000
        93    2       23.900800000000       1.971303942600       7.500923119400
        94    2       20.486400000000       7.885203942600       7.500923119400
        95    2       23.900800000000       3.942596057400      10.346476880600
        96    2       20.486400000000       9.856496057400      10.346476880600
        97    1       32.436800000000       2.956950000000       8.923700000000
        98    1       29.022400000000       8.870850000000       8.923700000000
        99    1       27.315200000000       0.000000000000       8.923700000000
       100    1       30.729600000000       5.913900000000       8.923700000000
       101    1       29.022400000000       2.956950000000       8.923700000000
       102    1       32.436800000000       8.870850000000       8.923700000000
       103    2       27.315200000000       1.971303942600       7.500923119400
       104    2       30.729600000000       7.885203942600       7.500923119400
       105    2       32.436800000000       4.928253942600       7.500923119400
       106    2       29.022400000000       4.928253942600       7.500923119400
       107    2       29.022400000000      10.842153942600       7.500923119400
       108    2       32.436800000000      10.842153942600       7.500923119400
       109    2       29.022400000000       0.985646057400      10.346476880600
       110    2       32.436800000000       6.899546057400      10.346476880600
       111    2       32.436800000000       0.985646057400      10.346476880600
       112    2       29.022400000000       6.899546057400      10.346476880600
       113    2       27.315200000000       3.942596057400      10.346476880600
       114    2       30.729600000000       9.856496057400      10.346476880600
       115    1       30.729600000000       0.000000000000       8.923700000000
       116    1       27.315200000000       5.913900000000       8.923700000000
       117    2       30.729600000000       1.971303942600       7.500923119400
       118    2       27.315200000000       7.885203942600       7.500923119400
       119    2       30.729600000000       3.942596057400      10.346476880600
       120    2       27.315200000000       9.856496057400      10.346476880600
       121    1       39.265600000000       2.956950000000       8.923700000000
       122    1       35.851200000000       8.870850000000       8.923700000000
       123    1       34.144000000000       0.000000000000       8.923700000000
       124    1       37.558400000000       5.913900000000       8.923700000000
       125    1       35.851200000000       2.956950000000       8.923700000000
       126    1       39.265600000000       8.870850000000       8.923700000000
       127    2       34.144000000000       1.971303942600       7.500923119400
       128    2       37.558400000000       7.885203942600       7.500923119400
       129    2       39.265600000000       4.928253942600       7.500923119400
       130    2       35.851200000000       4.928253942600       7.500923119400
       131    2       35.851200000000      10.842153942600       7.500923119400
       132    2       39.265600000000      10.842153942600       7.500923119400
       133    2       35.851200000000       0.985646057400      10.346476880600
       134    2       39.265600000000       6.899546057400      10.346476880600
       135    2       39.265600000000       0.985646057400      10.346476880600
       136    2       35.851200000000       6.899546057400      10.346476880600
       137    2       34.144000000000       3.942596057400      10.346476880600
       138    2       37.558400000000       9.856496057400      10.346476880600
       139    1       37.558400000000       0.000000000000       8.923700000000
       140    1       34.144000000000       5.913900000000       8.923700000000
       141    2       37.558400000000       1.971303942600       7.500923119400
       142    2       34.144000000000       7.885203942600       7.500923119400
       143    2       37.558400000000       3.942596057400      10.346476880600
       144    2       34.144000000000       9.856496057400      10.346476880600
       145    1       46.094400000000       2.956950000000       8.923700000000
       146    1       42.680000000000       8.870850000000       8.923700000000
       147    1       40.972800000000       0.000000000000       8.923700000000
       148    1       44.387200000000       5.913900000000       8.923700000000
       149    1       42.680000000000       2.956950000000       8.923700000000
       150    1       46.094400000000       8.870850000000       8.923700000000
       151    2       40.972800000000       1.971303942600       7.500923119400
       152    2       44.387200000000       7.885203942600       7.500923119400
       153    2       46.094400000000       4.928253942600       7.500923119400
       154    2       42.680000000000       4.928253942600       7.500923119400
       155    2       42.680000000000      10.842153942600       7.500923119400
       156    2       46.094400000000      10.842153942600       7.500923119400
       157    2       42.680000000000       0.985646057400      10.346476880600
       158    2       46.094400000000       6.899546057400      10.346476880600
       159    2       46.094400000000       0.985646057400      10.346476880600
       160    2       42.680000000000       6.899546057400      10.346476880600
       161    2       40.972800000000       3.942596057400      10.346476880600
       162    2       44.387200000000       9.856496057400      10.346476880600
       163    1       44.387200000000       0.000000000000       8.923700000000
       164    1       40.972800000000       5.913900000000       8.923700000000
       165    2       44.387200000000       1.971303942600       7.500923119400
       166    2       40.972800000000       7.885203942600       7.500923119400
       167    2       44.387200000000       3.942596057400      10.346476880600
       168    2       40.972800000000       9.856496057400      10.346476880600
       169    1       52.923200000000       2.956950000000       8.923700000000
       170    1       49.508800000000       8.870850000000       8.923700000000
       171    1       47.801600000000       0.000000000000       8.923700000000
       172    1       51.216000000000       5.913900000000       8.923700000000
       173    1       49.508800000000       2.956950000000       8.923700000000
       174    1       52.923200000000       8.870850000000       8.923700000000
       175    2       47.801600000000       1.971303942600       7.500923119400
       176    2       51.216000000000       7.885203942600       7.500923119400
       177    2       52.923200000000       4.928253942600       7.500923119400
       178    2       49.508800000000       4.928253942600       7.500923119400
       179    2       49.508800000000      10.842153942600       7.500923119400
       180    2       52.923200000000      10.842153942600       7.500923119400
       181    2       49.508800000000       0.985646057400      10.346476880600
       182    2       52.923200000000       6.899546057400      10.346476880600
       183    2       52.923200000000       0.985646057400      10.346476880600
       184    2       49.508800000000       6.899546057400      10.346476880600
       185    2       47.801600000000       3.942596057400      10.346476880600
       186    2       51.216000000000       9.856496057400      10.346476880600
       187    1       51.216000000000       0.000000000000       8.923700000000
       188    1       47.801600000000       5.913900000000       8.923700000000
       189    2       51.216000000000       1.971303942600       7.500923119400
       190    2       47.801600000000       7.885203942600       7.500923119400
       191    2       51.216000000000       3.942596057400      10.346476880600
       192    2       47.801600000000       9.856496057400      10.346476880600
       193    1       59.752000000000       2.956950000000       8.923700000000
       194    1       56.337600000000       8.870850000000       8.923700000000
       195    1       54.630400000000       0.000000000000       8.923700000000
       196    1       58.044800000000       5.913900000000       8.923700000000
       197    1       56.337600000000       2.956950000000       8.923700000000
       198    1       59.752000000000       8.870850000000       8.923700000000
       199    2       54.630400000000       1.971303942600       7.500923119400
       200    2       58.044800000000       7.885203942600       7.500923119400
       201    2       59.752000000000       4.928253942600       7.500923119400
       202    2       56.337600000000       4.928253942600       7.500923119400
       203    2       56.337600000000      10.842153942600       7.500923119400
       204    2       59.752000000000      10.842153942600       7.500923119400
       205    2       56.337600000000       0.985646057400      10.346476880600
       206    2       59.752000000000       6.899546057400      10.346476880600
       207    2       59.752000000000       0.985646057400      10.346476880600
       208    2       56.337600000000       6.899546057400      10.346476880600
       209    2       54.630400000000       3.942596057400      10.346476880600
       210    2       58.044800000000       9.856496057400      10.346476880600
       211    1       58.044800000000       0.000000000000       8.923700000000
       212    1       54.630400000000       5.913900000000       8.923700000000
       213    2       58.044800000000       1.971303942600       7.500923119400
       214    2       54.630400000000       7.885203942600       7.500923119400
       215    2       58.044800000000       3.942596057400      10.346476880600
       216    2       54.630400000000       9.856496057400      10.346476880600
       217    1       66.580800000000       2.956950000000       8.923700000000
       218    1       63.166400000000       8.870850000000       8.923700000000
       219    1       61.459200000000       0.000000000000       8.923700000000
       220    1       64.873600000000       5.913900000000       8.923700000000
       221    1       63.166400000000       2.956950000000       8.923700000000
       222    1       66.580800000000       8.870850000000       8.923700000000
       223    2       61.459200000000       1.971303942600       7.500923119400
       224    2       64.873600000000       7.885203942600       7.500923119400
       225    2       66.580800000000       4.928253942600       7.500923119400
       226    2       63.166400000000       4.928253942600       7.500923119400
       227    2       63.166400000000      10.842153942600       7.500923119400
       228    2       66.580800000000      10.842153942600       7.500923119400
       229    2       63.166400000000       0.985646057400      10.346476880600
       230    2       66.580800000000       6.899546057400      10.346476880600
       231    2       66.580800000000       0.985646057400      10.346476880600
       232    2       63.166400000000       6.899546057400      10.346476880600
       233    2       61.459200000000       3.942596057400      10.346476880600
       234    2       64.873600000000       9.856496057400      10.346476880600
       235    1       64.873600000000       0.000000000000       8.923700000000
       236    1       61.459200000000       5.913900000000       8.923700000000
       237    2       64.873600000000       1.971303942600       7.500923119400
       238    2       61.459200000000       7.885203942600       7.500923119400
       239    2       64.873600000000       3.942596057400      10.346476880600
       240    2       61.459200000000       9.856496057400      10.346476880600
       241    1       73.409600000000       2.956950000000       8.923700000000
       242    1       69.995200000000       8.870850000000       8.923700000000
       243    1       68.288000000000       0.000000000000       8.923700000000
       244    1       71.702400000000       5.913900000000       8.923700000000
       245    1       69.995200000000       2.956950000000       8.923700000000
       246    1       73.409600000000       8.870850000000       8.923700000000
       247    2       68.288000000000       1.971303942600       7.500923119400
       248    2       71.702400000000       7.885203942600       7.500923119400
       249    2       73.409600000000       4.928253942600       7.500923119400
       250    2       69.995200000000       4.928253942600       7.500923119400
       251    2       69.995200000000      10.842153942600       7.500923119400
       252    2       73.409600000000      10.842153942600       7.500923119400
       253    2       69.995200000000       0.985646057400      10.346476880600
       254    2       73.409600000000       6.899546057400      10.346476880600
       255    2       73.409600000000       0.985646057400      10.346476880600
       256    2       69.995200000000       6.899546057400      10.346476880600
       257    2       68.288000000000       3.942596057400      10.346476880600
       258    2       71.702400000000       9.856496057400      10.346476880600
       259    1       71.702400000000       0.000000000000       8.923700000000
       260    1       68.288000000000       5.913900000000       8.923700000000
       261    2       71.702400000000       1.971303942600       7.500923119400
       262    2       68.288000000000       7.885203942600       7.500923119400
       263    2       71.702400000000       3.942596057400      10.346476880600
       264    2       68.288000000000       9.856496057400      10.346476880600
       265    1       80.238400000000       2.956950000000       8.923700000000
       266    1       76.824000000000       8.870850000000       8.923700000000
       267    1       75.116800000000       0.000000000000       8.923700000000
       268    1       78.531200000000       5.913900000000       8.923700000000
       269    1       76.824000000000       2.956950000000       8.923700000000
       270    1       80.238400000000       8.870850000000       8.923700000000
       271    2       75.116800000000       1.971303942600       7.500923119400
       272    2       78.531200000000       7.885203942600       7.500923119400
       273    2       80.238400000000       4.928253942600       7.500923119400
       274    2       76.824000000000       4.928253942600       7.500923119400
       275    2       76.824000000000      10.842153942600       7.500923119400
       276    2       80.238400000000      10.842153942600       7.500923119400
       277    2       76.824000000000       0.985646057400      10.346476880600
       278    2       80.238400000000       6.899546057400      10.346476880600
       279    2       80.238400000000       0.985646057400      10.346476880600
       280    2       76.824000000000       6.899546057400      10.346476880600
       281    2       75.116800000000       3.942596057400      10.346476880600
       282    2       78.531200000000       9.856496057400      10.346476880600
       283    1       78.531200000000       0.000000000000       8.923700000000
       284    1       75.116800000000       5.913900000000       8.923700000000
       285    2       78.531200000000       1.971303942600       7.500923119400
       286    2       75.116800000000       7.885203942600       7.500923119400
       287    2       78.531200000000       3.942596057400      10.346476880600
       288    2       75.116800000000       9.856496057400      10.346476880600
       289    1       87.067200000000       2.956950000000       8.923700000000
       290    1       83.652800000000       8.870850000000       8.923700000000
       291    1       81.945600000000       0.000000000000       8.923700000000
       292    1       85.360000000000       5.913900000000       8.923700000000
       293    1       83.652800000000       2.956950000000       8.923700000000
       294    1       87.067200000000       8.870850000000       8.923700000000
       295    2       81.945600000000       1.971303942600       7.500923119400
       296    2       85.360000000000       7.885203942600       7.500923119400
       297    2       87.067200000000       4.928253942600       7.500923119400
       298    2       83.652800000000       4.928253942600       7.500923119400
       299    2       83.652800000000      10.842153942600       7.500923119400
       300    2       87.067200000000      10.842153942600       7.500923119400
       301    2       83.652800000000       0.985646057400      10.346476880600
       302    2       87.067200000000       6.899546057400      10.346476880600
       303    2       87.067200000000       0.985646057400      10.346476880600
       304    2       83.652800000000       6.899546057400      10.346476880600
       305    2       81.945600000000       3.942596057400      10.346476880600
       306    2       85.360000000000       9.856496057400      10.346476880600
       307    1       85.360000000000       0.000000000000       8.923700000000
       308    1       81.945600000000       5.913900000000       8.923700000000
       309    2       85.360000000000       1.971303942600       7.500923119400
       310    2       81.945600000000       7.885203942600       7.500923119400
       311    2       85.360000000000       3.942596057400      10.346476880600
       312    2       81.945600000000       9.856496057400      10.346476880600
       313    1       93.896000000000       2.956950000000       8.923700000000
       314    1       90.481600000000       8.870850000000       8.923700000000
       315    1       88.774400000000       0.000000000000       8.923700000000
       316    1       92.188800000000       5.913900000000       8.923700000000
       317    1       90.481600000000       2.956950000000       8.923700000000
       318    1       93.896000000000       8.870850000000       8.923700000000
       319    2       88.774400000000       1.971303942600       7.500923119400
       320    2       92.188800000000       7.885203942600       7.500923119400
       321    2       93.896000000000       4.928253942600       7.500923119400
       322    2       90.481600000000       4.928253942600       7.500923119400
       323    2       90.481600000000      10.842153942600       7.500923119400
       324    2       93.896000000000      10.842153942600       7.500923119400
       325    2       90.481600000000       0.985646057400      10.346476880600
       326    2       93.896000000000       6.899546057400      10.346476880600
       327    2       93.896000000000       0.985646057400      10.346476880600
       328    2       90.481600000000       6.899546057400      10.346476880600
       329    2       88.774400000000       3.942596057400      10.346476880600
       330    2       92.188800000000       9.856496057400      10.346476880600
       331    1       92.188800000000       0.000000000000       8.923700000000
       332    1       88.774400000000       5.913900000000       8.923700000000
       333    2       92.188800000000       1.971303942600       7.500923119400
       334    2       88.774400000000       7.885203942600       7.500923119400
       335    2       92.188800000000       3.942596057400      10.346476880600
       336    2       88.774400000000       9.856496057400      10.346476880600
       337    1      100.724800000000       2.956950000000       8.923700000000
       338    1       97.310400000000       8.870850000000       8.923700000000
       339    1       95.603200000000       0.000000000000       8.923700000000
       340    1       99.017600000000       5.913900000000       8.923700000000
       341    1       97.310400000000       2.956950000000       8.923700000000
       342    1      100.724800000000       8.870850000000       8.923700000000
       343    2       95.603200000000       1.971303942600       7.500923119400
       344    2       99.017600000000       7.885203942600       7.500923119400
       345    2      100.724800000000       4.928253942600       7.500923119400
       346    2       97.310400000000       4.928253942600       7.500923119400
       347    2       97.310400000000      10.842153942600       7.500923119400
       348    2      100.724800000000      10.842153942600       7.500923119400
       349    2       97.310400000000       0.985646057400      10.346476880600
       350    2      100.724800000000       6.899546057400      10.346476880600
       351    2      100.724800000000       0.985646057400      10.346476880600
       352    2       97.310400000000       6.899546057400      10.346476880600
       353    2       95.603200000000       3.942596057400      10.346476880600
       354    2       99.017600000000       9.856496057400      10.346476880600
       355    1       99.017600000000       0.000000000000       8.923700000000
       356    1       95.603200000000       5.913900000000       8.923700000000
       357    2       99.017600000000       1.971303942600       7.500923119400
       358    2       95.603200000000       7.885203942600       7.500923119400
       359    2       99.017600000000       3.942596057400      10.346476880600
       360    2       95.603200000000       9.856496057400      10.346476880600
       361    1        5.121600000000      14.784750000000       8.923700000000
       362    1        1.707200000000      20.698650000000       8.923700000000
       363    1        0.000000000000      11.827800000000       8.923700000000
       364    1        3.414400000000      17.741700000000       8.923700000000
       365    1        1.707200000000      14.784750000000       8.923700000000
       366    1        5.121600000000      20.698650000000       8.923700000000
       367    2        0.000000000000      13.799103942600       7.500923119400
       368    2        3.414400000000      19.713003942600       7.500923119400
       369    2        5.121600000000      16.756053942600       7.500923119400
       370    2        1.707200000000      16.756053942600       7.500923119400