 # S16 V8
  
        3456  atoms
           2  atom types
 
      0.000000000000     102.249600000000  xlo xhi
      0.000000000000      99.619200000000  ylo yhi
      0.000000000000      17.944400000000  zlo zhi
 
Masses
 
            1   32.06000000             # S
            2   50.94150000             # V
 
Atoms # atomic
 
         1    1        1.597650000000       0.922396310400      10.443389578400
         2    2        1.597650000000       2.767200000000       8.972200000000
         3    1        4.792950000000       6.456796310400      10.443389578400
         4    2        4.792950000000       8.301600000000       8.972200000000
         5    1        6.390600000000       1.844803689600       7.501010421600
         6    1        3.195300000000       7.379203689600       7.501010421600
         7    1        3.195300000000       1.844803689600       7.501010421600
         8    1        6.390600000000       7.379203689600       7.501010421600
         9    2        0.000000000000       0.000000000000       8.972200000000
        10    2        3.195300000000       5.534400000000       8.972200000000
        11    2        4.792950000000       2.767200000000       8.972200000000
        12    2        1.597650000000       8.301600000000       8.972200000000
        13    1        4.792950000000       4.612003689600       7.501010421600
        14    1        1.597650000000      10.146403689600       7.501010421600
        15    1        3.195300000000       3.689596310400      10.443389578400
        16    1        6.390600000000       9.223996310400      10.443389578400
        17    2        3.195300000000       0.000000000000       8.972200000000
        18    2        0.000000000000       5.534400000000       8.972200000000
        19    1        4.792950000000       0.922396310400      10.443389578400
        20    1        1.597650000000       6.456796310400      10.443389578400
        21    1        6.390600000000       3.689596310400      10.443389578400
        22    1        3.195300000000       9.223996310400      10.443389578400
        23    1        1.597650000000       4.612003689600       7.501010421600
        24    1        4.792950000000      10.146403689600       7.501010421600
        25    1        7.988250000000       0.922396310400      10.443389578400
        26    2        7.988250000000       2.767200000000       8.972200000000
        27    1       11.183550000000       6.456796310400      10.443389578400
        28    2       11.183550000000       8.301600000000       8.972200000000
        29    1       12.781200000000       1.844803689600       7.501010421600
        30    1        9.585900000000       7.379203689600       7.501010421600
        31    1        9.585900000000       1.844803689600       7.501010421600
        32    1       12.781200000000       7.379203689600       7.501010421600
        33    2        6.390600000000       0.000000000000       8.972200000000
        34    2        9.585900000000       5.534400000000       8.972200000000
        35    2       11.183550000000       2.767200000000       8.972200000000
        36    2        7.988250000000       8.301600000000       8.972200000000
        37    1       11.183550000000       4.612003689600       7.501010421600
        38    1        7.988250000000      10.146403689600       7.501010421600
        39    1        9.585900000000       3.689596310400      10.443389578400
        40    1       12.781200000000       9.223996310400      10.443389578400
        41    2        9.585900000000       0.000000000000       8.972200000000
        42    2        6.390600000000       5.534400000000       8.972200000000
        43    1       11.183550000000       0.922396310400      10.443389578400
        44    1        7.988250000000       6.456796310400      10.443389578400
        45    1       12.781200000000       3.689596310400      10.443389578400
        46    1        9.585900000000       9.223996310400      10.443389578400
        47    1        7.988250000000       4.612003689600       7.501010421600
        48    1       11.183550000000      10.146403689600       7.501010421600
        49    1       14.378850000000       0.922396310400      10.443389578400
        50    2       14.378850000000       2.767200000000       8.972200000000
        51    1       17.574150000000       6.456796310400      10.443389578400
        52    2       17.574150000000       8.301600000000       8.972200000000
        53    1       19.171800000000       1.844803689600       7.501010421600
        54    1       15.976500000000       7.379203689600       7.501010421600
        55    1       15.976500000000       1.844803689600       7.501010421600
        56    1       19.171800000000       7.379203689600       7.501010421600
        57    2       12.781200000000       0.000000000000       8.972200000000
        58    2       15.976500000000       5.534400000000       8.972200000000
        59    2       17.574150000000       2.767200000000       8.972200000000
        60    2       14.378850000000       8.301600000000       8.972200000000
        61    1       17.574150000000       4.612003689600       7.501010421600
        62    1       14.378850000000      10.146403689600       7.501010421600
        63    1       15.976500000000       3.689596310400      10.443389578400
        64    1       19.171800000000       9.223996310400      10.443389578400
        65    2       15.976500000000       0.000000000000       8.972200000000
        66    2       12.781200000000       5.534400000000       8.972200000000
        67    1       17.574150000000       0.922396310400      10.443389578400
        68    1       14.378850000000       6.456796310400      10.443389578400
        69    1       19.171800000000       3.689596310400      10.443389578400
        70    1       15.976500000000       9.223996310400      10.443389578400
        71    1       14.378850000000       4.612003689600       7.501010421600
        72    1       17.574150000000      10.146403689600       7.501010421600
        73    1       20.769450000000       0.922396310400      10.443389578400
        74    2       20.769450000000       2.767200000000       8.972200000000
        75    1       23.964750000000       6.456796310400      10.443389578400
        76    2       23.964750000000       8.301600000000       8.972200000000
        77    1       25.562400000000       1.844803689600       7.501010421600
        78    1       22.367100000000       7.379203689600       7.501010421600
        79    1       22.367100000000       1.844803689600       7.501010421600
        80    1       25.562400000000       7.379203689600       7.501010421600
        81    2       19.171800000000       0.000000000000       8.972200000000
        82    2       22.367100000000       5.534400000000       8.972200000000
        83    2       23.964750000000       2.767200000000       8.972200000000
        84    2       20.769450000000       8.301600000000       8.972200000000
        85    1       23.964750000000       4.612003689600       7.501010421600
        86    1       20.769450000000      10.146403689600       7.501010421600
        87    1       22.367100000000       3.689596310400      10.443389578400
        88    1       25.562400000000       9.223996310400      10.443389578400
        89    2       22.367100000000       0.000000000000       8.972200000000
        90    2       19.171800000000       5.534400000000       8.972200000000
        91    1       23.964750000000       0.922396310400      10.443389578400
        92    1       20.769450000000       6.456796310400      10.443389578400
        93    1       25.562400000000       3.689596310400      10.443389578400
        94    1       22.367100000000       9.223996310400      10.443389578400
        95    1       20.769450000000       4.612003689600       7.501010421600
        96    1       23.964750000000      10.146403689600       7.501010421600
        97    1       27.160050000000       0.922396310400      10.443389578400
        98    2       27.160050000000       2.767200000000       8.972200000000
        99    1       30.355350000000       6.456796310400      10.443389578400
       100    2       30.355350000000       8.301600000000       8.972200000000
       101    1       31.953000000000       1.844803689600       7.501010421600
       102    1       28.757700000000       7.379203689600       7.501010421600
       103    1       28.757700000000       1.844803689600       7.501010421600
       104    1       31.953000000000       7.379203689600       7.501010421600
       105    2       25.562400000000       0.000000000000       8.972200000000
       106    2       28.757700000000       5.534400000000       8.972200000000
       107    2       30.355350000000       2.767200000000       8.972200000000
       108    2       27.160050000000       8.301600000000       8.972200000000
       109    1       30.355350000000       4.612003689600       7.501010421600
       110    1       27.160050000000      10.146403689600       7.501010421600
       111    1       28.757700000000       3.689596310400      10.443389578400
       112    1       31.953000000000       9.223996310400      10.443389578400
       113    2       28.757700000000       0.000000000000       8.972200000000
       114    2       25.562400000000       5.534400000000       8.972200000000
       115    1       30.355350000000       0.922396310400      10.443389578400
       116    1       27.160050000000       6.456796310400      10.443389578400
       117    1       31.953000000000       3.689596310400      10.443389578400
       118    1       28.757700000000       9.223996310400      10.443389578400
       119    1       27.160050000000       4.612003689600       7.501010421600
       120    1       30.355350000000      10.146403689600       7.501010421600
       121    1       33.550650000000       0.922396310400      10.443389578400
       122    2       33.550650000000       2.767200000000       8.972200000000
       123    1       36.745950000000       6.456796310400      10.443389578400
       124    2       36.745950000000       8.301600000000       8.972200000000
       125    1       38.343600000000       1.844803689600       7.501010421600
       126    1       35.148300000000       7.379203689600       7.501010421600
       127    1       35.148300000000       1.844803689600       7.501010421600
       128    1       38.343600000000       7.379203689600       7.501010421600
       129    2       31.953000000000       0.000000000000       8.972200000000
       130    2       35.148300000000       5.534400000000       8.972200000000
       131    2       36.745950000000       2.767200000000       8.972200000000
       132    2       33.550650000000       8.301600000000       8.972200000000
       133    1       36.745950000000       4.612003689600       7.501010421600
       134    1       33.550650000000      10.146403689600       7.501010421600
       135    1       35.148300000000       3.689596310400      10.443389578400
       136    1       38.343600000000       9.223996310400      10.443389578400
       137    2       35.148300000000       0.000000000000       8.972200000000
       138    2       31.953000000000       5.534400000000       8.972200000000
       139    1       36.745950000000       0.922396310400      10.443389578400
       140    1       33.550650000000       6.456796310400      10.443389578400
       141    1       38.343600000000       3.689596310400      10.443389578400
       142    1       35.148300000000       9.223996310400      10.443389578400
       143    1       33.550650000000       4.612003689600       7.501010421600
       144    1       36.745950000000      10.146403689600       7.501010421600
       145    1       39.941250000000       0.922396310400      10.443389578400
       146    2       39.941250000000       2.767200000000       8.972200000000
       147    1       43.136550000000       6.456796310400      10.443389578400
       148    2       43.136550000000       8.301600000000       8.972200000000
       149    1       44.734200000000       1.844803689600       7.501010421600
       150    1       41.538900000000       7.379203689600       7.501010421600
       151    1       41.538900000000       1.844803689600       7.501010421600
       152    1       44.734200000000       7.379203689600       7.501010421600
       153    2       38.343600000000       0.000000000000       8.972200000000
       154    2       41.538900000000       5.534400000000       8.972200000000
       155    2       43.136550000000       2.767200000000       8.972200000000
       156    2       39.941250000000       8.301600000000       8.972200000000
       157    1       43.136550000000       4.612003689600       7.501010421600
       158    1       39.941250000000      10.146403689600       7.501010421600
       159    1       41.538900000000       3.689596310400      10.443389578400
       160    1       44.734200000000       9.223996310400      10.443389578400
       161    2       41.538900000000       0.000000000000       8.972200000000
       162    2       38.343600000000       5.534400000000       8.972200000000
       163    1       43.136550000000       0.922396310400      10.443389578400
       164    1       39.941250000000       6.456796310400      10.443389578400
       165    1       44.734200000000       3.689596310400      10.443389578400
       166    1       41.538900000000       9.223996310400      10.443389578400
       167    1       39.941250000000       4.612003689600       7.501010421600
       168    1       43.136550000000      10.146403689600       7.501010421600
       169    1       46.331850000000       0.922396310400      10.443389578400
       170    2       46.331850000000       2.767200000000       8.972200000000
       171    1       49.527150000000       6.456796310400      10.443389578400
       172    2       49.527150000000       8.301600000000       8.972200000000
       173    1       51.124800000000       1.844803689600       7.501010421600
       174    1       47.929500000000       7.379203689600       7.501010421600
       175    1       47.929500000000       1.844803689600       7.501010421600
       176    1       51.124800000000       7.379203689600       7.501010421600
       177    2       44.734200000000       0.000000000000       8.972200000000
       178    2       47.929500000000       5.534400000000       8.972200000000
       179    2       49.527150000000       2.767200000000       8.972200000000
       180    2       46.331850000000       8.301600000000       8.972200000000
       181    1       49.527150000000       4.612003689600       7.501010421600
       182    1       46.331850000000      10.146403689600       7.501010421600
       183    1       47.929500000000       3.689596310400      10.443389578400
       184    1       51.124800000000       9.223996310400      10.443389578400
       185    2       47.929500000000       0.000000000000       8.972200000000
       186    2       44.734200000000       5.534400000000       8.972200000000
       187    1       49.527150000000       0.922396310400      10.443389578400
       188    1       46.331850000000       6.456796310400      10.443389578400
       189    1       51.124800000000       3.689596310400      10.443389578400
       190    1       47.929500000000       9.223996310400      10.443389578400
       191    1       46.331850000000       4.612003689600       7.501010421600
       192    1       49.527150000000      10.146403689600       7.501010421600
       193    1       52.722450000000       0.922396310400      10.443389578400
       194    2       52.722450000000       2.767200000000       8.972200000000
       195    1       55.917750000000       6.456796310400      10.443389578400
       196    2       55.917750000000       8.301600000000       8.972200000000
       197    1       57.515400000000       1.844803689600       7.501010421600
       198    1       54.320100000000       7.379203689600       7.501010421600
       199    1       54.320100000000       1.844803689600       7.501010421600
       200    1       57.515400000000       7.379203689600       7.501010421600
       201    2       51.124800000000       0.000000000000       8.972200000000
       202    2       54.320100000000       5.534400000000       8.972200000000
       203    2       55.917750000000       2.767200000000       8.972200000000
       204    2       52.722450000000       8.301600000000       8.972200000000
       205    1       55.917750000000       4.612003689600       7.501010421600
       206    1       52.722450000000      10.146403689600       7.501010421600
       207    1       54.320100000000       3.689596310400      10.443389578400
       208    1       57.515400000000       9.223996310400      10.443389578400
       209    2       54.320100000000       0.000000000000       8.972200000000
       210    2       51.124800000000       5.534400000000       8.972200000000
       211    1       55.917750000000       0.922396310400      10.443389578400
       212    1       52.722450000000       6.456796310400      10.443389578400
       213    1       57.515400000000       3.689596310400      10.443389578400
       214    1       54.320100000000       9.223996310400      10.443389578400
       215    1       52.722450000000       4.612003689600       7.501010421600
       216    1       55.917750000000      10.146403689600       7.501010421600
       217    1       59.113050000000       0.922396310400      10.443389578400
       218    2       59.113050000000       2.767200000000       8.972200000000
       219    1       62.308350000000       6.456796310400      10.443389578400
       220    2       62.308350000000       8.301600000000       8.972200000000
       221    1       63.906000000000       1.844803689600       7.501010421600
       222    1       60.710700000000       7.379203689600       7.501010421600
       223    1       60.710700000000       1.844803689600       7.501010421600
       224    1       63.906000000000       7.379203689600       7.501010421600
       225    2       57.515400000000       0.000000000000       8.972200000000
       226    2       60.710700000000       5.534400000000       8.972200000000
       227    2       62.308350000000       2.767200000000       8.972200000000
       228    2       59.113050000000       8.301600000000       8.972200000000
       229    1       62.308350000000       4.612003689600       7.501010421600
       230    1       59.113050000000      10.146403689600       7.501010421600
       231    1       60.710700000000       3.689596310400      10.443389578400
       232    1       63.906000000000       9.223996310400      10.443389578400
       233    2       60.710700000000       0.000000000000       8.972200000000
       234    2       57.515400000000       5.534400000000       8.972200000000
       235    1       62.308350000000       0.922396310400      10.443389578400
       236    1       59.113050000000       6.456796310400      10.443389578400
       237    1       63.906000000000       3.689596310400      10.443389578400
       238    1       60.710700000000       9.223996310400      10.443389578400
       239    1       59.113050000000       4.612003689600       7.501010421600
       240    1       62.308350000000      10.146403689600       7.501010421600
       241    1       65.503650000000       0.922396310400      10.443389578400
       242    2       65.503650000000       2.767200000000       8.972200000000
       243    1       68.698950000000       6.456796310400      10.443389578400
       244    2       68.698950000000       8.301600000000       8.972200000000
       245    1       70.296600000000       1.844803689600       7.501010421600
       246    1       67.101300000000       7.379203689600       7.501010421600
       247    1       67.101300000000       1.844803689600       7.501010421600
       248    1       70.296600000000       7.379203689600       7.501010421600
       249    2       63.906000000000       0.000000000000       8.972200000000
       250    2       67.101300000000       5.534400000000       8.972200000000
       251    2       68.698950000000       2.767200000000       8.972200000000
       252    2       65.503650000000       8.301600000000       8.972200000000
       253    1       68.698950000000       4.612003689600       7.501010421600
       254    1       65.503650000000      10.146403689600       7.501010421600
       255    1       67.101300000000       3.689596310400      10.443389578400
       256    1       70.296600000000       9.223996310400      10.443389578400
       257    2       67.101300000000       0.000000000000       8.972200000000
       258    2       63.906000000000       5.534400000000       8.972200000000
       259    1       68.698950000000       0.922396310400      10.443389578400
       260    1       65.503650000000       6.456796310400      10.443389578400
       261    1       70.296600000000       3.689596310400      10.443389578400
       262    1       67.101300000000       9.223996310400      10.443389578400
       263    1       65.503650000000       4.612003689600       7.501010421600
       264    1       68.698950000000      10.146403689600       7.501010421600
       265    1       71.894250000000       0.922396310400      10.443389578400
       266    2       71.894250000000       2.767200000000       8.972200000000
       267    1       75.089550000000       6.456796310400      10.443389578400
       268    2       75.089550000000       8.301600000000       8.972200000000
       269    1       76.687200000000       1.844803689600       7.501010421600
       270    1       73.491900000000       7.379203689600       7.501010421600
       271    1       73.491900000000       1.844803689600       7.501010421600
       272    1       76.687200000000       7.379203689600       7.501010421600
       273    2       70.296600000000       0.000000000000       8.972200000000
       274    2       73.491900000000       5.534400000000       8.972200000000
       275    2       75.089550000000       2.767200000000       8.972200000000
       276    2       71.894250000000       8.301600000000       8.972200000000
       277    1       75.089550000000       4.612003689600       7.501010421600
       278    1       71.894250000000      10.146403689600       7.501010421600
       279    1       73.491900000000       3.689596310400      10.443389578400
       280    1       76.687200000000       9.223996310400      10.443389578400
       281    2       73.491900000000       0.000000000000       8.972200000000
       282    2       70.296600000000       5.534400000000       8.972200000000
       283    1       75.089550000000       0.922396310400      10.443389578400
       284    1       71.894250000000       6.456796310400      10.443389578400
       285    1       76.687200000000       3.689596310400      10.443389578400
       286    1       73.491900000000       9.223996310400      10.443389578400
       287    1       71.894250000000       4.612003689600       7.501010421600
       288    1       75.089550000000      10.146403689600       7.501010421600
       289    1       78.284850000000       0.922396310400      10.443389578400
       290    2       78.284850000000       2.767200000000       8.972200000000
       291    1       81.480150000000       6.456796310400      10.443389578400
       292    2       81.480150000000       8.301600000000       8.972200000000
       293    1       83.077800000000       1.844803689600       7.501010421600
       294    1       79.882500000000       7.379203689600       7.501010421600
       295    1       79.882500000000       1.844803689600       7.501010421600
       296    1       83.077800000000       7.379203689600       7.501010421600
       297    2       76.687200000000       0.000000000000       8.972200000000
       298    2       79.882500000000       5.534400000000       8.972200000000
       299    2       81.480150000000       2.767200000000       8.972200000000
       300    2       78.284850000000       8.301600000000       8.972200000000
       301    1       81.480150000000       4.612003689600       7.501010421600
       302    1       78.284850000000      10.146403689600       7.501010421600
       303    1       79.882500000000       3.689596310400      10.443389578400
       304    1       83.077800000000       9.223996310400      10.443389578400
       305    2       79.882500000000       0.000000000000       8.972200000000
       306    2       76.687200000000       5.534400000000       8.972200000000
       307    1       81.480150000000       0.922396310400      10.443389578400
       308    1       78.284850000000       6.456796310400      10.443389578400
       309    1       83.077800000000       3.689596310400      10.443389578400
       310    1       79.882500000000       9.223996310400      10.443389578400
       311    1       78.284850000000       4.612003689600       7.501010421600
       312    1       81.480150000000      10.146403689600       7.501010421600
       313    1       84.675450000000       0.922396310400      10.443389578400
       314    2       84.675450000000       2.767200000000       8.972200000000
       315    1       87.870750000000       6.456796310400      10.443389578400
       316    2       87.870750000000       8.301600000000       8.972200000000
       317    1       89.468400000000       1.844803689600       7.501010421600
       318    1       86.273100000000       7.379203689600       7.501010421600
       319    1       86.273100000000       1.844803689600       7.501010421600
       320    1       89.468400000000       7.379203689600       7.501010421600
       321    2       83.077800000000       0.000000000000       8.972200000000
       322    2       86.273100000000       5.534400000000       8.972200000000
       323    2       87.870750000000       2.767200000000       8.972200000000
       324    2       84.675450000000       8.301600000000       8.972200000000
       325    1       87.870750000000       4.612003689600       7.501010421600
       326    1       84.675450000000      10.146403689600       7.501010421600
       327    1       86.273100000000       3.689596310400      10.443389578400
       328    1       89.468400000000       9.223996310400      10.443389578400
       329    2       86.273100000000       0.000000000000       8.972200000000
       330    2       83.077800000000       5.534400000000       8.972200000000
       331    1       87.870750000000       0.922396310400      10.443389578400
       332    1       84.675450000000       6.456796310400      10.443389578400
       333    1       89.468400000000       3.689596310400      10.443389578400
       334    1       86.273100000000       9.223996310400      10.443389578400
       335    1       84.675450000000       4.612003689600       7.501010421600
       336    1       87.870750000000      10.146403689600       7.501010421600
       337    1       91.066050000000       0.922396310400      10.443389578400
       338    2       91.066050000000       2.767200000000       8.972200000000
       339    1       94.261350000000       6.456796310400      10.443389578400
       340    2       94.261350000000       8.301600000000       8.972200000000
       341    1       95.859000000000       1.844803689600       7.501010421600
       342    1       92.663700000000       7.379203689600       7.501010421600
       343    1       92.663700000000       1.844803689600       7.501010421600
       344    1       95.859000000000       7.379203689600       7.501010421600
       345    2       89.468400000000       0.000000000000       8.972200000000
       346    2       92.663700000000       5.534400000000       8.972200000000
       347    2       94.261350000000       2.767200000000       8.972200000000
       348    2       91.066050000000       8.301600000000       8.972200000000
       349    1       94.261350000000       4.612003689600       7.501010421600
       350    1       91.066050000000      10.146403689600       7.501010421600
       351    1       92.663700000000       3.689596310400      10.443389578400
       352    1       95.859000000000       9.223996310400      10.443389578400
       353    2       92.663700000000       0.000000000000       8.972200000000
       354    2       89.468400000000       5.534400000000       8.972200000000
       355    1       94.261350000000       0.922396310400      10.443389578400
       356    1       91.066050000000       6.456796310400      10.443389578400
       357    1       95.859000000000       3.689596310400      10.443389578400
       358    1       92.663700000000       9.223996310400      10.443389578400
       359    1       91.066050000000       4.612003689600       7.501010421600
       360    1       94.261350000000      10.146403689600       7.501010421600
       361    1       97.456650000000       0.922396310400      10.443389578400
       362    2       97.456650000000       2.767200000000       8.972200000000
       363    1      100.651950000000       6.456796310400      10.443389578400
       364    2      100.651950000000       8.301600000000       8.972200000000
       365    1      102.249600000000       1.844803689600       7.501010421600
       366    1       99.054300000000       7.379203689600       7.501010421600
       367    1       99.054300000000       1.844803689600       7.501010421600
       368    1      102.249600000000       7.379203689600       7.501010421600
       369    2       95.859000000000       0.000000000000       8.972200000000
       370    2       99.054300000000       5.534400000000       8.972200000000