 # S16 W8
  
        3456  atoms
           2  atom types
 
      0.000000000000     102.716800000000  xlo xhi
      0.000000000000     100.073700000000  ylo yhi
      0.000000000000      18.156200000000  zlo zhi
 
Masses
 
            1   32.06000000             # S
            2   183.84000000            # W
 
Atoms # atomic
 
         1    1        4.814850000000       0.926604626900      10.655292781600
         2    1        1.604950000000       4.633045373100       7.500907218400
         3    1        1.604950000000       6.486254626900      10.655292781600
         4    1        4.814850000000      10.192695373100       7.500907218400
         5    2        3.209900000000       0.000000000000       9.078100000000
         6    2        6.419800000000       5.559650000000       9.078100000000
         7    1        1.604950000000       0.926604626900      10.655292781600
         8    1        4.814850000000       6.486254626900      10.655292781600
         9    2        1.604950000000       2.779825000000       9.078100000000
        10    2        4.814850000000       8.339475000000       9.078100000000
        11    1        4.814850000000       4.633045373100       7.500907218400
        12    1        1.604950000000      10.192695373100       7.500907218400
        13    2        4.814850000000       2.779825000000       9.078100000000
        14    2        1.604950000000       8.339475000000       9.078100000000
        15    1        0.000000000000       1.853220373100       7.500907218400
        16    1        3.209900000000       7.412870373100       7.500907218400
        17    2        0.000000000000       0.000000000000       9.078100000000
        18    2        3.209900000000       5.559650000000       9.078100000000
        19    1        3.209900000000       3.706429626900      10.655292781600
        20    1        0.000000000000       9.266079626900      10.655292781600
        21    1        0.000000000000       3.706429626900      10.655292781600
        22    1        3.209900000000       9.266079626900      10.655292781600
        23    1        3.209900000000       1.853220373100       7.500907218400
        24    1        0.000000000000       7.412870373100       7.500907218400
        25    1       11.234650000000       0.926604626900      10.655292781600
        26    1        8.024750000000       4.633045373100       7.500907218400
        27    1        8.024750000000       6.486254626900      10.655292781600
        28    1       11.234650000000      10.192695373100       7.500907218400
        29    2        9.629700000000       0.000000000000       9.078100000000
        30    2       12.839600000000       5.559650000000       9.078100000000
        31    1        8.024750000000       0.926604626900      10.655292781600
        32    1       11.234650000000       6.486254626900      10.655292781600
        33    2        8.024750000000       2.779825000000       9.078100000000
        34    2       11.234650000000       8.339475000000       9.078100000000
        35    1       11.234650000000       4.633045373100       7.500907218400
        36    1        8.024750000000      10.192695373100       7.500907218400
        37    2       11.234650000000       2.779825000000       9.078100000000
        38    2        8.024750000000       8.339475000000       9.078100000000
        39    1        6.419800000000       1.853220373100       7.500907218400
        40    1        9.629700000000       7.412870373100       7.500907218400
        41    2        6.419800000000       0.000000000000       9.078100000000
        42    2        9.629700000000       5.559650000000       9.078100000000
        43    1        9.629700000000       3.706429626900      10.655292781600
        44    1        6.419800000000       9.266079626900      10.655292781600
        45    1        6.419800000000       3.706429626900      10.655292781600
        46    1        9.629700000000       9.266079626900      10.655292781600
        47    1        9.629700000000       1.853220373100       7.500907218400
        48    1        6.419800000000       7.412870373100       7.500907218400
        49    1       17.654450000000       0.926604626900      10.655292781600
        50    1       14.444550000000       4.633045373100       7.500907218400
        51    1       14.444550000000       6.486254626900      10.655292781600
        52    1       17.654450000000      10.192695373100       7.500907218400
        53    2       16.049500000000       0.000000000000       9.078100000000
        54    2       19.259400000000       5.559650000000       9.078100000000
        55    1       14.444550000000       0.926604626900      10.655292781600
        56    1       17.654450000000       6.486254626900      10.655292781600
        57    2       14.444550000000       2.779825000000       9.078100000000
        58    2       17.654450000000       8.339475000000       9.078100000000
        59    1       17.654450000000       4.633045373100       7.500907218400
        60    1       14.444550000000      10.192695373100       7.500907218400
        61    2       17.654450000000       2.779825000000       9.078100000000
        62    2       14.444550000000       8.339475000000       9.078100000000
        63    1       12.839600000000       1.853220373100       7.500907218400
        64    1       16.049500000000       7.412870373100       7.500907218400
        65    2       12.839600000000       0.000000000000       9.078100000000
        66    2       16.049500000000       5.559650000000       9.078100000000
        67    1       16.049500000000       3.706429626900      10.655292781600
        68    1       12.839600000000       9.266079626900      10.655292781600
        69    1       12.839600000000       3.706429626900      10.655292781600
        70    1       16.049500000000       9.266079626900      10.655292781600
        71    1       16.049500000000       1.853220373100       7.500907218400
        72    1       12.839600000000       7.412870373100       7.500907218400
        73    1       24.074250000000       0.926604626900      10.655292781600
        74    1       20.864350000000       4.633045373100       7.500907218400
        75    1       20.864350000000       6.486254626900      10.655292781600
        76    1       24.074250000000      10.192695373100       7.500907218400
        77    2       22.469300000000       0.000000000000       9.078100000000
        78    2       25.679200000000       5.559650000000       9.078100000000
        79    1       20.864350000000       0.926604626900      10.655292781600
        80    1       24.074250000000       6.486254626900      10.655292781600
        81    2       20.864350000000       2.779825000000       9.078100000000
        82    2       24.074250000000       8.339475000000       9.078100000000
        83    1       24.074250000000       4.633045373100       7.500907218400
        84    1       20.864350000000      10.192695373100       7.500907218400
        85    2       24.074250000000       2.779825000000       9.078100000000
        86    2       20.864350000000       8.339475000000       9.078100000000
        87    1       19.259400000000       1.853220373100       7.500907218400
        88    1       22.469300000000       7.412870373100       7.500907218400
        89    2       19.259400000000       0.000000000000       9.078100000000
        90    2       22.469300000000       5.559650000000       9.078100000000
        91    1       22.469300000000       3.706429626900      10.655292781600
        92    1       19.259400000000       9.266079626900      10.655292781600
        93    1       19.259400000000       3.706429626900      10.655292781600
        94    1       22.469300000000       9.266079626900      10.655292781600
        95    1       22.469300000000       1.853220373100       7.500907218400
        96    1       19.259400000000       7.412870373100       7.500907218400
        97    1       30.494050000000       0.926604626900      10.655292781600
        98    1       27.284150000000       4.633045373100       7.500907218400
        99    1       27.284150000000       6.486254626900      10.655292781600
       100    1       30.494050000000      10.192695373100       7.500907218400
       101    2       28.889100000000       0.000000000000       9.078100000000
       102    2       32.099000000000       5.559650000000       9.078100000000
       103    1       27.284150000000       0.926604626900      10.655292781600
       104    1       30.494050000000       6.486254626900      10.655292781600
       105    2       27.284150000000       2.779825000000       9.078100000000
       106    2       30.494050000000       8.339475000000       9.078100000000
       107    1       30.494050000000       4.633045373100       7.500907218400
       108    1       27.284150000000      10.192695373100       7.500907218400
       109    2       30.494050000000       2.779825000000       9.078100000000
       110    2       27.284150000000       8.339475000000       9.078100000000
       111    1       25.679200000000       1.853220373100       7.500907218400
       112    1       28.889100000000       7.412870373100       7.500907218400
       113    2       25.679200000000       0.000000000000       9.078100000000
       114    2       28.889100000000       5.559650000000       9.078100000000
       115    1       28.889100000000       3.706429626900      10.655292781600
       116    1       25.679200000000       9.266079626900      10.655292781600
       117    1       25.679200000000       3.706429626900      10.655292781600
       118    1       28.889100000000       9.266079626900      10.655292781600
       119    1       28.889100000000       1.853220373100       7.500907218400
       120    1       25.679200000000       7.412870373100       7.500907218400
       121    1       36.913850000000       0.926604626900      10.655292781600
       122    1       33.703950000000       4.633045373100       7.500907218400
       123    1       33.703950000000       6.486254626900      10.655292781600
       124    1       36.913850000000      10.192695373100       7.500907218400
       125    2       35.308900000000       0.000000000000       9.078100000000
       126    2       38.518800000000       5.559650000000       9.078100000000
       127    1       33.703950000000       0.926604626900      10.655292781600
       128    1       36.913850000000       6.486254626900      10.655292781600
       129    2       33.703950000000       2.779825000000       9.078100000000
       130    2       36.913850000000       8.339475000000       9.078100000000
       131    1       36.913850000000       4.633045373100       7.500907218400
       132    1       33.703950000000      10.192695373100       7.500907218400
       133    2       36.913850000000       2.779825000000       9.078100000000
       134    2       33.703950000000       8.339475000000       9.078100000000
       135    1       32.099000000000       1.853220373100       7.500907218400
       136    1       35.308900000000       7.412870373100       7.500907218400
       137    2       32.099000000000       0.000000000000       9.078100000000
       138    2       35.308900000000       5.559650000000       9.078100000000
       139    1       35.308900000000       3.706429626900      10.655292781600
       140    1       32.099000000000       9.266079626900      10.655292781600
       141    1       32.099000000000       3.706429626900      10.655292781600
       142    1       35.308900000000       9.266079626900      10.655292781600
       143    1       35.308900000000       1.853220373100       7.500907218400
       144    1       32.099000000000       7.412870373100       7.500907218400
       145    1       43.333650000000       0.926604626900      10.655292781600
       146    1       40.123750000000       4.633045373100       7.500907218400
       147    1       40.123750000000       6.486254626900      10.655292781600
       148    1       43.333650000000      10.192695373100       7.500907218400
       149    2       41.728700000000       0.000000000000       9.078100000000
       150    2       44.938600000000       5.559650000000       9.078100000000
       151    1       40.123750000000       0.926604626900      10.655292781600
       152    1       43.333650000000       6.486254626900      10.655292781600
       153    2       40.123750000000       2.779825000000       9.078100000000
       154    2       43.333650000000       8.339475000000       9.078100000000
       155    1       43.333650000000       4.633045373100       7.500907218400
       156    1       40.123750000000      10.192695373100       7.500907218400
       157    2       43.333650000000       2.779825000000       9.078100000000
       158    2       40.123750000000       8.339475000000       9.078100000000
       159    1       38.518800000000       1.853220373100       7.500907218400
       160    1       41.728700000000       7.412870373100       7.500907218400
       161    2       38.518800000000       0.000000000000       9.078100000000
       162    2       41.728700000000       5.559650000000       9.078100000000
       163    1       41.728700000000       3.706429626900      10.655292781600
       164    1       38.518800000000       9.266079626900      10.655292781600
       165    1       38.518800000000       3.706429626900      10.655292781600
       166    1       41.728700000000       9.266079626900      10.655292781600
       167    1       41.728700000000       1.853220373100       7.500907218400
       168    1       38.518800000000       7.412870373100       7.500907218400
       169    1       49.753450000000       0.926604626900      10.655292781600
       170    1       46.543550000000       4.633045373100       7.500907218400
       171    1       46.543550000000       6.486254626900      10.655292781600
       172    1       49.753450000000      10.192695373100       7.500907218400
       173    2       48.148500000000       0.000000000000       9.078100000000
       174    2       51.358400000000       5.559650000000       9.078100000000
       175    1       46.543550000000       0.926604626900      10.655292781600
       176    1       49.753450000000       6.486254626900      10.655292781600
       177    2       46.543550000000       2.779825000000       9.078100000000
       178    2       49.753450000000       8.339475000000       9.078100000000
       179    1       49.753450000000       4.633045373100       7.500907218400
       180    1       46.543550000000      10.192695373100       7.500907218400
       181    2       49.753450000000       2.779825000000       9.078100000000
       182    2       46.543550000000       8.339475000000       9.078100000000
       183    1       44.938600000000       1.853220373100       7.500907218400
       184    1       48.148500000000       7.412870373100       7.500907218400
       185    2       44.938600000000       0.000000000000       9.078100000000
       186    2       48.148500000000       5.559650000000       9.078100000000
       187    1       48.148500000000       3.706429626900      10.655292781600
       188    1       44.938600000000       9.266079626900      10.655292781600
       189    1       44.938600000000       3.706429626900      10.655292781600
       190    1       48.148500000000       9.266079626900      10.655292781600
       191    1       48.148500000000       1.853220373100       7.500907218400
       192    1       44.938600000000       7.412870373100       7.500907218400
       193    1       56.173250000000       0.926604626900      10.655292781600
       194    1       52.963350000000       4.633045373100       7.500907218400
       195    1       52.963350000000       6.486254626900      10.655292781600
       196    1       56.173250000000      10.192695373100       7.500907218400
       197    2       54.568300000000       0.000000000000       9.078100000000
       198    2       57.778200000000       5.559650000000       9.078100000000
       199    1       52.963350000000       0.926604626900      10.655292781600
       200    1       56.173250000000       6.486254626900      10.655292781600
       201    2       52.963350000000       2.779825000000       9.078100000000
       202    2       56.173250000000       8.339475000000       9.078100000000
       203    1       56.173250000000       4.633045373100       7.500907218400
       204    1       52.963350000000      10.192695373100       7.500907218400
       205    2       56.173250000000       2.779825000000       9.078100000000
       206    2       52.963350000000       8.339475000000       9.078100000000
       207    1       51.358400000000       1.853220373100       7.500907218400
       208    1       54.568300000000       7.412870373100       7.500907218400
       209    2       51.358400000000       0.000000000000       9.078100000000
       210    2       54.568300000000       5.559650000000       9.078100000000
       211    1       54.568300000000       3.706429626900      10.655292781600
       212    1       51.358400000000       9.266079626900      10.655292781600
       213    1       51.358400000000       3.706429626900      10.655292781600
       214    1       54.568300000000       9.266079626900      10.655292781600
       215    1       54.568300000000       1.853220373100       7.500907218400
       216    1       51.358400000000       7.412870373100       7.500907218400
       217    1       62.593050000000       0.926604626900      10.655292781600
       218    1       59.383150000000       4.633045373100       7.500907218400
       219    1       59.383150000000       6.486254626900      10.655292781600
       220    1       62.593050000000      10.192695373100       7.500907218400
       221    2       60.988100000000       0.000000000000       9.078100000000
       222    2       64.198000000000       5.559650000000       9.078100000000
       223    1       59.383150000000       0.926604626900      10.655292781600
       224    1       62.593050000000       6.486254626900      10.655292781600
       225    2       59.383150000000       2.779825000000       9.078100000000
       226    2       62.593050000000       8.339475000000       9.078100000000
       227    1       62.593050000000       4.633045373100       7.500907218400
       228    1       59.383150000000      10.192695373100       7.500907218400
       229    2       62.593050000000       2.779825000000       9.078100000000
       230    2       59.383150000000       8.339475000000       9.078100000000
       231    1       57.778200000000       1.853220373100       7.500907218400
       232    1       60.988100000000       7.412870373100       7.500907218400
       233    2       57.778200000000       0.000000000000       9.078100000000
       234    2       60.988100000000       5.559650000000       9.078100000000
       235    1       60.988100000000       3.706429626900      10.655292781600
       236    1       57.778200000000       9.266079626900      10.655292781600
       237    1       57.778200000000       3.706429626900      10.655292781600
       238    1       60.988100000000       9.266079626900      10.655292781600
       239    1       60.988100000000       1.853220373100       7.500907218400
       240    1       57.778200000000       7.412870373100       7.500907218400
       241    1       69.012850000000       0.926604626900      10.655292781600
       242    1       65.802950000000       4.633045373100       7.500907218400
       243    1       65.802950000000       6.486254626900      10.655292781600
       244    1       69.012850000000      10.192695373100       7.500907218400
       245    2       67.407900000000       0.000000000000       9.078100000000
       246    2       70.617800000000       5.559650000000       9.078100000000
       247    1       65.802950000000       0.926604626900      10.655292781600
       248    1       69.012850000000       6.486254626900      10.655292781600
       249    2       65.802950000000       2.779825000000       9.078100000000
       250    2       69.012850000000       8.339475000000       9.078100000000
       251    1       69.012850000000       4.633045373100       7.500907218400
       252    1       65.802950000000      10.192695373100       7.500907218400
       253    2       69.012850000000       2.779825000000       9.078100000000
       254    2       65.802950000000       8.339475000000       9.078100000000
       255    1       64.198000000000       1.853220373100       7.500907218400
       256    1       67.407900000000       7.412870373100       7.500907218400
       257    2       64.198000000000       0.000000000000       9.078100000000
       258    2       67.407900000000       5.559650000000       9.078100000000
       259    1       67.407900000000       3.706429626900      10.655292781600
       260    1       64.198000000000       9.266079626900      10.655292781600
       261    1       64.198000000000       3.706429626900      10.655292781600
       262    1       67.407900000000       9.266079626900      10.655292781600
       263    1       67.407900000000       1.853220373100       7.500907218400
       264    1       64.198000000000       7.412870373100       7.500907218400
       265    1       75.432650000000       0.926604626900      10.655292781600
       266    1       72.222750000000       4.633045373100       7.500907218400
       267    1       72.222750000000       6.486254626900      10.655292781600
       268    1       75.432650000000      10.192695373100       7.500907218400
       269    2       73.827700000000       0.000000000000       9.078100000000
       270    2       77.037600000000       5.559650000000       9.078100000000
       271    1       72.222750000000       0.926604626900      10.655292781600
       272    1       75.432650000000       6.486254626900      10.655292781600
       273    2       72.222750000000       2.779825000000       9.078100000000
       274    2       75.432650000000       8.339475000000       9.078100000000
       275    1       75.432650000000       4.633045373100       7.500907218400
       276    1       72.222750000000      10.192695373100       7.500907218400
       277    2       75.432650000000       2.779825000000       9.078100000000
       278    2       72.222750000000       8.339475000000       9.078100000000
       279    1       70.617800000000       1.853220373100       7.500907218400
       280    1       73.827700000000       7.412870373100       7.500907218400
       281    2       70.617800000000       0.000000000000       9.078100000000
       282    2       73.827700000000       5.559650000000       9.078100000000
       283    1       73.827700000000       3.706429626900      10.655292781600
       284    1       70.617800000000       9.266079626900      10.655292781600
       285    1       70.617800000000       3.706429626900      10.655292781600
       286    1       73.827700000000       9.266079626900      10.655292781600
       287    1       73.827700000000       1.853220373100       7.500907218400
       288    1       70.617800000000       7.412870373100       7.500907218400
       289    1       81.852450000000       0.926604626900      10.655292781600
       290    1       78.642550000000       4.633045373100       7.500907218400
       291    1       78.642550000000       6.486254626900      10.655292781600
       292    1       81.852450000000      10.192695373100       7.500907218400
       293    2       80.247500000000       0.000000000000       9.078100000000
       294    2       83.457400000000       5.559650000000       9.078100000000
       295    1       78.642550000000       0.926604626900      10.655292781600
       296    1       81.852450000000       6.486254626900      10.655292781600
       297    2       78.642550000000       2.779825000000       9.078100000000
       298    2       81.852450000000       8.339475000000       9.078100000000
       299    1       81.852450000000       4.633045373100       7.500907218400
       300    1       78.642550000000      10.192695373100       7.500907218400
       301    2       81.852450000000       2.779825000000       9.078100000000
       302    2       78.642550000000       8.339475000000       9.078100000000
       303    1       77.037600000000       1.853220373100       7.500907218400
       304    1       80.247500000000       7.412870373100       7.500907218400
       305    2       77.037600000000       0.000000000000       9.078100000000
       306    2       80.247500000000       5.559650000000       9.078100000000
       307    1       80.247500000000       3.706429626900      10.655292781600
       308    1       77.037600000000       9.266079626900      10.655292781600
       309    1       77.037600000000       3.706429626900      10.655292781600
       310    1       80.247500000000       9.266079626900      10.655292781600
       311    1       80.247500000000       1.853220373100       7.500907218400
       312    1       77.037600000000       7.412870373100       7.500907218400
       313    1       88.272250000000       0.926604626900      10.655292781600
       314    1       85.062350000000       4.633045373100       7.500907218400
       315    1       85.062350000000       6.486254626900      10.655292781600
       316    1       88.272250000000      10.192695373100       7.500907218400
       317    2       86.667300000000       0.000000000000       9.078100000000
       318    2       89.877200000000       5.559650000000       9.078100000000
       319    1       85.062350000000       0.926604626900      10.655292781600
       320    1       88.272250000000       6.486254626900      10.655292781600
       321    2       85.062350000000       2.779825000000       9.078100000000
       322    2       88.272250000000       8.339475000000       9.078100000000
       323    1       88.272250000000       4.633045373100       7.500907218400
       324    1       85.062350000000      10.192695373100       7.500907218400
       325    2       88.272250000000       2.779825000000       9.078100000000
       326    2       85.062350000000       8.339475000000       9.078100000000
       327    1       83.457400000000       1.853220373100       7.500907218400
       328    1       86.667300000000       7.412870373100       7.500907218400
       329    2       83.457400000000       0.000000000000       9.078100000000
       330    2       86.667300000000       5.559650000000       9.078100000000
       331    1       86.667300000000       3.706429626900      10.655292781600
       332    1       83.457400000000       9.266079626900      10.655292781600
       333    1       83.457400000000       3.706429626900      10.655292781600
       334    1       86.667300000000       9.266079626900      10.655292781600
       335    1       86.667300000000       1.853220373100       7.500907218400
       336    1       83.457400000000       7.412870373100       7.500907218400
       337    1       94.692050000000       0.926604626900      10.655292781600
       338    1       91.482150000000       4.633045373100       7.500907218400
       339    1       91.482150000000       6.486254626900      10.655292781600
       340    1       94.692050000000      10.192695373100       7.500907218400
       341    2       93.087100000000       0.000000000000       9.078100000000
       342    2       96.297000000000       5.559650000000       9.078100000000
       343    1       91.482150000000       0.926604626900      10.655292781600
       344    1       94.692050000000       6.486254626900      10.655292781600
       345    2       91.482150000000       2.779825000000       9.078100000000
       346    2       94.692050000000       8.339475000000       9.078100000000
       347    1       94.692050000000       4.633045373100       7.500907218400
       348    1       91.482150000000      10.192695373100       7.500907218400
       349    2       94.692050000000       2.779825000000       9.078100000000
       350    2       91.482150000000       8.339475000000       9.078100000000
       351    1       89.877200000000       1.853220373100       7.500907218400
       352    1       93.087100000000       7.412870373100       7.500907218400
       353    2       89.877200000000       0.000000000000       9.078100000000
       354    2       93.087100000000       5.559650000000       9.078100000000
       355    1       93.087100000000       3.706429626900      10.655292781600
       356    1       89.877200000000       9.266079626900      10.655292781600
       357    1       89.877200000000       3.706429626900      10.655292781600
       358    1       93.087100000000       9.266079626900      10.655292781600
       359    1       93.087100000000       1.853220373100       7.500907218400
       360    1       89.877200000000       7.412870373100       7.500907218400
       361    1      101.111850000000       0.926604626900      10.655292781600
       362    1       97.901950000000       4.633045373100       7.500907218400
       363    1       97.901950000000       6.486254626900      10.655292781600
       364    1      101.111850000000      10.192695373100       7.500907218400
       365    2       99.506900000000       0.000000000000       9.078100000000
       366    2      102.716800000000       5.559650000000       9.078100000000
       367    1       97.901950000000       0.926604626900      10.655292781600
       368    1      101.111850000000       6.486254626900      10.655292781600
       369    2       97.901950000000       2.779825000000       9.078100000000
       370    2      101.111850000000       8.339475000000       9.078100000000