 # W8 Se16
  
        3240  atoms
           2  atom types
 
      0.000000000000      98.734500000000  xlo xhi
      0.000000000000     102.608100000000  ylo yhi
      0.000000000000      18.449400000000  zlo zhi
 
Masses
 
            1   183.84000000            # W
            2   78.96000000             # Se
 
Atoms # atomic
 
         1    1        4.936725000000       2.850225000000       9.224700000000
         2    1        1.645575000000       8.550675000000       9.224700000000
         3    1        1.645575000000       2.850225000000       9.224700000000
         4    1        4.936725000000       8.550675000000       9.224700000000
         5    2        4.936725000000       0.950071199700      10.947707915400
         6    1        3.291150000000      11.400900000000       9.224700000000
         7    2        1.645575000000       6.650521199700      10.947707915400
         8    1        6.582300000000       5.700450000000       9.224700000000
         9    2        6.582300000000       3.800296199700      10.947707915400
        10    2        3.291150000000       3.800296199700      10.947707915400
        11    2        1.645575000000       0.950071199700      10.947707915400
        12    2        6.582300000000       9.500746199700      10.947707915400
        13    2        3.291150000000       9.500746199700      10.947707915400
        14    2        4.936725000000       6.650521199700      10.947707915400
        15    2        4.936725000000       4.750378800300       7.501692084600
        16    2        1.645575000000       4.750378800300       7.501692084600
        17    2        1.645575000000      10.450828800300       7.501692084600
        18    2        4.936725000000      10.450828800300       7.501692084600
        19    1        0.000000000000      11.400900000000       9.224700000000
        20    1        3.291150000000       5.700450000000       9.224700000000
        21    2        3.291150000000       1.900153800300       7.501692084600
        22    2        6.582300000000       7.600603800300       7.501692084600
        23    2        0.000000000000       1.900153800300       7.501692084600
        24    2        3.291150000000       7.600603800300       7.501692084600
        25    1       11.519025000000       2.850225000000       9.224700000000
        26    1        8.227875000000       8.550675000000       9.224700000000
        27    1        8.227875000000       2.850225000000       9.224700000000
        28    1       11.519025000000       8.550675000000       9.224700000000
        29    2       11.519025000000       0.950071199700      10.947707915400
        30    1        9.873450000000      11.400900000000       9.224700000000
        31    2        8.227875000000       6.650521199700      10.947707915400
        32    1       13.164600000000       5.700450000000       9.224700000000
        33    2       13.164600000000       3.800296199700      10.947707915400
        34    2        9.873450000000       3.800296199700      10.947707915400
        35    2        8.227875000000       0.950071199700      10.947707915400
        36    2       13.164600000000       9.500746199700      10.947707915400
        37    2        9.873450000000       9.500746199700      10.947707915400
        38    2       11.519025000000       6.650521199700      10.947707915400
        39    2       11.519025000000       4.750378800300       7.501692084600
        40    2        8.227875000000       4.750378800300       7.501692084600
        41    2        8.227875000000      10.450828800300       7.501692084600
        42    2       11.519025000000      10.450828800300       7.501692084600
        43    1        6.582300000000      11.400900000000       9.224700000000
        44    1        9.873450000000       5.700450000000       9.224700000000
        45    2        9.873450000000       1.900153800300       7.501692084600
        46    2       13.164600000000       7.600603800300       7.501692084600
        47    2        6.582300000000       1.900153800300       7.501692084600
        48    2        9.873450000000       7.600603800300       7.501692084600
        49    1       18.101325000000       2.850225000000       9.224700000000
        50    1       14.810175000000       8.550675000000       9.224700000000
        51    1       14.810175000000       2.850225000000       9.224700000000
        52    1       18.101325000000       8.550675000000       9.224700000000
        53    2       18.101325000000       0.950071199700      10.947707915400
        54    1       16.455750000000      11.400900000000       9.224700000000
        55    2       14.810175000000       6.650521199700      10.947707915400
        56    1       19.746900000000       5.700450000000       9.224700000000
        57    2       19.746900000000       3.800296199700      10.947707915400
        58    2       16.455750000000       3.800296199700      10.947707915400
        59    2       14.810175000000       0.950071199700      10.947707915400
        60    2       19.746900000000       9.500746199700      10.947707915400
        61    2       16.455750000000       9.500746199700      10.947707915400
        62    2       18.101325000000       6.650521199700      10.947707915400
        63    2       18.101325000000       4.750378800300       7.501692084600
        64    2       14.810175000000       4.750378800300       7.501692084600
        65    2       14.810175000000      10.450828800300       7.501692084600
        66    2       18.101325000000      10.450828800300       7.501692084600
        67    1       13.164600000000      11.400900000000       9.224700000000
        68    1       16.455750000000       5.700450000000       9.224700000000
        69    2       16.455750000000       1.900153800300       7.501692084600
        70    2       19.746900000000       7.600603800300       7.501692084600
        71    2       13.164600000000       1.900153800300       7.501692084600
        72    2       16.455750000000       7.600603800300       7.501692084600
        73    1       24.683625000000       2.850225000000       9.224700000000
        74    1       21.392475000000       8.550675000000       9.224700000000
        75    1       21.392475000000       2.850225000000       9.224700000000
        76    1       24.683625000000       8.550675000000       9.224700000000
        77    2       24.683625000000       0.950071199700      10.947707915400
        78    1       23.038050000000      11.400900000000       9.224700000000
        79    2       21.392475000000       6.650521199700      10.947707915400
        80    1       26.329200000000       5.700450000000       9.224700000000
        81    2       26.329200000000       3.800296199700      10.947707915400
        82    2       23.038050000000       3.800296199700      10.947707915400
        83    2       21.392475000000       0.950071199700      10.947707915400
        84    2       26.329200000000       9.500746199700      10.947707915400
        85    2       23.038050000000       9.500746199700      10.947707915400
        86    2       24.683625000000       6.650521199700      10.947707915400
        87    2       24.683625000000       4.750378800300       7.501692084600
        88    2       21.392475000000       4.750378800300       7.501692084600
        89    2       21.392475000000      10.450828800300       7.501692084600
        90    2       24.683625000000      10.450828800300       7.501692084600
        91    1       19.746900000000      11.400900000000       9.224700000000
        92    1       23.038050000000       5.700450000000       9.224700000000
        93    2       23.038050000000       1.900153800300       7.501692084600
        94    2       26.329200000000       7.600603800300       7.501692084600
        95    2       19.746900000000       1.900153800300       7.501692084600
        96    2       23.038050000000       7.600603800300       7.501692084600
        97    1       31.265925000000       2.850225000000       9.224700000000
        98    1       27.974775000000       8.550675000000       9.224700000000
        99    1       27.974775000000       2.850225000000       9.224700000000
       100    1       31.265925000000       8.550675000000       9.224700000000
       101    2       31.265925000000       0.950071199700      10.947707915400
       102    1       29.620350000000      11.400900000000       9.224700000000
       103    2       27.974775000000       6.650521199700      10.947707915400
       104    1       32.911500000000       5.700450000000       9.224700000000
       105    2       32.911500000000       3.800296199700      10.947707915400
       106    2       29.620350000000       3.800296199700      10.947707915400
       107    2       27.974775000000       0.950071199700      10.947707915400
       108    2       32.911500000000       9.500746199700      10.947707915400
       109    2       29.620350000000       9.500746199700      10.947707915400
       110    2       31.265925000000       6.650521199700      10.947707915400
       111    2       31.265925000000       4.750378800300       7.501692084600
       112    2       27.974775000000       4.750378800300       7.501692084600
       113    2       27.974775000000      10.450828800300       7.501692084600
       114    2       31.265925000000      10.450828800300       7.501692084600
       115    1       26.329200000000      11.400900000000       9.224700000000
       116    1       29.620350000000       5.700450000000       9.224700000000
       117    2       29.620350000000       1.900153800300       7.501692084600
       118    2       32.911500000000       7.600603800300       7.501692084600
       119    2       26.329200000000       1.900153800300       7.501692084600
       120    2       29.620350000000       7.600603800300       7.501692084600
       121    1       37.848225000000       2.850225000000       9.224700000000
       122    1       34.557075000000       8.550675000000       9.224700000000
       123    1       34.557075000000       2.850225000000       9.224700000000
       124    1       37.848225000000       8.550675000000       9.224700000000
       125    2       37.848225000000       0.950071199700      10.947707915400
       126    1       36.202650000000      11.400900000000       9.224700000000
       127    2       34.557075000000       6.650521199700      10.947707915400
       128    1       39.493800000000       5.700450000000       9.224700000000
       129    2       39.493800000000       3.800296199700      10.947707915400
       130    2       36.202650000000       3.800296199700      10.947707915400
       131    2       34.557075000000       0.950071199700      10.947707915400
       132    2       39.493800000000       9.500746199700      10.947707915400
       133    2       36.202650000000       9.500746199700      10.947707915400
       134    2       37.848225000000       6.650521199700      10.947707915400
       135    2       37.848225000000       4.750378800300       7.501692084600
       136    2       34.557075000000       4.750378800300       7.501692084600
       137    2       34.557075000000      10.450828800300       7.501692084600
       138    2       37.848225000000      10.450828800300       7.501692084600
       139    1       32.911500000000      11.400900000000       9.224700000000
       140    1       36.202650000000       5.700450000000       9.224700000000
       141    2       36.202650000000       1.900153800300       7.501692084600
       142    2       39.493800000000       7.600603800300       7.501692084600
       143    2       32.911500000000       1.900153800300       7.501692084600
       144    2       36.202650000000       7.600603800300       7.501692084600
       145    1       44.430525000000       2.850225000000       9.224700000000
       146    1       41.139375000000       8.550675000000       9.224700000000
       147    1       41.139375000000       2.850225000000       9.224700000000
       148    1       44.430525000000       8.550675000000       9.224700000000
       149    2       44.430525000000       0.950071199700      10.947707915400
       150    1       42.784950000000      11.400900000000       9.224700000000
       151    2       41.139375000000       6.650521199700      10.947707915400
       152    1       46.076100000000       5.700450000000       9.224700000000
       153    2       46.076100000000       3.800296199700      10.947707915400
       154    2       42.784950000000       3.800296199700      10.947707915400
       155    2       41.139375000000       0.950071199700      10.947707915400
       156    2       46.076100000000       9.500746199700      10.947707915400
       157    2       42.784950000000       9.500746199700      10.947707915400
       158    2       44.430525000000       6.650521199700      10.947707915400
       159    2       44.430525000000       4.750378800300       7.501692084600
       160    2       41.139375000000       4.750378800300       7.501692084600
       161    2       41.139375000000      10.450828800300       7.501692084600
       162    2       44.430525000000      10.450828800300       7.501692084600
       163    1       39.493800000000      11.400900000000       9.224700000000
       164    1       42.784950000000       5.700450000000       9.224700000000
       165    2       42.784950000000       1.900153800300       7.501692084600
       166    2       46.076100000000       7.600603800300       7.501692084600
       167    2       39.493800000000       1.900153800300       7.501692084600
       168    2       42.784950000000       7.600603800300       7.501692084600
       169    1       51.012825000000       2.850225000000       9.224700000000
       170    1       47.721675000000       8.550675000000       9.224700000000
       171    1       47.721675000000       2.850225000000       9.224700000000
       172    1       51.012825000000       8.550675000000       9.224700000000
       173    2       51.012825000000       0.950071199700      10.947707915400
       174    1       49.367250000000      11.400900000000       9.224700000000
       175    2       47.721675000000       6.650521199700      10.947707915400
       176    1       52.658400000000       5.700450000000       9.224700000000
       177    2       52.658400000000       3.800296199700      10.947707915400
       178    2       49.367250000000       3.800296199700      10.947707915400
       179    2       47.721675000000       0.950071199700      10.947707915400
       180    2       52.658400000000       9.500746199700      10.947707915400
       181    2       49.367250000000       9.500746199700      10.947707915400
       182    2       51.012825000000       6.650521199700      10.947707915400
       183    2       51.012825000000       4.750378800300       7.501692084600
       184    2       47.721675000000       4.750378800300       7.501692084600
       185    2       47.721675000000      10.450828800300       7.501692084600
       186    2       51.012825000000      10.450828800300       7.501692084600
       187    1       46.076100000000      11.400900000000       9.224700000000
       188    1       49.367250000000       5.700450000000       9.224700000000
       189    2       49.367250000000       1.900153800300       7.501692084600
       190    2       52.658400000000       7.600603800300       7.501692084600
       191    2       46.076100000000       1.900153800300       7.501692084600
       192    2       49.367250000000       7.600603800300       7.501692084600
       193    1       57.595125000000       2.850225000000       9.224700000000
       194    1       54.303975000000       8.550675000000       9.224700000000
       195    1       54.303975000000       2.850225000000       9.224700000000
       196    1       57.595125000000       8.550675000000       9.224700000000
       197    2       57.595125000000       0.950071199700      10.947707915400
       198    1       55.949550000000      11.400900000000       9.224700000000
       199    2       54.303975000000       6.650521199700      10.947707915400
       200    1       59.240700000000       5.700450000000       9.224700000000
       201    2       59.240700000000       3.800296199700      10.947707915400
       202    2       55.949550000000       3.800296199700      10.947707915400
       203    2       54.303975000000       0.950071199700      10.947707915400
       204    2       59.240700000000       9.500746199700      10.947707915400
       205    2       55.949550000000       9.500746199700      10.947707915400
       206    2       57.595125000000       6.650521199700      10.947707915400
       207    2       57.595125000000       4.750378800300       7.501692084600
       208    2       54.303975000000       4.750378800300       7.501692084600
       209    2       54.303975000000      10.450828800300       7.501692084600
       210    2       57.595125000000      10.450828800300       7.501692084600
       211    1       52.658400000000      11.400900000000       9.224700000000
       212    1       55.949550000000       5.700450000000       9.224700000000
       213    2       55.949550000000       1.900153800300       7.501692084600
       214    2       59.240700000000       7.600603800300       7.501692084600
       215    2       52.658400000000       1.900153800300       7.501692084600
       216    2       55.949550000000       7.600603800300       7.501692084600
       217    1       64.177425000000       2.850225000000       9.224700000000
       218    1       60.886275000000       8.550675000000       9.224700000000
       219    1       60.886275000000       2.850225000000       9.224700000000
       220    1       64.177425000000       8.550675000000       9.224700000000
       221    2       64.177425000000       0.950071199700      10.947707915400
       222    1       62.531850000000      11.400900000000       9.224700000000
       223    2       60.886275000000       6.650521199700      10.947707915400
       224    1       65.823000000000       5.700450000000       9.224700000000
       225    2       65.823000000000       3.800296199700      10.947707915400
       226    2       62.531850000000       3.800296199700      10.947707915400
       227    2       60.886275000000       0.950071199700      10.947707915400
       228    2       65.823000000000       9.500746199700      10.947707915400
       229    2       62.531850000000       9.500746199700      10.947707915400
       230    2       64.177425000000       6.650521199700      10.947707915400
       231    2       64.177425000000       4.750378800300       7.501692084600
       232    2       60.886275000000       4.750378800300       7.501692084600
       233    2       60.886275000000      10.450828800300       7.501692084600
       234    2       64.177425000000      10.450828800300       7.501692084600
       235    1       59.240700000000      11.400900000000       9.224700000000
       236    1       62.531850000000       5.700450000000       9.224700000000
       237    2       62.531850000000       1.900153800300       7.501692084600
       238    2       65.823000000000       7.600603800300       7.501692084600
       239    2       59.240700000000       1.900153800300       7.501692084600
       240    2       62.531850000000       7.600603800300       7.501692084600
       241    1       70.759725000000       2.850225000000       9.224700000000
       242    1       67.468575000000       8.550675000000       9.224700000000
       243    1       67.468575000000       2.850225000000       9.224700000000
       244    1       70.759725000000       8.550675000000       9.224700000000
       245    2       70.759725000000       0.950071199700      10.947707915400
       246    1       69.114150000000      11.400900000000       9.224700000000
       247    2       67.468575000000       6.650521199700      10.947707915400
       248    1       72.405300000000       5.700450000000       9.224700000000
       249    2       72.405300000000       3.800296199700      10.947707915400
       250    2       69.114150000000       3.800296199700      10.947707915400
       251    2       67.468575000000       0.950071199700      10.947707915400
       252    2       72.405300000000       9.500746199700      10.947707915400
       253    2       69.114150000000       9.500746199700      10.947707915400
       254    2       70.759725000000       6.650521199700      10.947707915400
       255    2       70.759725000000       4.750378800300       7.501692084600
       256    2       67.468575000000       4.750378800300       7.501692084600
       257    2       67.468575000000      10.450828800300       7.501692084600
       258    2       70.759725000000      10.450828800300       7.501692084600
       259    1       65.823000000000      11.400900000000       9.224700000000
       260    1       69.114150000000       5.700450000000       9.224700000000
       261    2       69.114150000000       1.900153800300       7.501692084600
       262    2       72.405300000000       7.600603800300       7.501692084600
       263    2       65.823000000000       1.900153800300       7.501692084600
       264    2       69.114150000000       7.600603800300       7.501692084600
       265    1       77.342025000000       2.850225000000       9.224700000000
       266    1       74.050875000000       8.550675000000       9.224700000000
       267    1       74.050875000000       2.850225000000       9.224700000000
       268    1       77.342025000000       8.550675000000       9.224700000000
       269    2       77.342025000000       0.950071199700      10.947707915400
       270    1       75.696450000000      11.400900000000       9.224700000000
       271    2       74.050875000000       6.650521199700      10.947707915400
       272    1       78.987600000000       5.700450000000       9.224700000000
       273    2       78.987600000000       3.800296199700      10.947707915400
       274    2       75.696450000000       3.800296199700      10.947707915400
       275    2       74.050875000000       0.950071199700      10.947707915400
       276    2       78.987600000000       9.500746199700      10.947707915400
       277    2       75.696450000000       9.500746199700      10.947707915400
       278    2       77.342025000000       6.650521199700      10.947707915400
       279    2       77.342025000000       4.750378800300       7.501692084600
       280    2       74.050875000000       4.750378800300       7.501692084600
       281    2       74.050875000000      10.450828800300       7.501692084600
       282    2       77.342025000000      10.450828800300       7.501692084600
       283    1       72.405300000000      11.400900000000       9.224700000000
       284    1       75.696450000000       5.700450000000       9.224700000000
       285    2       75.696450000000       1.900153800300       7.501692084600
       286    2       78.987600000000       7.600603800300       7.501692084600
       287    2       72.405300000000       1.900153800300       7.501692084600
       288    2       75.696450000000       7.600603800300       7.501692084600
       289    1       83.924325000000       2.850225000000       9.224700000000
       290    1       80.633175000000       8.550675000000       9.224700000000
       291    1       80.633175000000       2.850225000000       9.224700000000
       292    1       83.924325000000       8.550675000000       9.224700000000
       293    2       83.924325000000       0.950071199700      10.947707915400
       294    1       82.278750000000      11.400900000000       9.224700000000
       295    2       80.633175000000       6.650521199700      10.947707915400
       296    1       85.569900000000       5.700450000000       9.224700000000
       297    2       85.569900000000       3.800296199700      10.947707915400
       298    2       82.278750000000       3.800296199700      10.947707915400
       299    2       80.633175000000       0.950071199700      10.947707915400
       300    2       85.569900000000       9.500746199700      10.947707915400
       301    2       82.278750000000       9.500746199700      10.947707915400
       302    2       83.924325000000       6.650521199700      10.947707915400
       303    2       83.924325000000       4.750378800300       7.501692084600
       304    2       80.633175000000       4.750378800300       7.501692084600
       305    2       80.633175000000      10.450828800300       7.501692084600
       306    2       83.924325000000      10.450828800300       7.501692084600
       307    1       78.987600000000      11.400900000000       9.224700000000
       308    1       82.278750000000       5.700450000000       9.224700000000
       309    2       82.278750000000       1.900153800300       7.501692084600
       310    2       85.569900000000       7.600603800300       7.501692084600
       311    2       78.987600000000       1.900153800300       7.501692084600
       312    2       82.278750000000       7.600603800300       7.501692084600
       313    1       90.506625000000       2.850225000000       9.224700000000
       314    1       87.215475000000       8.550675000000       9.224700000000
       315    1       87.215475000000       2.850225000000       9.224700000000
       316    1       90.506625000000       8.550675000000       9.224700000000
       317    2       90.506625000000       0.950071199700      10.947707915400
       318    1       88.861050000000      11.400900000000       9.224700000000
       319    2       87.215475000000       6.650521199700      10.947707915400
       320    1       92.152200000000       5.700450000000       9.224700000000
       321    2       92.152200000000       3.800296199700      10.947707915400
       322    2       88.861050000000       3.800296199700      10.947707915400
       323    2       87.215475000000       0.950071199700      10.947707915400
       324    2       92.152200000000       9.500746199700      10.947707915400
       325    2       88.861050000000       9.500746199700      10.947707915400
       326    2       90.506625000000       6.650521199700      10.947707915400
       327    2       90.506625000000       4.750378800300       7.501692084600
       328    2       87.215475000000       4.750378800300       7.501692084600
       329    2       87.215475000000      10.450828800300       7.501692084600
       330    2       90.506625000000      10.450828800300       7.501692084600
       331    1       85.569900000000      11.400900000000       9.224700000000
       332    1       88.861050000000       5.700450000000       9.224700000000
       333    2       88.861050000000       1.900153800300       7.501692084600
       334    2       92.152200000000       7.600603800300       7.501692084600
       335    2       85.569900000000       1.900153800300       7.501692084600
       336    2       88.861050000000       7.600603800300       7.501692084600
       337    1       97.088925000000       2.850225000000       9.224700000000
       338    1       93.797775000000       8.550675000000       9.224700000000
       339    1       93.797775000000       2.850225000000       9.224700000000
       340    1       97.088925000000       8.550675000000       9.224700000000
       341    2       97.088925000000       0.950071199700      10.947707915400
       342    1       95.443350000000      11.400900000000       9.224700000000
       343    2       93.797775000000       6.650521199700      10.947707915400
       344    1       98.734500000000       5.700450000000       9.224700000000
       345    2       98.734500000000       3.800296199700      10.947707915400
       346    2       95.443350000000       3.800296199700      10.947707915400
       347    2       93.797775000000       0.950071199700      10.947707915400
       348    2       98.734500000000       9.500746199700      10.947707915400
       349    2       95.443350000000       9.500746199700      10.947707915400
       350    2       97.088925000000       6.650521199700      10.947707915400
       351    2       97.088925000000       4.750378800300       7.501692084600
       352    2       93.797775000000       4.750378800300       7.501692084600
       353    2       93.797775000000      10.450828800300       7.501692084600
       354    2       97.088925000000      10.450828800300       7.501692084600
       355    1       92.152200000000      11.400900000000       9.224700000000
       356    1       95.443350000000       5.700450000000       9.224700000000
       357    2       95.443350000000       1.900153800300       7.501692084600
       358    2       98.734500000000       7.600603800300       7.501692084600
       359    2       92.152200000000       1.900153800300       7.501692084600
       360    2       95.443350000000       7.600603800300       7.501692084600
       361    1        4.936725000000      14.251125000000       9.224700000000
       362    1        1.645575000000      19.951575000000       9.224700000000
       363    1        1.645575000000      14.251125000000       9.224700000000
       364    1        4.936725000000      19.951575000000       9.224700000000
       365    2        4.936725000000      12.350971199700      10.947707915400
       366    1        3.291150000000      22.801800000000       9.224700000000
       367    2        1.645575000000      18.051421199700      10.947707915400
       368    1        6.582300000000      17.101350000000       9.224700000000
       369    2        6.582300000000      15.201196199700      10.947707915400
       370    2        3.291150000000      15.201196199700      10.947707915400