 # W8 Te16
  
        2688  atoms
           2  atom types
 
      0.000000000000      98.197400000000  xlo xhi
      0.000000000000      97.190400000000  ylo yhi
      0.000000000000      18.733900000000  zlo zhi
 
Masses
 
            1   183.84000000            # W
            2   127.60000000            # Te
 
Atoms # atomic
 
         1    1        1.753525000000       3.037200000000       9.366950000000
         2    1        5.260575000000       9.111600000000       9.366950000000
         3    2        3.507050000000       4.049595950400      11.224153910400
         4    2        0.000000000000      10.123995950400      11.224153910400
         5    2        5.260575000000       5.062004049600       7.509746089600
         6    2        1.753525000000      11.136404049600       7.509746089600
         7    2        3.507050000000       2.024804049600       7.509746089600
         8    2        0.000000000000       4.049595950400      11.224153910400
         9    2        0.000000000000       8.099204049600       7.509746089600
        10    2        5.260575000000       1.012395950400      11.224153910400
        11    2        1.753525000000       7.086795950400      11.224153910400
        12    2        3.507050000000      10.123995950400      11.224153910400
        13    2        1.753525000000       5.062004049600       7.509746089600
        14    2        5.260575000000      11.136404049600       7.509746089600
        15    1        3.507050000000      12.148800000000       9.366950000000
        16    1        0.000000000000       6.074400000000       9.366950000000
        17    2        1.753525000000       1.012395950400      11.224153910400
        18    2        5.260575000000       7.086795950400      11.224153910400
        19    1        5.260575000000       3.037200000000       9.366950000000
        20    1        1.753525000000       9.111600000000       9.366950000000
        21    2        7.014100000000       2.024804049600       7.509746089600
        22    2        3.507050000000       8.099204049600       7.509746089600
        23    1        0.000000000000      12.148800000000       9.366950000000
        24    1        3.507050000000       6.074400000000       9.366950000000
        25    1        8.767625000000       3.037200000000       9.366950000000
        26    1       12.274675000000       9.111600000000       9.366950000000
        27    2       10.521150000000       4.049595950400      11.224153910400
        28    2        7.014100000000      10.123995950400      11.224153910400
        29    2       12.274675000000       5.062004049600       7.509746089600
        30    2        8.767625000000      11.136404049600       7.509746089600
        31    2       10.521150000000       2.024804049600       7.509746089600
        32    2        7.014100000000       4.049595950400      11.224153910400
        33    2        7.014100000000       8.099204049600       7.509746089600
        34    2       12.274675000000       1.012395950400      11.224153910400
        35    2        8.767625000000       7.086795950400      11.224153910400
        36    2       10.521150000000      10.123995950400      11.224153910400
        37    2        8.767625000000       5.062004049600       7.509746089600
        38    2       12.274675000000      11.136404049600       7.509746089600
        39    1       10.521150000000      12.148800000000       9.366950000000
        40    1        7.014100000000       6.074400000000       9.366950000000
        41    2        8.767625000000       1.012395950400      11.224153910400
        42    2       12.274675000000       7.086795950400      11.224153910400
        43    1       12.274675000000       3.037200000000       9.366950000000
        44    1        8.767625000000       9.111600000000       9.366950000000
        45    2       14.028200000000       2.024804049600       7.509746089600
        46    2       10.521150000000       8.099204049600       7.509746089600
        47    1        7.014100000000      12.148800000000       9.366950000000
        48    1       10.521150000000       6.074400000000       9.366950000000
        49    1       15.781725000000       3.037200000000       9.366950000000
        50    1       19.288775000000       9.111600000000       9.366950000000
        51    2       17.535250000000       4.049595950400      11.224153910400
        52    2       14.028200000000      10.123995950400      11.224153910400
        53    2       19.288775000000       5.062004049600       7.509746089600
        54    2       15.781725000000      11.136404049600       7.509746089600
        55    2       17.535250000000       2.024804049600       7.509746089600
        56    2       14.028200000000       4.049595950400      11.224153910400
        57    2       14.028200000000       8.099204049600       7.509746089600
        58    2       19.288775000000       1.012395950400      11.224153910400
        59    2       15.781725000000       7.086795950400      11.224153910400
        60    2       17.535250000000      10.123995950400      11.224153910400
        61    2       15.781725000000       5.062004049600       7.509746089600
        62    2       19.288775000000      11.136404049600       7.509746089600
        63    1       17.535250000000      12.148800000000       9.366950000000
        64    1       14.028200000000       6.074400000000       9.366950000000
        65    2       15.781725000000       1.012395950400      11.224153910400
        66    2       19.288775000000       7.086795950400      11.224153910400
        67    1       19.288775000000       3.037200000000       9.366950000000
        68    1       15.781725000000       9.111600000000       9.366950000000
        69    2       21.042300000000       2.024804049600       7.509746089600
        70    2       17.535250000000       8.099204049600       7.509746089600
        71    1       14.028200000000      12.148800000000       9.366950000000
        72    1       17.535250000000       6.074400000000       9.366950000000
        73    1       22.795825000000       3.037200000000       9.366950000000
        74    1       26.302875000000       9.111600000000       9.366950000000
        75    2       24.549350000000       4.049595950400      11.224153910400
        76    2       21.042300000000      10.123995950400      11.224153910400
        77    2       26.302875000000       5.062004049600       7.509746089600
        78    2       22.795825000000      11.136404049600       7.509746089600
        79    2       24.549350000000       2.024804049600       7.509746089600
        80    2       21.042300000000       4.049595950400      11.224153910400
        81    2       21.042300000000       8.099204049600       7.509746089600
        82    2       26.302875000000       1.012395950400      11.224153910400
        83    2       22.795825000000       7.086795950400      11.224153910400
        84    2       24.549350000000      10.123995950400      11.224153910400
        85    2       22.795825000000       5.062004049600       7.509746089600
        86    2       26.302875000000      11.136404049600       7.509746089600
        87    1       24.549350000000      12.148800000000       9.366950000000
        88    1       21.042300000000       6.074400000000       9.366950000000
        89    2       22.795825000000       1.012395950400      11.224153910400
        90    2       26.302875000000       7.086795950400      11.224153910400
        91    1       26.302875000000       3.037200000000       9.366950000000
        92    1       22.795825000000       9.111600000000       9.366950000000
        93    2       28.056400000000       2.024804049600       7.509746089600
        94    2       24.549350000000       8.099204049600       7.509746089600
        95    1       21.042300000000      12.148800000000       9.366950000000
        96    1       24.549350000000       6.074400000000       9.366950000000
        97    1       29.809925000000       3.037200000000       9.366950000000
        98    1       33.316975000000       9.111600000000       9.366950000000
        99    2       31.563450000000       4.049595950400      11.224153910400
       100    2       28.056400000000      10.123995950400      11.224153910400
       101    2       33.316975000000       5.062004049600       7.509746089600
       102    2       29.809925000000      11.136404049600       7.509746089600
       103    2       31.563450000000       2.024804049600       7.509746089600
       104    2       28.056400000000       4.049595950400      11.224153910400
       105    2       28.056400000000       8.099204049600       7.509746089600
       106    2       33.316975000000       1.012395950400      11.224153910400
       107    2       29.809925000000       7.086795950400      11.224153910400
       108    2       31.563450000000      10.123995950400      11.224153910400
       109    2       29.809925000000       5.062004049600       7.509746089600
       110    2       33.316975000000      11.136404049600       7.509746089600
       111    1       31.563450000000      12.148800000000       9.366950000000
       112    1       28.056400000000       6.074400000000       9.366950000000
       113    2       29.809925000000       1.012395950400      11.224153910400
       114    2       33.316975000000       7.086795950400      11.224153910400
       115    1       33.316975000000       3.037200000000       9.366950000000
       116    1       29.809925000000       9.111600000000       9.366950000000
       117    2       35.070500000000       2.024804049600       7.509746089600
       118    2       31.563450000000       8.099204049600       7.509746089600
       119    1       28.056400000000      12.148800000000       9.366950000000
       120    1       31.563450000000       6.074400000000       9.366950000000
       121    1       36.824025000000       3.037200000000       9.366950000000
       122    1       40.331075000000       9.111600000000       9.366950000000
       123    2       38.577550000000       4.049595950400      11.224153910400
       124    2       35.070500000000      10.123995950400      11.224153910400
       125    2       40.331075000000       5.062004049600       7.509746089600
       126    2       36.824025000000      11.136404049600       7.509746089600
       127    2       38.577550000000       2.024804049600       7.509746089600
       128    2       35.070500000000       4.049595950400      11.224153910400
       129    2       35.070500000000       8.099204049600       7.509746089600
       130    2       40.331075000000       1.012395950400      11.224153910400
       131    2       36.824025000000       7.086795950400      11.224153910400
       132    2       38.577550000000      10.123995950400      11.224153910400
       133    2       36.824025000000       5.062004049600       7.509746089600
       134    2       40.331075000000      11.136404049600       7.509746089600
       135    1       38.577550000000      12.148800000000       9.366950000000
       136    1       35.070500000000       6.074400000000       9.366950000000
       137    2       36.824025000000       1.012395950400      11.224153910400
       138    2       40.331075000000       7.086795950400      11.224153910400
       139    1       40.331075000000       3.037200000000       9.366950000000
       140    1       36.824025000000       9.111600000000       9.366950000000
       141    2       42.084600000000       2.024804049600       7.509746089600
       142    2       38.577550000000       8.099204049600       7.509746089600
       143    1       35.070500000000      12.148800000000       9.366950000000
       144    1       38.577550000000       6.074400000000       9.366950000000
       145    1       43.838125000000       3.037200000000       9.366950000000
       146    1       47.345175000000       9.111600000000       9.366950000000
       147    2       45.591650000000       4.049595950400      11.224153910400
       148    2       42.084600000000      10.123995950400      11.224153910400
       149    2       47.345175000000       5.062004049600       7.509746089600
       150    2       43.838125000000      11.136404049600       7.509746089600
       151    2       45.591650000000       2.024804049600       7.509746089600
       152    2       42.084600000000       4.049595950400      11.224153910400
       153    2       42.084600000000       8.099204049600       7.509746089600
       154    2       47.345175000000       1.012395950400      11.224153910400
       155    2       43.838125000000       7.086795950400      11.224153910400
       156    2       45.591650000000      10.123995950400      11.224153910400
       157    2       43.838125000000       5.062004049600       7.509746089600
       158    2       47.345175000000      11.136404049600       7.509746089600
       159    1       45.591650000000      12.148800000000       9.366950000000
       160    1       42.084600000000       6.074400000000       9.366950000000
       161    2       43.838125000000       1.012395950400      11.224153910400
       162    2       47.345175000000       7.086795950400      11.224153910400
       163    1       47.345175000000       3.037200000000       9.366950000000
       164    1       43.838125000000       9.111600000000       9.366950000000
       165    2       49.098700000000       2.024804049600       7.509746089600
       166    2       45.591650000000       8.099204049600       7.509746089600
       167    1       42.084600000000      12.148800000000       9.366950000000
       168    1       45.591650000000       6.074400000000       9.366950000000
       169    1       50.852225000000       3.037200000000       9.366950000000
       170    1       54.359275000000       9.111600000000       9.366950000000
       171    2       52.605750000000       4.049595950400      11.224153910400
       172    2       49.098700000000      10.123995950400      11.224153910400
       173    2       54.359275000000       5.062004049600       7.509746089600
       174    2       50.852225000000      11.136404049600       7.509746089600
       175    2       52.605750000000       2.024804049600       7.509746089600
       176    2       49.098700000000       4.049595950400      11.224153910400
       177    2       49.098700000000       8.099204049600       7.509746089600
       178    2       54.359275000000       1.012395950400      11.224153910400
       179    2       50.852225000000       7.086795950400      11.224153910400
       180    2       52.605750000000      10.123995950400      11.224153910400
       181    2       50.852225000000       5.062004049600       7.509746089600
       182    2       54.359275000000      11.136404049600       7.509746089600
       183    1       52.605750000000      12.148800000000       9.366950000000
       184    1       49.098700000000       6.074400000000       9.366950000000
       185    2       50.852225000000       1.012395950400      11.224153910400
       186    2       54.359275000000       7.086795950400      11.224153910400
       187    1       54.359275000000       3.037200000000       9.366950000000
       188    1       50.852225000000       9.111600000000       9.366950000000
       189    2       56.112800000000       2.024804049600       7.509746089600
       190    2       52.605750000000       8.099204049600       7.509746089600
       191    1       49.098700000000      12.148800000000       9.366950000000
       192    1       52.605750000000       6.074400000000       9.366950000000
       193    1       57.866325000000       3.037200000000       9.366950000000
       194    1       61.373375000000       9.111600000000       9.366950000000
       195    2       59.619850000000       4.049595950400      11.224153910400
       196    2       56.112800000000      10.123995950400      11.224153910400
       197    2       61.373375000000       5.062004049600       7.509746089600
       198    2       57.866325000000      11.136404049600       7.509746089600
       199    2       59.619850000000       2.024804049600       7.509746089600
       200    2       56.112800000000       4.049595950400      11.224153910400
       201    2       56.112800000000       8.099204049600       7.509746089600
       202    2       61.373375000000       1.012395950400      11.224153910400
       203    2       57.866325000000       7.086795950400      11.224153910400
       204    2       59.619850000000      10.123995950400      11.224153910400
       205    2       57.866325000000       5.062004049600       7.509746089600
       206    2       61.373375000000      11.136404049600       7.509746089600
       207    1       59.619850000000      12.148800000000       9.366950000000
       208    1       56.112800000000       6.074400000000       9.366950000000
       209    2       57.866325000000       1.012395950400      11.224153910400
       210    2       61.373375000000       7.086795950400      11.224153910400
       211    1       61.373375000000       3.037200000000       9.366950000000
       212    1       57.866325000000       9.111600000000       9.366950000000
       213    2       63.126900000000       2.024804049600       7.509746089600
       214    2       59.619850000000       8.099204049600       7.509746089600
       215    1       56.112800000000      12.148800000000       9.366950000000
       216    1       59.619850000000       6.074400000000       9.366950000000
       217    1       64.880425000000       3.037200000000       9.366950000000
       218    1       68.387475000000       9.111600000000       9.366950000000
       219    2       66.633950000000       4.049595950400      11.224153910400
       220    2       63.126900000000      10.123995950400      11.224153910400
       221    2       68.387475000000       5.062004049600       7.509746089600
       222    2       64.880425000000      11.136404049600       7.509746089600
       223    2       66.633950000000       2.024804049600       7.509746089600
       224    2       63.126900000000       4.049595950400      11.224153910400
       225    2       63.126900000000       8.099204049600       7.509746089600
       226    2       68.387475000000       1.012395950400      11.224153910400
       227    2       64.880425000000       7.086795950400      11.224153910400
       228    2       66.633950000000      10.123995950400      11.224153910400
       229    2       64.880425000000       5.062004049600       7.509746089600
       230    2       68.387475000000      11.136404049600       7.509746089600
       231    1       66.633950000000      12.148800000000       9.366950000000
       232    1       63.126900000000       6.074400000000       9.366950000000
       233    2       64.880425000000       1.012395950400      11.224153910400
       234    2       68.387475000000       7.086795950400      11.224153910400
       235    1       68.387475000000       3.037200000000       9.366950000000
       236    1       64.880425000000       9.111600000000       9.366950000000
       237    2       70.141000000000       2.024804049600       7.509746089600
       238    2       66.633950000000       8.099204049600       7.509746089600
       239    1       63.126900000000      12.148800000000       9.366950000000
       240    1       66.633950000000       6.074400000000       9.366950000000
       241    1       71.894525000000       3.037200000000       9.366950000000
       242    1       75.401575000000       9.111600000000       9.366950000000
       243    2       73.648050000000       4.049595950400      11.224153910400
       244    2       70.141000000000      10.123995950400      11.224153910400
       245    2       75.401575000000       5.062004049600       7.509746089600
       246    2       71.894525000000      11.136404049600       7.509746089600
       247    2       73.648050000000       2.024804049600       7.509746089600
       248    2       70.141000000000       4.049595950400      11.224153910400
       249    2       70.141000000000       8.099204049600       7.509746089600
       250    2       75.401575000000       1.012395950400      11.224153910400
       251    2       71.894525000000       7.086795950400      11.224153910400
       252    2       73.648050000000      10.123995950400      11.224153910400
       253    2       71.894525000000       5.062004049600       7.509746089600
       254    2       75.401575000000      11.136404049600       7.509746089600
       255    1       73.648050000000      12.148800000000       9.366950000000
       256    1       70.141000000000       6.074400000000       9.366950000000
       257    2       71.894525000000       1.012395950400      11.224153910400
       258    2       75.401575000000       7.086795950400      11.224153910400
       259    1       75.401575000000       3.037200000000       9.366950000000
       260    1       71.894525000000       9.111600000000       9.366950000000
       261    2       77.155100000000       2.024804049600       7.509746089600
       262    2       73.648050000000       8.099204049600       7.509746089600
       263    1       70.141000000000      12.148800000000       9.366950000000
       264    1       73.648050000000       6.074400000000       9.366950000000
       265    1       78.908625000000       3.037200000000       9.366950000000
       266    1       82.415675000000       9.111600000000       9.366950000000
       267    2       80.662150000000       4.049595950400      11.224153910400
       268    2       77.155100000000      10.123995950400      11.224153910400
       269    2       82.415675000000       5.062004049600       7.509746089600
       270    2       78.908625000000      11.136404049600       7.509746089600
       271    2       80.662150000000       2.024804049600       7.509746089600
       272    2       77.155100000000       4.049595950400      11.224153910400
       273    2       77.155100000000       8.099204049600       7.509746089600
       274    2       82.415675000000       1.012395950400      11.224153910400
       275    2       78.908625000000       7.086795950400      11.224153910400
       276    2       80.662150000000      10.123995950400      11.224153910400
       277    2       78.908625000000       5.062004049600       7.509746089600
       278    2       82.415675000000      11.136404049600       7.509746089600
       279    1       80.662150000000      12.148800000000       9.366950000000
       280    1       77.155100000000       6.074400000000       9.366950000000
       281    2       78.908625000000       1.012395950400      11.224153910400
       282    2       82.415675000000       7.086795950400      11.224153910400
       283    1       82.415675000000       3.037200000000       9.366950000000
       284    1       78.908625000000       9.111600000000       9.366950000000
       285    2       84.169200000000       2.024804049600       7.509746089600
       286    2       80.662150000000       8.099204049600       7.509746089600
       287    1       77.155100000000      12.148800000000       9.366950000000
       288    1       80.662150000000       6.074400000000       9.366950000000
       289    1       85.922725000000       3.037200000000       9.366950000000
       290    1       89.429775000000       9.111600000000       9.366950000000
       291    2       87.676250000000       4.049595950400      11.224153910400
       292    2       84.169200000000      10.123995950400      11.224153910400
       293    2       89.429775000000       5.062004049600       7.509746089600
       294    2       85.922725000000      11.136404049600       7.509746089600
       295    2       87.676250000000       2.024804049600       7.509746089600
       296    2       84.169200000000       4.049595950400      11.224153910400
       297    2       84.169200000000       8.099204049600       7.509746089600
       298    2       89.429775000000       1.012395950400      11.224153910400
       299    2       85.922725000000       7.086795950400      11.224153910400
       300    2       87.676250000000      10.123995950400      11.224153910400
       301    2       85.922725000000       5.062004049600       7.509746089600
       302    2       89.429775000000      11.136404049600       7.509746089600
       303    1       87.676250000000      12.148800000000       9.366950000000
       304    1       84.169200000000       6.074400000000       9.366950000000
       305    2       85.922725000000       1.012395950400      11.224153910400
       306    2       89.429775000000       7.086795950400      11.224153910400
       307    1       89.429775000000       3.037200000000       9.366950000000
       308    1       85.922725000000       9.111600000000       9.366950000000
       309    2       91.183300000000       2.024804049600       7.509746089600
       310    2       87.676250000000       8.099204049600       7.509746089600
       311    1       84.169200000000      12.148800000000       9.366950000000
       312    1       87.676250000000       6.074400000000       9.366950000000
       313    1       92.936825000000       3.037200000000       9.366950000000
       314    1       96.443875000000       9.111600000000       9.366950000000
       315    2       94.690350000000       4.049595950400      11.224153910400
       316    2       91.183300000000      10.123995950400      11.224153910400
       317    2       96.443875000000       5.062004049600       7.509746089600
       318    2       92.936825000000      11.136404049600       7.509746089600
       319    2       94.690350000000       2.024804049600       7.509746089600
       320    2       91.183300000000       4.049595950400      11.224153910400
       321    2       91.183300000000       8.099204049600       7.509746089600
       322    2       96.443875000000       1.012395950400      11.224153910400
       323    2       92.936825000000       7.086795950400      11.224153910400
       324    2       94.690350000000      10.123995950400      11.224153910400
       325    2       92.936825000000       5.062004049600       7.509746089600
       326    2       96.443875000000      11.136404049600       7.509746089600
       327    1       94.690350000000      12.148800000000       9.366950000000
       328    1       91.183300000000       6.074400000000       9.366950000000
       329    2       92.936825000000       1.012395950400      11.224153910400
       330    2       96.443875000000       7.086795950400      11.224153910400
       331    1       96.443875000000       3.037200000000       9.366950000000
       332    1       92.936825000000       9.111600000000       9.366950000000
       333    2       98.197400000000       2.024804049600       7.509746089600
       334    2       94.690350000000       8.099204049600       7.509746089600
       335    1       91.183300000000      12.148800000000       9.366950000000
       336    1       94.690350000000       6.074400000000       9.366950000000
       337    1        1.753525000000      15.186000000000       9.366950000000
       338    1        5.260575000000      21.260400000000       9.366950000000
       339    2        3.507050000000      16.198395950400      11.224153910400
       340    2        0.000000000000      22.272795950400      11.224153910400
       341    2        5.260575000000      17.210804049600       7.509746089600
       342    2        1.753525000000      23.285204049600       7.509746089600
       343    2        3.507050000000      14.173604049600       7.509746089600
       344    2        0.000000000000      16.198395950400      11.224153910400
       345    2        0.000000000000      20.248004049600       7.509746089600
       346    2        5.260575000000      13.161195950400      11.224153910400
       347    2        1.753525000000      19.235595950400      11.224153910400
       348    2        3.507050000000      22.272795950400      11.224153910400
       349    2        1.753525000000      17.210804049600       7.509746089600
       350    2        5.260575000000      23.285204049600       7.509746089600
       351    1        3.507050000000      24.297600000000       9.366950000000
       352    1        0.000000000000      18.223200000000       9.366950000000
       353    2        1.753525000000      13.161195950400      11.224153910400
       354    2        5.260575000000      19.235595950400      11.224153910400
       355    1        5.260575000000      15.186000000000       9.366950000000
       356    1        1.753525000000      21.260400000000       9.366950000000
       357    2        7.014100000000      14.173604049600       7.509746089600
       358    2        3.507050000000      20.248004049600       7.509746089600
       359    1        0.000000000000      24.297600000000       9.366950000000
       360    1        3.507050000000      18.223200000000       9.366950000000
       361    1        8.767625000000      15.186000000000       9.366950000000
       362    1       12.274675000000      21.260400000000       9.366950000000
       363    2       10.521150000000      16.198395950400      11.224153910400
       364    2        7.014100000000      22.272795950400      11.224153910400
       365    2       12.274675000000      17.210804049600       7.509746089600
       366    2        8.767625000000      23.285204049600       7.509746089600
       367    2       10.521150000000      14.173604049600       7.509746089600
       368    2        7.014100000000      16.198395950400      11.224153910400
       369    2        7.014100000000      20.248004049600       7.509746089600
       370    2       12.274675000000      13.161195950400      11.224153910400