 # Zr8 S16
  
        2688  atoms
           2  atom types
 
      0.000000000000     103.103000000000  xlo xhi
      0.000000000000     102.046400000000  ylo yhi
      0.000000000000      17.891300000000  zlo zhi
 
Masses
 
            1   91.22400000             # Zr
            2   32.06000000             # S
 
Atoms # atomic
 
         1    1        3.682250000000       0.000000000000       8.945650000000
         2    1        0.000000000000       6.377900000000       8.945650000000
         3    2        5.523375000000       5.314920918600       7.499764590500
         4    2        1.841125000000      11.692820918600       7.499764590500
         5    2        0.000000000000       4.251929081400      10.391535409500
         6    2        5.523375000000       1.062979081400      10.391535409500
         7    2        3.682250000000      10.629829081400      10.391535409500
         8    2        1.841125000000       7.440879081400      10.391535409500
         9    1        5.523375000000       3.188950000000       8.945650000000
        10    1        1.841125000000       9.566850000000       8.945650000000
        11    2        1.841125000000       1.062979081400      10.391535409500
        12    2        5.523375000000       7.440879081400      10.391535409500
        13    2        0.000000000000       2.125970918600       7.499764590500
        14    2        3.682250000000       8.503870918600       7.499764590500
        15    1        1.841125000000       3.188950000000       8.945650000000
        16    1        5.523375000000       9.566850000000       8.945650000000
        17    2        3.682250000000       2.125970918600       7.499764590500
        18    1        0.000000000000       0.000000000000       8.945650000000
        19    2        0.000000000000       8.503870918600       7.499764590500
        20    1        3.682250000000       6.377900000000       8.945650000000
        21    2        3.682250000000       4.251929081400      10.391535409500
        22    2        0.000000000000      10.629829081400      10.391535409500
        23    2        1.841125000000       5.314920918600       7.499764590500
        24    2        5.523375000000      11.692820918600       7.499764590500
        25    1       11.046750000000       0.000000000000       8.945650000000
        26    1        7.364500000000       6.377900000000       8.945650000000
        27    2       12.887875000000       5.314920918600       7.499764590500
        28    2        9.205625000000      11.692820918600       7.499764590500
        29    2        7.364500000000       4.251929081400      10.391535409500
        30    2       12.887875000000       1.062979081400      10.391535409500
        31    2       11.046750000000      10.629829081400      10.391535409500
        32    2        9.205625000000       7.440879081400      10.391535409500
        33    1       12.887875000000       3.188950000000       8.945650000000
        34    1        9.205625000000       9.566850000000       8.945650000000
        35    2        9.205625000000       1.062979081400      10.391535409500
        36    2       12.887875000000       7.440879081400      10.391535409500
        37    2        7.364500000000       2.125970918600       7.499764590500
        38    2       11.046750000000       8.503870918600       7.499764590500
        39    1        9.205625000000       3.188950000000       8.945650000000
        40    1       12.887875000000       9.566850000000       8.945650000000
        41    2       11.046750000000       2.125970918600       7.499764590500
        42    1        7.364500000000       0.000000000000       8.945650000000
        43    2        7.364500000000       8.503870918600       7.499764590500
        44    1       11.046750000000       6.377900000000       8.945650000000
        45    2       11.046750000000       4.251929081400      10.391535409500
        46    2        7.364500000000      10.629829081400      10.391535409500
        47    2        9.205625000000       5.314920918600       7.499764590500
        48    2       12.887875000000      11.692820918600       7.499764590500
        49    1       18.411250000000       0.000000000000       8.945650000000
        50    1       14.729000000000       6.377900000000       8.945650000000
        51    2       20.252375000000       5.314920918600       7.499764590500
        52    2       16.570125000000      11.692820918600       7.499764590500
        53    2       14.729000000000       4.251929081400      10.391535409500
        54    2       20.252375000000       1.062979081400      10.391535409500
        55    2       18.411250000000      10.629829081400      10.391535409500
        56    2       16.570125000000       7.440879081400      10.391535409500
        57    1       20.252375000000       3.188950000000       8.945650000000
        58    1       16.570125000000       9.566850000000       8.945650000000
        59    2       16.570125000000       1.062979081400      10.391535409500
        60    2       20.252375000000       7.440879081400      10.391535409500
        61    2       14.729000000000       2.125970918600       7.499764590500
        62    2       18.411250000000       8.503870918600       7.499764590500
        63    1       16.570125000000       3.188950000000       8.945650000000
        64    1       20.252375000000       9.566850000000       8.945650000000
        65    2       18.411250000000       2.125970918600       7.499764590500
        66    1       14.729000000000       0.000000000000       8.945650000000
        67    2       14.729000000000       8.503870918600       7.499764590500
        68    1       18.411250000000       6.377900000000       8.945650000000
        69    2       18.411250000000       4.251929081400      10.391535409500
        70    2       14.729000000000      10.629829081400      10.391535409500
        71    2       16.570125000000       5.314920918600       7.499764590500
        72    2       20.252375000000      11.692820918600       7.499764590500
        73    1       25.775750000000       0.000000000000       8.945650000000
        74    1       22.093500000000       6.377900000000       8.945650000000
        75    2       27.616875000000       5.314920918600       7.499764590500
        76    2       23.934625000000      11.692820918600       7.499764590500
        77    2       22.093500000000       4.251929081400      10.391535409500
        78    2       27.616875000000       1.062979081400      10.391535409500
        79    2       25.775750000000      10.629829081400      10.391535409500
        80    2       23.934625000000       7.440879081400      10.391535409500
        81    1       27.616875000000       3.188950000000       8.945650000000
        82    1       23.934625000000       9.566850000000       8.945650000000
        83    2       23.934625000000       1.062979081400      10.391535409500
        84    2       27.616875000000       7.440879081400      10.391535409500
        85    2       22.093500000000       2.125970918600       7.499764590500
        86    2       25.775750000000       8.503870918600       7.499764590500
        87    1       23.934625000000       3.188950000000       8.945650000000
        88    1       27.616875000000       9.566850000000       8.945650000000
        89    2       25.775750000000       2.125970918600       7.499764590500
        90    1       22.093500000000       0.000000000000       8.945650000000
        91    2       22.093500000000       8.503870918600       7.499764590500
        92    1       25.775750000000       6.377900000000       8.945650000000
        93    2       25.775750000000       4.251929081400      10.391535409500
        94    2       22.093500000000      10.629829081400      10.391535409500
        95    2       23.934625000000       5.314920918600       7.499764590500
        96    2       27.616875000000      11.692820918600       7.499764590500
        97    1       33.140250000000       0.000000000000       8.945650000000
        98    1       29.458000000000       6.377900000000       8.945650000000
        99    2       34.981375000000       5.314920918600       7.499764590500
       100    2       31.299125000000      11.692820918600       7.499764590500
       101    2       29.458000000000       4.251929081400      10.391535409500
       102    2       34.981375000000       1.062979081400      10.391535409500
       103    2       33.140250000000      10.629829081400      10.391535409500
       104    2       31.299125000000       7.440879081400      10.391535409500
       105    1       34.981375000000       3.188950000000       8.945650000000
       106    1       31.299125000000       9.566850000000       8.945650000000
       107    2       31.299125000000       1.062979081400      10.391535409500
       108    2       34.981375000000       7.440879081400      10.391535409500
       109    2       29.458000000000       2.125970918600       7.499764590500
       110    2       33.140250000000       8.503870918600       7.499764590500
       111    1       31.299125000000       3.188950000000       8.945650000000
       112    1       34.981375000000       9.566850000000       8.945650000000
       113    2       33.140250000000       2.125970918600       7.499764590500
       114    1       29.458000000000       0.000000000000       8.945650000000
       115    2       29.458000000000       8.503870918600       7.499764590500
       116    1       33.140250000000       6.377900000000       8.945650000000
       117    2       33.140250000000       4.251929081400      10.391535409500
       118    2       29.458000000000      10.629829081400      10.391535409500
       119    2       31.299125000000       5.314920918600       7.499764590500
       120    2       34.981375000000      11.692820918600       7.499764590500
       121    1       40.504750000000       0.000000000000       8.945650000000
       122    1       36.822500000000       6.377900000000       8.945650000000
       123    2       42.345875000000       5.314920918600       7.499764590500
       124    2       38.663625000000      11.692820918600       7.499764590500
       125    2       36.822500000000       4.251929081400      10.391535409500
       126    2       42.345875000000       1.062979081400      10.391535409500
       127    2       40.504750000000      10.629829081400      10.391535409500
       128    2       38.663625000000       7.440879081400      10.391535409500
       129    1       42.345875000000       3.188950000000       8.945650000000
       130    1       38.663625000000       9.566850000000       8.945650000000
       131    2       38.663625000000       1.062979081400      10.391535409500
       132    2       42.345875000000       7.440879081400      10.391535409500
       133    2       36.822500000000       2.125970918600       7.499764590500
       134    2       40.504750000000       8.503870918600       7.499764590500
       135    1       38.663625000000       3.188950000000       8.945650000000
       136    1       42.345875000000       9.566850000000       8.945650000000
       137    2       40.504750000000       2.125970918600       7.499764590500
       138    1       36.822500000000       0.000000000000       8.945650000000
       139    2       36.822500000000       8.503870918600       7.499764590500
       140    1       40.504750000000       6.377900000000       8.945650000000
       141    2       40.504750000000       4.251929081400      10.391535409500
       142    2       36.822500000000      10.629829081400      10.391535409500
       143    2       38.663625000000       5.314920918600       7.499764590500
       144    2       42.345875000000      11.692820918600       7.499764590500
       145    1       47.869250000000       0.000000000000       8.945650000000
       146    1       44.187000000000       6.377900000000       8.945650000000
       147    2       49.710375000000       5.314920918600       7.499764590500
       148    2       46.028125000000      11.692820918600       7.499764590500
       149    2       44.187000000000       4.251929081400      10.391535409500
       150    2       49.710375000000       1.062979081400      10.391535409500
       151    2       47.869250000000      10.629829081400      10.391535409500
       152    2       46.028125000000       7.440879081400      10.391535409500
       153    1       49.710375000000       3.188950000000       8.945650000000
       154    1       46.028125000000       9.566850000000       8.945650000000
       155    2       46.028125000000       1.062979081400      10.391535409500
       156    2       49.710375000000       7.440879081400      10.391535409500
       157    2       44.187000000000       2.125970918600       7.499764590500
       158    2       47.869250000000       8.503870918600       7.499764590500
       159    1       46.028125000000       3.188950000000       8.945650000000
       160    1       49.710375000000       9.566850000000       8.945650000000
       161    2       47.869250000000       2.125970918600       7.499764590500
       162    1       44.187000000000       0.000000000000       8.945650000000
       163    2       44.187000000000       8.503870918600       7.499764590500
       164    1       47.869250000000       6.377900000000       8.945650000000
       165    2       47.869250000000       4.251929081400      10.391535409500
       166    2       44.187000000000      10.629829081400      10.391535409500
       167    2       46.028125000000       5.314920918600       7.499764590500
       168    2       49.710375000000      11.692820918600       7.499764590500
       169    1       55.233750000000       0.000000000000       8.945650000000
       170    1       51.551500000000       6.377900000000       8.945650000000
       171    2       57.074875000000       5.314920918600       7.499764590500
       172    2       53.392625000000      11.692820918600       7.499764590500
       173    2       51.551500000000       4.251929081400      10.391535409500
       174    2       57.074875000000       1.062979081400      10.391535409500
       175    2       55.233750000000      10.629829081400      10.391535409500
       176    2       53.392625000000       7.440879081400      10.391535409500
       177    1       57.074875000000       3.188950000000       8.945650000000
       178    1       53.392625000000       9.566850000000       8.945650000000
       179    2       53.392625000000       1.062979081400      10.391535409500
       180    2       57.074875000000       7.440879081400      10.391535409500
       181    2       51.551500000000       2.125970918600       7.499764590500
       182    2       55.233750000000       8.503870918600       7.499764590500
       183    1       53.392625000000       3.188950000000       8.945650000000
       184    1       57.074875000000       9.566850000000       8.945650000000
       185    2       55.233750000000       2.125970918600       7.499764590500
       186    1       51.551500000000       0.000000000000       8.945650000000
       187    2       51.551500000000       8.503870918600       7.499764590500
       188    1       55.233750000000       6.377900000000       8.945650000000
       189    2       55.233750000000       4.251929081400      10.391535409500
       190    2       51.551500000000      10.629829081400      10.391535409500
       191    2       53.392625000000       5.314920918600       7.499764590500
       192    2       57.074875000000      11.692820918600       7.499764590500
       193    1       62.598250000000       0.000000000000       8.945650000000
       194    1       58.916000000000       6.377900000000       8.945650000000
       195    2       64.439375000000       5.314920918600       7.499764590500
       196    2       60.757125000000      11.692820918600       7.499764590500
       197    2       58.916000000000       4.251929081400      10.391535409500
       198    2       64.439375000000       1.062979081400      10.391535409500
       199    2       62.598250000000      10.629829081400      10.391535409500
       200    2       60.757125000000       7.440879081400      10.391535409500
       201    1       64.439375000000       3.188950000000       8.945650000000
       202    1       60.757125000000       9.566850000000       8.945650000000
       203    2       60.757125000000       1.062979081400      10.391535409500
       204    2       64.439375000000       7.440879081400      10.391535409500
       205    2       58.916000000000       2.125970918600       7.499764590500
       206    2       62.598250000000       8.503870918600       7.499764590500
       207    1       60.757125000000       3.188950000000       8.945650000000
       208    1       64.439375000000       9.566850000000       8.945650000000
       209    2       62.598250000000       2.125970918600       7.499764590500
       210    1       58.916000000000       0.000000000000       8.945650000000
       211    2       58.916000000000       8.503870918600       7.499764590500
       212    1       62.598250000000       6.377900000000       8.945650000000
       213    2       62.598250000000       4.251929081400      10.391535409500
       214    2       58.916000000000      10.629829081400      10.391535409500
       215    2       60.757125000000       5.314920918600       7.499764590500
       216    2       64.439375000000      11.692820918600       7.499764590500
       217    1       69.962750000000       0.000000000000       8.945650000000
       218    1       66.280500000000       6.377900000000       8.945650000000
       219    2       71.803875000000       5.314920918600       7.499764590500
       220    2       68.121625000000      11.692820918600       7.499764590500
       221    2       66.280500000000       4.251929081400      10.391535409500
       222    2       71.803875000000       1.062979081400      10.391535409500
       223    2       69.962750000000      10.629829081400      10.391535409500
       224    2       68.121625000000       7.440879081400      10.391535409500
       225    1       71.803875000000       3.188950000000       8.945650000000
       226    1       68.121625000000       9.566850000000       8.945650000000
       227    2       68.121625000000       1.062979081400      10.391535409500
       228    2       71.803875000000       7.440879081400      10.391535409500
       229    2       66.280500000000       2.125970918600       7.499764590500
       230    2       69.962750000000       8.503870918600       7.499764590500
       231    1       68.121625000000       3.188950000000       8.945650000000
       232    1       71.803875000000       9.566850000000       8.945650000000
       233    2       69.962750000000       2.125970918600       7.499764590500
       234    1       66.280500000000       0.000000000000       8.945650000000
       235    2       66.280500000000       8.503870918600       7.499764590500
       236    1       69.962750000000       6.377900000000       8.945650000000
       237    2       69.962750000000       4.251929081400      10.391535409500
       238    2       66.280500000000      10.629829081400      10.391535409500
       239    2       68.121625000000       5.314920918600       7.499764590500
       240    2       71.803875000000      11.692820918600       7.499764590500
       241    1       77.327250000000       0.000000000000       8.945650000000
       242    1       73.645000000000       6.377900000000       8.945650000000
       243    2       79.168375000000       5.314920918600       7.499764590500
       244    2       75.486125000000      11.692820918600       7.499764590500
       245    2       73.645000000000       4.251929081400      10.391535409500
       246    2       79.168375000000       1.062979081400      10.391535409500
       247    2       77.327250000000      10.629829081400      10.391535409500
       248    2       75.486125000000       7.440879081400      10.391535409500
       249    1       79.168375000000       3.188950000000       8.945650000000
       250    1       75.486125000000       9.566850000000       8.945650000000
       251    2       75.486125000000       1.062979081400      10.391535409500
       252    2       79.168375000000       7.440879081400      10.391535409500
       253    2       73.645000000000       2.125970918600       7.499764590500
       254    2       77.327250000000       8.503870918600       7.499764590500
       255    1       75.486125000000       3.188950000000       8.945650000000
       256    1       79.168375000000       9.566850000000       8.945650000000
       257    2       77.327250000000       2.125970918600       7.499764590500
       258    1       73.645000000000       0.000000000000       8.945650000000
       259    2       73.645000000000       8.503870918600       7.499764590500
       260    1       77.327250000000       6.377900000000       8.945650000000
       261    2       77.327250000000       4.251929081400      10.391535409500
       262    2       73.645000000000      10.629829081400      10.391535409500
       263    2       75.486125000000       5.314920918600       7.499764590500
       264    2       79.168375000000      11.692820918600       7.499764590500
       265    1       84.691750000000       0.000000000000       8.945650000000
       266    1       81.009500000000       6.377900000000       8.945650000000
       267    2       86.532875000000       5.314920918600       7.499764590500
       268    2       82.850625000000      11.692820918600       7.499764590500
       269    2       81.009500000000       4.251929081400      10.391535409500
       270    2       86.532875000000       1.062979081400      10.391535409500
       271    2       84.691750000000      10.629829081400      10.391535409500
       272    2       82.850625000000       7.440879081400      10.391535409500
       273    1       86.532875000000       3.188950000000       8.945650000000
       274    1       82.850625000000       9.566850000000       8.945650000000
       275    2       82.850625000000       1.062979081400      10.391535409500
       276    2       86.532875000000       7.440879081400      10.391535409500
       277    2       81.009500000000       2.125970918600       7.499764590500
       278    2       84.691750000000       8.503870918600       7.499764590500
       279    1       82.850625000000       3.188950000000       8.945650000000
       280    1       86.532875000000       9.566850000000       8.945650000000
       281    2       84.691750000000       2.125970918600       7.499764590500
       282    1       81.009500000000       0.000000000000       8.945650000000
       283    2       81.009500000000       8.503870918600       7.499764590500
       284    1       84.691750000000       6.377900000000       8.945650000000
       285    2       84.691750000000       4.251929081400      10.391535409500
       286    2       81.009500000000      10.629829081400      10.391535409500
       287    2       82.850625000000       5.314920918600       7.499764590500
       288    2       86.532875000000      11.692820918600       7.499764590500
       289    1       92.056250000000       0.000000000000       8.945650000000
       290    1       88.374000000000       6.377900000000       8.945650000000
       291    2       93.897375000000       5.314920918600       7.499764590500
       292    2       90.215125000000      11.692820918600       7.499764590500
       293    2       88.374000000000       4.251929081400      10.391535409500
       294    2       93.897375000000       1.062979081400      10.391535409500
       295    2       92.056250000000      10.629829081400      10.391535409500
       296    2       90.215125000000       7.440879081400      10.391535409500
       297    1       93.897375000000       3.188950000000       8.945650000000
       298    1       90.215125000000       9.566850000000       8.945650000000
       299    2       90.215125000000       1.062979081400      10.391535409500
       300    2       93.897375000000       7.440879081400      10.391535409500
       301    2       88.374000000000       2.125970918600       7.499764590500
       302    2       92.056250000000       8.503870918600       7.499764590500
       303    1       90.215125000000       3.188950000000       8.945650000000
       304    1       93.897375000000       9.566850000000       8.945650000000
       305    2       92.056250000000       2.125970918600       7.499764590500
       306    1       88.374000000000       0.000000000000       8.945650000000
       307    2       88.374000000000       8.503870918600       7.499764590500
       308    1       92.056250000000       6.377900000000       8.945650000000
       309    2       92.056250000000       4.251929081400      10.391535409500
       310    2       88.374000000000      10.629829081400      10.391535409500
       311    2       90.215125000000       5.314920918600       7.499764590500
       312    2       93.897375000000      11.692820918600       7.499764590500
       313    1       99.420750000000       0.000000000000       8.945650000000
       314    1       95.738500000000       6.377900000000       8.945650000000
       315    2      101.261875000000       5.314920918600       7.499764590500
       316    2       97.579625000000      11.692820918600       7.499764590500
       317    2       95.738500000000       4.251929081400      10.391535409500
       318    2      101.261875000000       1.062979081400      10.391535409500
       319    2       99.420750000000      10.629829081400      10.391535409500
       320    2       97.579625000000       7.440879081400      10.391535409500
       321    1      101.261875000000       3.188950000000       8.945650000000
       322    1       97.579625000000       9.566850000000       8.945650000000
       323    2       97.579625000000       1.062979081400      10.391535409500
       324    2      101.261875000000       7.440879081400      10.391535409500
       325    2       95.738500000000       2.125970918600       7.499764590500
       326    2       99.420750000000       8.503870918600       7.499764590500
       327    1       97.579625000000       3.188950000000       8.945650000000
       328    1      101.261875000000       9.566850000000       8.945650000000
       329    2       99.420750000000       2.125970918600       7.499764590500
       330    1       95.738500000000       0.000000000000       8.945650000000
       331    2       95.738500000000       8.503870918600       7.499764590500
       332    1       99.420750000000       6.377900000000       8.945650000000
       333    2       99.420750000000       4.251929081400      10.391535409500
       334    2       95.738500000000      10.629829081400      10.391535409500
       335    2       97.579625000000       5.314920918600       7.499764590500
       336    2      101.261875000000      11.692820918600       7.499764590500
       337    1        3.682250000000      12.755800000000       8.945650000000
       338    1        0.000000000000      19.133700000000       8.945650000000
       339    2        5.523375000000      18.070720918600       7.499764590500
       340    2        1.841125000000      24.448620918600       7.499764590500
       341    2        0.000000000000      17.007729081400      10.391535409500
       342    2        5.523375000000      13.818779081400      10.391535409500
       343    2        3.682250000000      23.385629081400      10.391535409500
       344    2        1.841125000000      20.196679081400      10.391535409500
       345    1        5.523375000000      15.944750000000       8.945650000000
       346    1        1.841125000000      22.322650000000       8.945650000000
       347    2        1.841125000000      13.818779081400      10.391535409500
       348    2        5.523375000000      20.196679081400      10.391535409500
       349    2        0.000000000000      14.881770918600       7.499764590500
       350    2        3.682250000000      21.259670918600       7.499764590500
       351    1        1.841125000000      15.944750000000       8.945650000000
       352    1        5.523375000000      22.322650000000       8.945650000000
       353    2        3.682250000000      14.881770918600       7.499764590500
       354    1        0.000000000000      12.755800000000       8.945650000000
       355    2        0.000000000000      21.259670918600       7.499764590500
       356    1        3.682250000000      19.133700000000       8.945650000000
       357    2        3.682250000000      17.007729081400      10.391535409500
       358    2        0.000000000000      23.385629081400      10.391535409500
       359    2        1.841125000000      18.070720918600       7.499764590500
       360    2        5.523375000000      24.448620918600       7.499764590500
       361    1       11.046750000000      12.755800000000       8.945650000000
       362    1        7.364500000000      19.133700000000       8.945650000000
       363    2       12.887875000000      18.070720918600       7.499764590500
       364    2        9.205625000000      24.448620918600       7.499764590500
       365    2        7.364500000000      17.007729081400      10.391535409500
       366    2       12.887875000000      13.818779081400      10.391535409500
       367    2       11.046750000000      23.385629081400      10.391535409500
       368    2        9.205625000000      20.196679081400      10.391535409500
       369    1       12.887875000000      15.944750000000       8.945650000000
       370    1        9.205625000000      22.322650000000       8.945650000000