 # Zr8 Se16
  
        2496  atoms
           2  atom types
 
      0.000000000000      98.666100000000  xlo xhi
      0.000000000000     105.165600000000  ylo yhi
      0.000000000000      18.150500000000  zlo zhi
 
Masses
 
            1   91.22400000             # Zr
            2   78.96000000             # Se
 
Atoms # atomic
 
         1    1        1.897425000000       3.286425000000       9.075250000000
         2    1        5.692275000000       9.859275000000       9.075250000000
         3    2        3.794850000000       2.190954381900       7.494650008500
         4    2        7.589700000000       8.763804381900       7.494650008500
         5    2        5.692275000000       1.095470618100      10.655849991500
         6    2        1.897425000000       7.668320618100      10.655849991500
         7    2        5.692275000000       5.477379381900       7.494650008500
         8    2        1.897425000000      12.050229381900       7.494650008500
         9    2        7.589700000000       2.190954381900       7.494650008500
        10    2        3.794850000000       8.763804381900       7.494650008500
        11    1        5.692275000000       3.286425000000       9.075250000000
        12    1        1.897425000000       9.859275000000       9.075250000000
        13    2        1.897425000000       5.477379381900       7.494650008500
        14    2        5.692275000000      12.050229381900       7.494650008500
        15    2        3.794850000000       4.381895618100      10.655849991500
        16    2        7.589700000000      10.954745618100      10.655849991500
        17    1        7.589700000000       0.000000000000       9.075250000000
        18    1        3.794850000000       6.572850000000       9.075250000000
        19    2        7.589700000000       4.381895618100      10.655849991500
        20    1        3.794850000000       0.000000000000       9.075250000000
        21    1        7.589700000000       6.572850000000       9.075250000000
        22    2        3.794850000000      10.954745618100      10.655849991500
        23    2        1.897425000000       1.095470618100      10.655849991500
        24    2        5.692275000000       7.668320618100      10.655849991500
        25    1        9.487125000000       3.286425000000       9.075250000000
        26    1       13.281975000000       9.859275000000       9.075250000000
        27    2       11.384550000000       2.190954381900       7.494650008500
        28    2       15.179400000000       8.763804381900       7.494650008500
        29    2       13.281975000000       1.095470618100      10.655849991500
        30    2        9.487125000000       7.668320618100      10.655849991500
        31    2       13.281975000000       5.477379381900       7.494650008500
        32    2        9.487125000000      12.050229381900       7.494650008500
        33    2       15.179400000000       2.190954381900       7.494650008500
        34    2       11.384550000000       8.763804381900       7.494650008500
        35    1       13.281975000000       3.286425000000       9.075250000000
        36    1        9.487125000000       9.859275000000       9.075250000000
        37    2        9.487125000000       5.477379381900       7.494650008500
        38    2       13.281975000000      12.050229381900       7.494650008500
        39    2       11.384550000000       4.381895618100      10.655849991500
        40    2       15.179400000000      10.954745618100      10.655849991500
        41    1       15.179400000000       0.000000000000       9.075250000000
        42    1       11.384550000000       6.572850000000       9.075250000000
        43    2       15.179400000000       4.381895618100      10.655849991500
        44    1       11.384550000000       0.000000000000       9.075250000000
        45    1       15.179400000000       6.572850000000       9.075250000000
        46    2       11.384550000000      10.954745618100      10.655849991500
        47    2        9.487125000000       1.095470618100      10.655849991500
        48    2       13.281975000000       7.668320618100      10.655849991500
        49    1       17.076825000000       3.286425000000       9.075250000000
        50    1       20.871675000000       9.859275000000       9.075250000000
        51    2       18.974250000000       2.190954381900       7.494650008500
        52    2       22.769100000000       8.763804381900       7.494650008500
        53    2       20.871675000000       1.095470618100      10.655849991500
        54    2       17.076825000000       7.668320618100      10.655849991500
        55    2       20.871675000000       5.477379381900       7.494650008500
        56    2       17.076825000000      12.050229381900       7.494650008500
        57    2       22.769100000000       2.190954381900       7.494650008500
        58    2       18.974250000000       8.763804381900       7.494650008500
        59    1       20.871675000000       3.286425000000       9.075250000000
        60    1       17.076825000000       9.859275000000       9.075250000000
        61    2       17.076825000000       5.477379381900       7.494650008500
        62    2       20.871675000000      12.050229381900       7.494650008500
        63    2       18.974250000000       4.381895618100      10.655849991500
        64    2       22.769100000000      10.954745618100      10.655849991500
        65    1       22.769100000000       0.000000000000       9.075250000000
        66    1       18.974250000000       6.572850000000       9.075250000000
        67    2       22.769100000000       4.381895618100      10.655849991500
        68    1       18.974250000000       0.000000000000       9.075250000000
        69    1       22.769100000000       6.572850000000       9.075250000000
        70    2       18.974250000000      10.954745618100      10.655849991500
        71    2       17.076825000000       1.095470618100      10.655849991500
        72    2       20.871675000000       7.668320618100      10.655849991500
        73    1       24.666525000000       3.286425000000       9.075250000000
        74    1       28.461375000000       9.859275000000       9.075250000000
        75    2       26.563950000000       2.190954381900       7.494650008500
        76    2       30.358800000000       8.763804381900       7.494650008500
        77    2       28.461375000000       1.095470618100      10.655849991500
        78    2       24.666525000000       7.668320618100      10.655849991500
        79    2       28.461375000000       5.477379381900       7.494650008500
        80    2       24.666525000000      12.050229381900       7.494650008500
        81    2       30.358800000000       2.190954381900       7.494650008500
        82    2       26.563950000000       8.763804381900       7.494650008500
        83    1       28.461375000000       3.286425000000       9.075250000000
        84    1       24.666525000000       9.859275000000       9.075250000000
        85    2       24.666525000000       5.477379381900       7.494650008500
        86    2       28.461375000000      12.050229381900       7.494650008500
        87    2       26.563950000000       4.381895618100      10.655849991500
        88    2       30.358800000000      10.954745618100      10.655849991500
        89    1       30.358800000000       0.000000000000       9.075250000000
        90    1       26.563950000000       6.572850000000       9.075250000000
        91    2       30.358800000000       4.381895618100      10.655849991500
        92    1       26.563950000000       0.000000000000       9.075250000000
        93    1       30.358800000000       6.572850000000       9.075250000000
        94    2       26.563950000000      10.954745618100      10.655849991500
        95    2       24.666525000000       1.095470618100      10.655849991500
        96    2       28.461375000000       7.668320618100      10.655849991500
        97    1       32.256225000000       3.286425000000       9.075250000000
        98    1       36.051075000000       9.859275000000       9.075250000000
        99    2       34.153650000000       2.190954381900       7.494650008500
       100    2       37.948500000000       8.763804381900       7.494650008500
       101    2       36.051075000000       1.095470618100      10.655849991500
       102    2       32.256225000000       7.668320618100      10.655849991500
       103    2       36.051075000000       5.477379381900       7.494650008500
       104    2       32.256225000000      12.050229381900       7.494650008500
       105    2       37.948500000000       2.190954381900       7.494650008500
       106    2       34.153650000000       8.763804381900       7.494650008500
       107    1       36.051075000000       3.286425000000       9.075250000000
       108    1       32.256225000000       9.859275000000       9.075250000000
       109    2       32.256225000000       5.477379381900       7.494650008500
       110    2       36.051075000000      12.050229381900       7.494650008500
       111    2       34.153650000000       4.381895618100      10.655849991500
       112    2       37.948500000000      10.954745618100      10.655849991500
       113    1       37.948500000000       0.000000000000       9.075250000000
       114    1       34.153650000000       6.572850000000       9.075250000000
       115    2       37.948500000000       4.381895618100      10.655849991500
       116    1       34.153650000000       0.000000000000       9.075250000000
       117    1       37.948500000000       6.572850000000       9.075250000000
       118    2       34.153650000000      10.954745618100      10.655849991500
       119    2       32.256225000000       1.095470618100      10.655849991500
       120    2       36.051075000000       7.668320618100      10.655849991500
       121    1       39.845925000000       3.286425000000       9.075250000000
       122    1       43.640775000000       9.859275000000       9.075250000000
       123    2       41.743350000000       2.190954381900       7.494650008500
       124    2       45.538200000000       8.763804381900       7.494650008500
       125    2       43.640775000000       1.095470618100      10.655849991500
       126    2       39.845925000000       7.668320618100      10.655849991500
       127    2       43.640775000000       5.477379381900       7.494650008500
       128    2       39.845925000000      12.050229381900       7.494650008500
       129    2       45.538200000000       2.190954381900       7.494650008500
       130    2       41.743350000000       8.763804381900       7.494650008500
       131    1       43.640775000000       3.286425000000       9.075250000000
       132    1       39.845925000000       9.859275000000       9.075250000000
       133    2       39.845925000000       5.477379381900       7.494650008500
       134    2       43.640775000000      12.050229381900       7.494650008500
       135    2       41.743350000000       4.381895618100      10.655849991500
       136    2       45.538200000000      10.954745618100      10.655849991500
       137    1       45.538200000000       0.000000000000       9.075250000000
       138    1       41.743350000000       6.572850000000       9.075250000000
       139    2       45.538200000000       4.381895618100      10.655849991500
       140    1       41.743350000000       0.000000000000       9.075250000000
       141    1       45.538200000000       6.572850000000       9.075250000000
       142    2       41.743350000000      10.954745618100      10.655849991500
       143    2       39.845925000000       1.095470618100      10.655849991500
       144    2       43.640775000000       7.668320618100      10.655849991500
       145    1       47.435625000000       3.286425000000       9.075250000000
       146    1       51.230475000000       9.859275000000       9.075250000000
       147    2       49.333050000000       2.190954381900       7.494650008500
       148    2       53.127900000000       8.763804381900       7.494650008500
       149    2       51.230475000000       1.095470618100      10.655849991500
       150    2       47.435625000000       7.668320618100      10.655849991500
       151    2       51.230475000000       5.477379381900       7.494650008500
       152    2       47.435625000000      12.050229381900       7.494650008500
       153    2       53.127900000000       2.190954381900       7.494650008500
       154    2       49.333050000000       8.763804381900       7.494650008500
       155    1       51.230475000000       3.286425000000       9.075250000000
       156    1       47.435625000000       9.859275000000       9.075250000000
       157    2       47.435625000000       5.477379381900       7.494650008500
       158    2       51.230475000000      12.050229381900       7.494650008500
       159    2       49.333050000000       4.381895618100      10.655849991500
       160    2       53.127900000000      10.954745618100      10.655849991500
       161    1       53.127900000000       0.000000000000       9.075250000000
       162    1       49.333050000000       6.572850000000       9.075250000000
       163    2       53.127900000000       4.381895618100      10.655849991500
       164    1       49.333050000000       0.000000000000       9.075250000000
       165    1       53.127900000000       6.572850000000       9.075250000000
       166    2       49.333050000000      10.954745618100      10.655849991500
       167    2       47.435625000000       1.095470618100      10.655849991500
       168    2       51.230475000000       7.668320618100      10.655849991500
       169    1       55.025325000000       3.286425000000       9.075250000000
       170    1       58.820175000000       9.859275000000       9.075250000000
       171    2       56.922750000000       2.190954381900       7.494650008500
       172    2       60.717600000000       8.763804381900       7.494650008500
       173    2       58.820175000000       1.095470618100      10.655849991500
       174    2       55.025325000000       7.668320618100      10.655849991500
       175    2       58.820175000000       5.477379381900       7.494650008500
       176    2       55.025325000000      12.050229381900       7.494650008500
       177    2       60.717600000000       2.190954381900       7.494650008500
       178    2       56.922750000000       8.763804381900       7.494650008500
       179    1       58.820175000000       3.286425000000       9.075250000000
       180    1       55.025325000000       9.859275000000       9.075250000000
       181    2       55.025325000000       5.477379381900       7.494650008500
       182    2       58.820175000000      12.050229381900       7.494650008500
       183    2       56.922750000000       4.381895618100      10.655849991500
       184    2       60.717600000000      10.954745618100      10.655849991500
       185    1       60.717600000000       0.000000000000       9.075250000000
       186    1       56.922750000000       6.572850000000       9.075250000000
       187    2       60.717600000000       4.381895618100      10.655849991500
       188    1       56.922750000000       0.000000000000       9.075250000000
       189    1       60.717600000000       6.572850000000       9.075250000000
       190    2       56.922750000000      10.954745618100      10.655849991500
       191    2       55.025325000000       1.095470618100      10.655849991500
       192    2       58.820175000000       7.668320618100      10.655849991500
       193    1       62.615025000000       3.286425000000       9.075250000000
       194    1       66.409875000000       9.859275000000       9.075250000000
       195    2       64.512450000000       2.190954381900       7.494650008500
       196    2       68.307300000000       8.763804381900       7.494650008500
       197    2       66.409875000000       1.095470618100      10.655849991500
       198    2       62.615025000000       7.668320618100      10.655849991500
       199    2       66.409875000000       5.477379381900       7.494650008500
       200    2       62.615025000000      12.050229381900       7.494650008500
       201    2       68.307300000000       2.190954381900       7.494650008500
       202    2       64.512450000000       8.763804381900       7.494650008500
       203    1       66.409875000000       3.286425000000       9.075250000000
       204    1       62.615025000000       9.859275000000       9.075250000000
       205    2       62.615025000000       5.477379381900       7.494650008500
       206    2       66.409875000000      12.050229381900       7.494650008500
       207    2       64.512450000000       4.381895618100      10.655849991500
       208    2       68.307300000000      10.954745618100      10.655849991500
       209    1       68.307300000000       0.000000000000       9.075250000000
       210    1       64.512450000000       6.572850000000       9.075250000000
       211    2       68.307300000000       4.381895618100      10.655849991500
       212    1       64.512450000000       0.000000000000       9.075250000000
       213    1       68.307300000000       6.572850000000       9.075250000000
       214    2       64.512450000000      10.954745618100      10.655849991500
       215    2       62.615025000000       1.095470618100      10.655849991500
       216    2       66.409875000000       7.668320618100      10.655849991500
       217    1       70.204725000000       3.286425000000       9.075250000000
       218    1       73.999575000000       9.859275000000       9.075250000000
       219    2       72.102150000000       2.190954381900       7.494650008500
       220    2       75.897000000000       8.763804381900       7.494650008500
       221    2       73.999575000000       1.095470618100      10.655849991500
       222    2       70.204725000000       7.668320618100      10.655849991500
       223    2       73.999575000000       5.477379381900       7.494650008500
       224    2       70.204725000000      12.050229381900       7.494650008500
       225    2       75.897000000000       2.190954381900       7.494650008500
       226    2       72.102150000000       8.763804381900       7.494650008500
       227    1       73.999575000000       3.286425000000       9.075250000000
       228    1       70.204725000000       9.859275000000       9.075250000000
       229    2       70.204725000000       5.477379381900       7.494650008500
       230    2       73.999575000000      12.050229381900       7.494650008500
       231    2       72.102150000000       4.381895618100      10.655849991500
       232    2       75.897000000000      10.954745618100      10.655849991500
       233    1       75.897000000000       0.000000000000       9.075250000000
       234    1       72.102150000000       6.572850000000       9.075250000000
       235    2       75.897000000000       4.381895618100      10.655849991500
       236    1       72.102150000000       0.000000000000       9.075250000000
       237    1       75.897000000000       6.572850000000       9.075250000000
       238    2       72.102150000000      10.954745618100      10.655849991500
       239    2       70.204725000000       1.095470618100      10.655849991500
       240    2       73.999575000000       7.668320618100      10.655849991500
       241    1       77.794425000000       3.286425000000       9.075250000000
       242    1       81.589275000000       9.859275000000       9.075250000000
       243    2       79.691850000000       2.190954381900       7.494650008500
       244    2       83.486700000000       8.763804381900       7.494650008500
       245    2       81.589275000000       1.095470618100      10.655849991500
       246    2       77.794425000000       7.668320618100      10.655849991500
       247    2       81.589275000000       5.477379381900       7.494650008500
       248    2       77.794425000000      12.050229381900       7.494650008500
       249    2       83.486700000000       2.190954381900       7.494650008500
       250    2       79.691850000000       8.763804381900       7.494650008500
       251    1       81.589275000000       3.286425000000       9.075250000000
       252    1       77.794425000000       9.859275000000       9.075250000000
       253    2       77.794425000000       5.477379381900       7.494650008500
       254    2       81.589275000000      12.050229381900       7.494650008500
       255    2       79.691850000000       4.381895618100      10.655849991500
       256    2       83.486700000000      10.954745618100      10.655849991500
       257    1       83.486700000000       0.000000000000       9.075250000000
       258    1       79.691850000000       6.572850000000       9.075250000000
       259    2       83.486700000000       4.381895618100      10.655849991500
       260    1       79.691850000000       0.000000000000       9.075250000000
       261    1       83.486700000000       6.572850000000       9.075250000000
       262    2       79.691850000000      10.954745618100      10.655849991500
       263    2       77.794425000000       1.095470618100      10.655849991500
       264    2       81.589275000000       7.668320618100      10.655849991500
       265    1       85.384125000000       3.286425000000       9.075250000000
       266    1       89.178975000000       9.859275000000       9.075250000000
       267    2       87.281550000000       2.190954381900       7.494650008500
       268    2       91.076400000000       8.763804381900       7.494650008500
       269    2       89.178975000000       1.095470618100      10.655849991500
       270    2       85.384125000000       7.668320618100      10.655849991500
       271    2       89.178975000000       5.477379381900       7.494650008500
       272    2       85.384125000000      12.050229381900       7.494650008500
       273    2       91.076400000000       2.190954381900       7.494650008500
       274    2       87.281550000000       8.763804381900       7.494650008500
       275    1       89.178975000000       3.286425000000       9.075250000000
       276    1       85.384125000000       9.859275000000       9.075250000000
       277    2       85.384125000000       5.477379381900       7.494650008500
       278    2       89.178975000000      12.050229381900       7.494650008500
       279    2       87.281550000000       4.381895618100      10.655849991500
       280    2       91.076400000000      10.954745618100      10.655849991500
       281    1       91.076400000000       0.000000000000       9.075250000000
       282    1       87.281550000000       6.572850000000       9.075250000000
       283    2       91.076400000000       4.381895618100      10.655849991500
       284    1       87.281550000000       0.000000000000       9.075250000000
       285    1       91.076400000000       6.572850000000       9.075250000000
       286    2       87.281550000000      10.954745618100      10.655849991500
       287    2       85.384125000000       1.095470618100      10.655849991500
       288    2       89.178975000000       7.668320618100      10.655849991500
       289    1       92.973825000000       3.286425000000       9.075250000000
       290    1       96.768675000000       9.859275000000       9.075250000000
       291    2       94.871250000000       2.190954381900       7.494650008500
       292    2       98.666100000000       8.763804381900       7.494650008500
       293    2       96.768675000000       1.095470618100      10.655849991500
       294    2       92.973825000000       7.668320618100      10.655849991500
       295    2       96.768675000000       5.477379381900       7.494650008500
       296    2       92.973825000000      12.050229381900       7.494650008500
       297    2       98.666100000000       2.190954381900       7.494650008500
       298    2       94.871250000000       8.763804381900       7.494650008500
       299    1       96.768675000000       3.286425000000       9.075250000000
       300    1       92.973825000000       9.859275000000       9.075250000000
       301    2       92.973825000000       5.477379381900       7.494650008500
       302    2       96.768675000000      12.050229381900       7.494650008500
       303    2       94.871250000000       4.381895618100      10.655849991500
       304    2       98.666100000000      10.954745618100      10.655849991500
       305    1       98.666100000000       0.000000000000       9.075250000000
       306    1       94.871250000000       6.572850000000       9.075250000000
       307    2       98.666100000000       4.381895618100      10.655849991500
       308    1       94.871250000000       0.000000000000       9.075250000000
       309    1       98.666100000000       6.572850000000       9.075250000000
       310    2       94.871250000000      10.954745618100      10.655849991500
       311    2       92.973825000000       1.095470618100      10.655849991500
       312    2       96.768675000000       7.668320618100      10.655849991500
       313    1        1.897425000000      16.432125000000       9.075250000000
       314    1        5.692275000000      23.004975000000       9.075250000000
       315    2        3.794850000000      15.336654381900       7.494650008500
       316    2        7.589700000000      21.909504381900       7.494650008500
       317    2        5.692275000000      14.241170618100      10.655849991500
       318    2        1.897425000000      20.814020618100      10.655849991500
       319    2        5.692275000000      18.623079381900       7.494650008500
       320    2        1.897425000000      25.195929381900       7.494650008500
       321    2        7.589700000000      15.336654381900       7.494650008500
       322    2        3.794850000000      21.909504381900       7.494650008500
       323    1        5.692275000000      16.432125000000       9.075250000000
       324    1        1.897425000000      23.004975000000       9.075250000000
       325    2        1.897425000000      18.623079381900       7.494650008500
       326    2        5.692275000000      25.195929381900       7.494650008500
       327    2        3.794850000000      17.527595618100      10.655849991500
       328    2        7.589700000000      24.100445618100      10.655849991500
       329    1        7.589700000000      13.145700000000       9.075250000000
       330    1        3.794850000000      19.718550000000       9.075250000000
       331    2        7.589700000000      17.527595618100      10.655849991500
       332    1        3.794850000000      13.145700000000       9.075250000000
       333    1        7.589700000000      19.718550000000       9.075250000000
       334    2        3.794850000000      24.100445618100      10.655849991500
       335    2        1.897425000000      14.241170618100      10.655849991500
       336    2        5.692275000000      20.814020618100      10.655849991500
       337    1        9.487125000000      16.432125000000       9.075250000000
       338    1       13.281975000000      23.004975000000       9.075250000000
       339    2       11.384550000000      15.336654381900       7.494650008500
       340    2       15.179400000000      21.909504381900       7.494650008500
       341    2       13.281975000000      14.241170618100      10.655849991500
       342    2        9.487125000000      20.814020618100      10.655849991500
       343    2       13.281975000000      18.623079381900       7.494650008500
       344    2        9.487125000000      25.195929381900       7.494650008500
       345    2       15.179400000000      15.336654381900       7.494650008500
       346    2       11.384550000000      21.909504381900       7.494650008500
       347    1       13.281975000000      16.432125000000       9.075250000000
       348    1        9.487125000000      23.004975000000       9.075250000000
       349    2        9.487125000000      18.623079381900       7.494650008500
       350    2       13.281975000000      25.195929381900       7.494650008500
       351    2       11.384550000000      17.527595618100      10.655849991500
       352    2       15.179400000000      24.100445618100      10.655849991500
       353    1       15.179400000000      13.145700000000       9.075250000000
       354    1       11.384550000000      19.718550000000       9.075250000000
       355    2       15.179400000000      17.527595618100      10.655849991500
       356    1       11.384550000000      13.145700000000       9.075250000000
       357    1       15.179400000000      19.718550000000       9.075250000000
       358    2       11.384550000000      24.100445618100      10.655849991500
       359    2        9.487125000000      14.241170618100      10.655849991500
       360    2       13.281975000000      20.814020618100      10.655849991500
       361    1       17.076825000000      16.432125000000       9.075250000000
       362    1       20.871675000000      23.004975000000       9.075250000000
       363    2       18.974250000000      15.336654381900       7.494650008500
       364    2       22.769100000000      21.909504381900       7.494650008500
       365    2       20.871675000000      14.241170618100      10.655849991500
       366    2       17.076825000000      20.814020618100      10.655849991500
       367    2       20.871675000000      18.623079381900       7.494650008500
       368    2       17.076825000000      25.195929381900       7.494650008500
       369    2       22.769100000000      15.336654381900       7.494650008500
       370    2       18.974250000000      21.909504381900       7.494650008500