LAMMPS data file via write_data, version 29 Aug 2024, timestep = 0, units = metal

3120 atoms
4 atom types

0 101.90673629591 xlo xhi
0 101.83133359503 ylo yhi
0 20.167425080351 zlo zhi

Masses

1 114.818
2 114.818
3 32.06
4 32.06

Atoms # atomic

1564 3 9.70078900053295e-06 1.1312897305079943 0 0 0 0
1572 3 3.9194995583239987 1.1312897305079943 0 0 0 0
1580 3 7.838989415859004 1.1312897305079943 0 0 0 0
1588 3 11.758479273394002 1.1312897305079943 0 0 0 0
1596 3 15.677969130929 1.1312897305079943 0 0 0 0
1604 3 19.597458988464 1.1312897305079943 0 0 0 0
1612 3 23.516948845998996 1.1312897305079943 0 0 0 0
1620 3 27.436438703533994 1.1312897305079943 0 0 0 0
1628 3 31.355928561069007 1.1312897305079943 0 0 0 0
1636 3 35.275418418604005 1.1312897305079943 0 0 0 0
1644 3 39.194908276139 1.1312897305079943 0 0 0 0
1652 3 43.114398133674 1.1312897305079943 0 0 0 0
1660 3 47.033887991209 1.1312897305079943 0 0 0 0
1460 3 50.953377848744 1.1312897305079943 0 -1 0 0
1468 3 54.872867706278996 1.1312897305079943 0 -1 0 0
1476 3 58.792357563813994 1.1312897305079943 0 -1 0 0
1484 3 62.71184742134899 1.1312897305079943 0 -1 0 0
1492 3 66.63133727888399 1.1312897305079943 0 -1 0 0
1500 3 70.550827136419 1.1312897305079943 0 -1 0 0
1508 3 74.47031699395399 1.1312897305079943 0 -1 0 0
1516 3 78.389806851489 1.1312897305079943 0 -1 0 0
1524 3 82.309296709024 1.1312897305079943 0 -1 0 0
1532 3 86.228786566559 1.1312897305079943 0 -1 0 0
1540 3 90.14827642409399 1.1312897305079943 0 -1 0 0
1548 3 94.06776628162899 1.1312897305079943 0 -1 0 0
1556 3 97.987256139164 1.1312897305079943 0 -1 0 0
1568 1 1.959542734418001 2.2632855379219947 1.174810031223 0 0 0
1576 1 5.879032591952999 2.2632855379219947 1.174810031223 0 0 0
1584 1 9.798522449488004 2.2632855379219947 1.174810031223 0 0 0
1592 1 13.718012307023002 2.2632855379219947 1.174810031223 0 0 0
1600 1 17.637502164558 2.2632855379219947 1.174810031223 0 0 0
1608 1 21.556992022093 2.2632855379219947 1.174810031223 0 0 0
1616 1 25.476481879627997 2.2632855379219947 1.174810031223 0 0 0
1624 1 29.395971737162995 2.2632855379219947 1.174810031223 0 0 0
1632 1 33.31546159469801 2.2632855379219947 1.174810031223 0 0 0
1640 1 37.234951452233005 2.2632855379219947 1.174810031223 0 0 0
1648 1 41.154441309768 2.2632855379219947 1.174810031223 0 0 0
1656 1 45.073931167303 2.2632855379219947 1.174810031223 0 0 0
1664 1 48.993421024838 2.2632855379219947 1.174810031223 0 0 0
1464 1 52.912910882373 2.2632855379219947 1.174810031223 -1 0 0
1472 1 56.832400739907996 2.2632855379219947 1.174810031223 -1 0 0
1480 1 60.751890597442994 2.2632855379219947 1.174810031223 -1 0 0
1488 1 64.67138045497799 2.2632855379219947 1.174810031223 -1 0 0
1496 1 68.59087031251299 2.2632855379219947 1.174810031223 -1 0 0
1504 1 72.51036017004799 2.2632855379219947 1.174810031223 -1 0 0
1512 1 76.429850027583 2.2632855379219947 1.174810031223 -1 0 0
1520 1 80.349339885118 2.2632855379219947 1.174810031223 -1 0 0
1528 1 84.268829742653 2.2632855379219947 1.174810031223 -1 0 0
1536 1 88.188319600188 2.2632855379219947 1.174810031223 -1 0 0
1544 1 92.107809457723 2.2632855379219947 1.174810031223 -1 0 0
1552 1 96.02729931525799 2.2632855379219947 1.174810031223 -1 0 0
1560 1 99.94678917279299 2.2632855379219947 1.174810031223 -1 0 0
1771 3 1.959754629557004 4.525667517008998 0 0 0 0
1775 1 3.9192876631860045 5.657663324422998 1.174810031223 0 0 0
1779 3 5.879244487092002 4.525667517008998 0 0 0 0
1783 1 7.838777520721003 5.657663324422998 1.174810031223 0 0 0
1787 3 9.798734344627 4.525667517008998 0 0 0 0
1791 1 11.758267378256 5.657663324422998 1.174810031223 0 0 0
1795 3 13.718224202162006 4.525667517008998 0 0 0 0
1799 1 15.677757235791006 5.657663324422998 1.174810031223 0 0 0
1803 3 17.637714059697004 4.525667517008998 0 0 0 0
1807 1 19.597247093326004 5.657663324422998 1.174810031223 0 0 0
1811 3 21.557203917232002 4.525667517008998 0 0 0 0
1815 1 23.516736950861002 5.657663324422998 1.174810031223 0 0 0
1819 3 25.476693774767 4.525667517008998 0 0 0 0
1823 1 27.436226808396 5.657663324422998 1.174810031223 0 0 0
1827 3 29.396183632301998 4.525667517008998 0 0 0 0
1831 1 31.355716665931 5.657663324422998 1.174810031223 0 0 0
1835 3 33.315673489836996 4.525667517008998 0 0 0 0
1839 1 35.275206523466 5.657663324422998 1.174810031223 0 0 0
1843 3 37.235163347371994 4.525667517008998 0 0 0 0
1847 1 39.194696381000995 5.657663324422998 1.174810031223 0 0 0
1851 3 41.15465320490701 4.525667517008998 0 0 0 0
1855 1 43.11418623853601 5.657663324422998 1.174810031223 0 0 0
1859 3 45.074143062442005 4.525667517008998 0 0 0 0
1863 1 47.033676096071005 5.657663324422998 1.174810031223 0 0 0
1867 3 48.993632919977 4.525667517008998 0 0 0 0
1871 1 50.953165953606 5.657663324422998 1.174810031223 0 0 0
1667 3 52.913122777511994 4.525667517008998 0 -1 0 0
1671 1 54.872655811140994 5.657663324422998 1.174810031223 -1 0 0
1675 3 56.83261263504699 4.525667517008998 0 -1 0 0
1679 1 58.79214566867599 5.657663324422998 1.174810031223 -1 0 0
1683 3 60.752102492582 4.525667517008998 0 -1 0 0
1687 1 62.711635526211 5.657663324422998 1.174810031223 -1 0 0
1691 3 64.671592350117 4.525667517008998 0 -1 0 0
1699 3 68.591082207652 4.525667517008998 0 -1 0 0
1695 1 66.631125383746 5.657663324422998 1.174810031223 -1 0 0
1703 1 70.550615241281 5.657663324422998 1.174810031223 -1 0 0
1707 3 72.51057206518699 4.525667517008998 0 -1 0 0
1711 1 74.47010509881599 5.657663324422998 1.174810031223 -1 0 0
1715 3 76.43006192272199 4.525667517008998 0 -1 0 0
1719 1 78.38959495635099 5.657663324422998 1.174810031223 -1 0 0
1723 3 80.349551780257 4.525667517008998 0 -1 0 0
1727 1 82.30908481388599 5.657663324422998 1.174810031223 -1 0 0
1731 3 84.26904163779199 4.525667517008998 0 -1 0 0
1735 1 86.228574671421 5.657663324422998 1.174810031223 -1 0 0
1739 3 88.188531495327 4.525667517008998 0 -1 0 0
1743 1 90.14806452895598 5.657663324422998 1.174810031223 -1 0 0
1747 3 92.108021352862 4.525667517008998 0 -1 0 0
1751 1 94.067554386491 5.657663324422998 1.174810031223 -1 0 0
1755 3 96.027511210397 4.525667517008998 0 -1 0 0
1759 1 97.987044244026 5.657663324422998 1.174810031223 -1 0 0
1763 3 99.94700106793199 4.525667517008998 0 -1 0 0
1767 1 101.906534101561 5.657663324422998 1.174810031223 -1 0 0
1772 3 9.70078900053295e-06 7.920045303509994 0 0 0 0
1780 3 3.9194995583239987 7.920045303509994 0 0 0 0
1788 3 7.838989415859004 7.920045303509994 0 0 0 0
1796 3 11.758479273394002 7.920045303509994 0 0 0 0
1804 3 15.677969130929 7.920045303509994 0 0 0 0
1812 3 19.597458988464 7.920045303509994 0 0 0 0
1820 3 23.516948845998996 7.920045303509994 0 0 0 0
1828 3 27.436438703533994 7.920045303509994 0 0 0 0
1836 3 31.355928561069007 7.920045303509994 0 0 0 0
1844 3 35.275418418604005 7.920045303509994 0 0 0 0
1852 3 39.194908276139 7.920045303509994 0 0 0 0
1860 3 43.114398133674 7.920045303509994 0 0 0 0
1868 3 47.033887991209 7.920045303509994 0 0 0 0
1668 3 50.953377848744 7.920045303509994 0 -1 0 0
1676 3 54.872867706278996 7.920045303509994 0 -1 0 0
1684 3 58.792357563813994 7.920045303509994 0 -1 0 0
1692 3 62.71184742134899 7.920045303509994 0 -1 0 0
1700 3 66.63133727888399 7.920045303509994 0 -1 0 0
1708 3 70.550827136419 7.920045303509994 0 -1 0 0
1716 3 74.47031699395399 7.920045303509994 0 -1 0 0
1724 3 78.389806851489 7.920045303509994 0 -1 0 0
1732 3 82.309296709024 7.920045303509994 0 -1 0 0
1740 3 86.228786566559 7.920045303509994 0 -1 0 0
1748 3 90.14827642409399 7.920045303509994 0 -1 0 0
1756 3 94.06776628162899 7.920045303509994 0 -1 0 0
1764 3 97.987256139164 7.920045303509994 0 -1 0 0
1776 1 1.959542734418001 9.052041110923994 1.174810031223 0 0 0
1784 1 5.879032591952999 9.052041110923994 1.174810031223 0 0 0
1792 1 9.798522449488004 9.052041110923994 1.174810031223 0 0 0
1800 1 13.718012307023002 9.052041110923994 1.174810031223 0 0 0
1808 1 17.637502164558 9.052041110923994 1.174810031223 0 0 0
1816 1 21.556992022093 9.052041110923994 1.174810031223 0 0 0
1824 1 25.476481879627997 9.052041110923994 1.174810031223 0 0 0
1832 1 29.395971737162995 9.052041110923994 1.174810031223 0 0 0
1840 1 33.31546159469801 9.052041110923994 1.174810031223 0 0 0
1848 1 37.234951452233005 9.052041110923994 1.174810031223 0 0 0
1856 1 41.154441309768 9.052041110923994 1.174810031223 0 0 0
1864 1 45.073931167303 9.052041110923994 1.174810031223 0 0 0
1872 1 48.993421024838 9.052041110923994 1.174810031223 0 0 0
1672 1 52.912910882373 9.052041110923994 1.174810031223 -1 0 0
1680 1 56.832400739907996 9.052041110923994 1.174810031223 -1 0 0
1688 1 60.751890597442994 9.052041110923994 1.174810031223 -1 0 0
1696 1 64.67138045497799 9.052041110923994 1.174810031223 -1 0 0
1704 1 68.59087031251299 9.052041110923994 1.174810031223 -1 0 0
1712 1 72.51036017004799 9.052041110923994 1.174810031223 -1 0 0
1720 1 76.429850027583 9.052041110923994 1.174810031223 -1 0 0
1728 1 80.349339885118 9.052041110923994 1.174810031223 -1 0 0
1736 1 84.268829742653 9.052041110923994 1.174810031223 -1 0 0
1744 1 88.188319600188 9.052041110923994 1.174810031223 -1 0 0
1752 1 92.107809457723 9.052041110923994 1.174810031223 -1 0 0
1760 1 96.02729931525799 9.052041110923994 1.174810031223 -1 0 0
1768 1 99.94678917279299 9.052041110923994 1.174810031223 -1 0 0
1979 3 1.959754629557004 11.314423090010997 0 0 0 0
1983 1 3.9192876631860045 12.446418897424998 1.174810031223 0 0 0
1987 3 5.879244487092002 11.314423090010997 0 0 0 0
1991 1 7.838777520721003 12.446418897424998 1.174810031223 0 0 0
1995 3 9.798734344627 11.314423090010997 0 0 0 0
1999 1 11.758267378256 12.446418897424998 1.174810031223 0 0 0
2003 3 13.718224202162006 11.314423090010997 0 0 0 0
2007 1 15.677757235791006 12.446418897424998 1.174810031223 0 0 0
2011 3 17.637714059697004 11.314423090010997 0 0 0 0
2015 1 19.597247093326004 12.446418897424998 1.174810031223 0 0 0
2019 3 21.557203917232002 11.314423090010997 0 0 0 0
2023 1 23.516736950861002 12.446418897424998 1.174810031223 0 0 0
2027 3 25.476693774767 11.314423090010997 0 0 0 0
2031 1 27.436226808396 12.446418897424998 1.174810031223 0 0 0
2035 3 29.396183632301998 11.314423090010997 0 0 0 0
2039 1 31.355716665931 12.446418897424998 1.174810031223 0 0 0
2043 3 33.315673489836996 11.314423090010997 0 0 0 0
2047 1 35.275206523466 12.446418897424998 1.174810031223 0 0 0
2051 3 37.235163347371994 11.314423090010997 0 0 0 0
2055 1 39.194696381000995 12.446418897424998 1.174810031223 0 0 0
2059 3 41.15465320490701 11.314423090010997 0 0 0 0
2063 1 43.11418623853601 12.446418897424998 1.174810031223 0 0 0
2067 3 45.074143062442005 11.314423090010997 0 0 0 0
2071 1 47.033676096071005 12.446418897424998 1.174810031223 0 0 0
2075 3 48.993632919977 11.314423090010997 0 0 0 0
2079 1 50.953165953606 12.446418897424998 1.174810031223 0 0 0
1875 3 52.913122777511994 11.314423090010997 0 -1 0 0
1879 1 54.872655811140994 12.446418897424998 1.174810031223 -1 0 0
1883 3 56.83261263504699 11.314423090010997 0 -1 0 0
1887 1 58.79214566867599 12.446418897424998 1.174810031223 -1 0 0
1891 3 60.752102492582 11.314423090010997 0 -1 0 0
1895 1 62.711635526211 12.446418897424998 1.174810031223 -1 0 0
1899 3 64.671592350117 11.314423090010997 0 -1 0 0
1907 3 68.591082207652 11.314423090010997 0 -1 0 0
1903 1 66.631125383746 12.446418897424998 1.174810031223 -1 0 0
1911 1 70.550615241281 12.446418897424998 1.174810031223 -1 0 0
1915 3 72.51057206518699 11.314423090010997 0 -1 0 0
1919 1 74.47010509881599 12.446418897424998 1.174810031223 -1 0 0
1923 3 76.43006192272199 11.314423090010997 0 -1 0 0
1927 1 78.38959495635099 12.446418897424998 1.174810031223 -1 0 0
1931 3 80.349551780257 11.314423090010997 0 -1 0 0
1935 1 82.30908481388599 12.446418897424998 1.174810031223 -1 0 0
1939 3 84.26904163779199 11.314423090010997 0 -1 0 0
1943 1 86.228574671421 12.446418897424998 1.174810031223 -1 0 0
1947 3 88.188531495327 11.314423090010997 0 -1 0 0
1951 1 90.14806452895598 12.446418897424998 1.174810031223 -1 0 0
1955 3 92.108021352862 11.314423090010997 0 -1 0 0
1959 1 94.067554386491 12.446418897424998 1.174810031223 -1 0 0
1963 3 96.027511210397 11.314423090010997 0 -1 0 0
1967 1 97.987044244026 12.446418897424998 1.174810031223 -1 0 0
1971 3 99.94700106793199 11.314423090010997 0 -1 0 0
1975 1 101.906534101561 12.446418897424998 1.174810031223 -1 0 0
1980 3 9.70078900053295e-06 14.708800876512 0 0 0 0
1984 1 1.959542734418001 15.840796683926001 1.174810031223 0 0 0
1988 3 3.9194995583239987 14.708800876512 0 0 0 0
1992 1 5.879032591952999 15.840796683926001 1.174810031223 0 0 0
1996 3 7.838989415859004 14.708800876512 0 0 0 0
2000 1 9.798522449488004 15.840796683926001 1.174810031223 0 0 0
2004 3 11.758479273394002 14.708800876512 0 0 0 0
2008 1 13.718012307023002 15.840796683926001 1.174810031223 0 0 0
2012 3 15.677969130929 14.708800876512 0 0 0 0
2016 1 17.637502164558 15.840796683926001 1.174810031223 0 0 0
2020 3 19.597458988464 14.708800876512 0 0 0 0
2024 1 21.556992022093 15.840796683926001 1.174810031223 0 0 0
2028 3 23.516948845998996 14.708800876512 0 0 0 0
2032 1 25.476481879627997 15.840796683926001 1.174810031223 0 0 0
2036 3 27.436438703533994 14.708800876512 0 0 0 0
2040 1 29.395971737162995 15.840796683926001 1.174810031223 0 0 0
2044 3 31.355928561069007 14.708800876512 0 0 0 0
2052 3 35.275418418604005 14.708800876512 0 0 0 0
2048 1 33.31546159469801 15.840796683926001 1.174810031223 0 0 0
2056 1 37.234951452233005 15.840796683926001 1.174810031223 0 0 0
2060 3 39.194908276139 14.708800876512 0 0 0 0
2064 1 41.154441309768 15.840796683926001 1.174810031223 0 0 0
2068 3 43.114398133674 14.708800876512 0 0 0 0
2072 1 45.073931167303 15.840796683926001 1.174810031223 0 0 0
2076 3 47.033887991209 14.708800876512 0 0 0 0
2080 1 48.993421024838 15.840796683926001 1.174810031223 0 0 0
1876 3 50.953377848744 14.708800876512 0 -1 0 0
1880 1 52.912910882373 15.840796683926001 1.174810031223 -1 0 0
1884 3 54.872867706278996 14.708800876512 0 -1 0 0
1888 1 56.832400739907996 15.840796683926001 1.174810031223 -1 0 0
1892 3 58.792357563813994 14.708800876512 0 -1 0 0
1896 1 60.751890597442994 15.840796683926001 1.174810031223 -1 0 0
1900 3 62.71184742134899 14.708800876512 0 -1 0 0
1904 1 64.67138045497799 15.840796683926001 1.174810031223 -1 0 0
1908 3 66.63133727888399 14.708800876512 0 -1 0 0
1912 1 68.59087031251299 15.840796683926001 1.174810031223 -1 0 0
1916 3 70.550827136419 14.708800876512 0 -1 0 0
1920 1 72.51036017004799 15.840796683926001 1.174810031223 -1 0 0
1924 3 74.47031699395399 14.708800876512 0 -1 0 0
1928 1 76.429850027583 15.840796683926001 1.174810031223 -1 0 0
1932 3 78.389806851489 14.708800876512 0 -1 0 0
1936 1 80.349339885118 15.840796683926001 1.174810031223 -1 0 0
1940 3 82.309296709024 14.708800876512 0 -1 0 0
1944 1 84.268829742653 15.840796683926001 1.174810031223 -1 0 0
1948 3 86.228786566559 14.708800876512 0 -1 0 0
1952 1 88.188319600188 15.840796683926001 1.174810031223 -1 0 0
1956 3 90.14827642409399 14.708800876512 0 -1 0 0
1960 1 92.107809457723 15.840796683926001 1.174810031223 -1 0 0
1964 3 94.06776628162899 14.708800876512 0 -1 0 0
1968 1 96.02729931525799 15.840796683926001 1.174810031223 -1 0 0
1972 3 97.987256139164 14.708800876512 0 -1 0 0
1976 1 99.94678917279299 15.840796683926001 1.174810031223 -1 0 0
2187 3 1.959754629557004 18.103178663012997 0 0 0 0
2195 3 5.879244487092002 18.103178663012997 0 0 0 0
2203 3 9.798734344627 18.103178663012997 0 0 0 0
2211 3 13.718224202162006 18.103178663012997 0 0 0 0
2219 3 17.637714059697004 18.103178663012997 0 0 0 0
2227 3 21.557203917232002 18.103178663012997 0 0 0 0
2235 3 25.476693774767 18.103178663012997 0 0 0 0
2243 3 29.396183632301998 18.103178663012997 0 0 0 0
2251 3 33.315673489836996 18.103178663012997 0 0 0 0
2259 3 37.235163347371994 18.103178663012997 0 0 0 0
2267 3 41.15465320490701 18.103178663012997 0 0 0 0
2275 3 45.074143062442005 18.103178663012997 0 0 0 0
2283 3 48.993632919977 18.103178663012997 0 0 0 0
2083 3 52.913122777511994 18.103178663012997 0 -1 0 0
2091 3 56.83261263504699 18.103178663012997 0 -1 0 0
2099 3 60.752102492582 18.103178663012997 0 -1 0 0
2107 3 64.671592350117 18.103178663012997 0 -1 0 0
2115 3 68.591082207652 18.103178663012997 0 -1 0 0
2123 3 72.51057206518699 18.103178663012997 0 -1 0 0
2131 3 76.43006192272199 18.103178663012997 0 -1 0 0
2139 3 80.349551780257 18.103178663012997 0 -1 0 0
2147 3 84.26904163779199 18.103178663012997 0 -1 0 0
2155 3 88.188531495327 18.103178663012997 0 -1 0 0
2163 3 92.108021352862 18.103178663012997 0 -1 0 0
2171 3 96.027511210397 18.103178663012997 0 -1 0 0
2179 3 99.94700106793199 18.103178663012997 0 -1 0 0
2191 1 3.9192876631860045 19.235174470426998 1.174810031223 0 0 0
2199 1 7.838777520721003 19.235174470426998 1.174810031223 0 0 0
2207 1 11.758267378256 19.235174470426998 1.174810031223 0 0 0
2215 1 15.677757235791006 19.235174470426998 1.174810031223 0 0 0
2223 1 19.597247093326004 19.235174470426998 1.174810031223 0 0 0
2231 1 23.516736950861002 19.235174470426998 1.174810031223 0 0 0
2239 1 27.436226808396 19.235174470426998 1.174810031223 0 0 0
2247 1 31.355716665931 19.235174470426998 1.174810031223 0 0 0
2255 1 35.275206523466 19.235174470426998 1.174810031223 0 0 0
2263 1 39.194696381000995 19.235174470426998 1.174810031223 0 0 0
2271 1 43.11418623853601 19.235174470426998 1.174810031223 0 0 0
2279 1 47.033676096071005 19.235174470426998 1.174810031223 0 0 0
2287 1 50.953165953606 19.235174470426998 1.174810031223 0 0 0
2087 1 54.872655811140994 19.235174470426998 1.174810031223 -1 0 0
2095 1 58.79214566867599 19.235174470426998 1.174810031223 -1 0 0
2103 1 62.711635526211 19.235174470426998 1.174810031223 -1 0 0
2111 1 66.631125383746 19.235174470426998 1.174810031223 -1 0 0
2119 1 70.550615241281 19.235174470426998 1.174810031223 -1 0 0
2127 1 74.47010509881599 19.235174470426998 1.174810031223 -1 0 0
2135 1 78.38959495635099 19.235174470426998 1.174810031223 -1 0 0
2143 1 82.30908481388599 19.235174470426998 1.174810031223 -1 0 0
2151 1 86.228574671421 19.235174470426998 1.174810031223 -1 0 0
2159 1 90.14806452895598 19.235174470426998 1.174810031223 -1 0 0
2167 1 94.067554386491 19.235174470426998 1.174810031223 -1 0 0
2175 1 97.987044244026 19.235174470426998 1.174810031223 -1 0 0
2183 1 101.906534101561 19.235174470426998 1.174810031223 -1 0 0
2188 3 9.70078900053295e-06 21.497556449513993 0 0 0 0
2192 1 1.959542734418001 22.629552256927994 1.174810031223 0 0 0
2196 3 3.9194995583239987 21.497556449513993 0 0 0 0
2200 1 5.879032591952999 22.629552256927994 1.174810031223 0 0 0
2204 3 7.838989415859004 21.497556449513993 0 0 0 0
2208 1 9.798522449488004 22.629552256927994 1.174810031223 0 0 0
2212 3 11.758479273394002 21.497556449513993 0 0 0 0
2216 1 13.718012307023002 22.629552256927994 1.174810031223 0 0 0
2220 3 15.677969130929 21.497556449513993 0 0 0 0
2224 1 17.637502164558 22.629552256927994 1.174810031223 0 0 0
2228 3 19.597458988464 21.497556449513993 0 0 0 0
2232 1 21.556992022093 22.629552256927994 1.174810031223 0 0 0
2236 3 23.516948845998996 21.497556449513993 0 0 0 0
2240 1 25.476481879627997 22.629552256927994 1.174810031223 0 0 0
2244 3 27.436438703533994 21.497556449513993 0 0 0 0
2248 1 29.395971737162995 22.629552256927994 1.174810031223 0 0 0
2252 3 31.355928561069007 21.497556449513993 0 0 0 0
2260 3 35.275418418604005 21.497556449513993 0 0 0 0
2256 1 33.31546159469801 22.629552256927994 1.174810031223 0 0 0
2264 1 37.234951452233005 22.629552256927994 1.174810031223 0 0 0
2268 3 39.194908276139 21.497556449513993 0 0 0 0
2272 1 41.154441309768 22.629552256927994 1.174810031223 0 0 0
2276 3 43.114398133674 21.497556449513993 0 0 0 0
2280 1 45.073931167303 22.629552256927994 1.174810031223 0 0 0
2284 3 47.033887991209 21.497556449513993 0 0 0 0
2288 1 48.993421024838 22.629552256927994 1.174810031223 0 0 0
2084 3 50.953377848744 21.497556449513993 0 -1 0 0
2088 1 52.912910882373 22.629552256927994 1.174810031223 -1 0 0
2092 3 54.872867706278996 21.497556449513993 0 -1 0 0
2096 1 56.832400739907996 22.629552256927994 1.174810031223 -1 0 0
2100 3 58.792357563813994 21.497556449513993 0 -1 0 0
2104 1 60.751890597442994 22.629552256927994 1.174810031223 -1 0 0
2108 3 62.71184742134899 21.497556449513993 0 -1 0 0
2112 1 64.67138045497799 22.629552256927994 1.174810031223 -1 0 0
2116 3 66.63133727888399 21.497556449513993 0 -1 0 0
2120 1 68.59087031251299 22.629552256927994 1.174810031223 -1 0 0
2124 3 70.550827136419 21.497556449513993 0 -1 0 0
2128 1 72.51036017004799 22.629552256927994 1.174810031223 -1 0 0
2132 3 74.47031699395399 21.497556449513993 0 -1 0 0
2136 1 76.429850027583 22.629552256927994 1.174810031223 -1 0 0
2140 3 78.389806851489 21.497556449513993 0 -1 0 0
2144 1 80.349339885118 22.629552256927994 1.174810031223 -1 0 0
2148 3 82.309296709024 21.497556449513993 0 -1 0 0
2152 1 84.268829742653 22.629552256927994 1.174810031223 -1 0 0
2156 3 86.228786566559 21.497556449513993 0 -1 0 0
2160 1 88.188319600188 22.629552256927994 1.174810031223 -1 0 0
2164 3 90.14827642409399 21.497556449513993 0 -1 0 0
2168 1 92.107809457723 22.629552256927994 1.174810031223 -1 0 0
2172 3 94.06776628162899 21.497556449513993 0 -1 0 0
2176 1 96.02729931525799 22.629552256927994 1.174810031223 -1 0 0
2180 3 97.987256139164 21.497556449513993 0 -1 0 0
2184 1 99.94678917279299 22.629552256927994 1.174810031223 -1 0 0
2395 3 1.959754629557004 24.89193423601499 0 0 0 0
2403 3 5.879244487092002 24.89193423601499 0 0 0 0
2411 3 9.798734344627 24.89193423601499 0 0 0 0
2419 3 13.718224202162006 24.89193423601499 0 0 0 0
2427 3 17.637714059697004 24.89193423601499 0 0 0 0
2435 3 21.557203917232002 24.89193423601499 0 0 0 0
2443 3 25.476693774767 24.89193423601499 0 0 0 0
2451 3 29.396183632301998 24.89193423601499 0 0 0 0
2459 3 33.315673489836996 24.89193423601499 0 0 0 0
2467 3 37.235163347371994 24.89193423601499 0 0 0 0
2475 3 41.15465320490701 24.89193423601499 0 0 0 0
2483 3 45.074143062442005 24.89193423601499 0 0 0 0
2491 3 48.993632919977 24.89193423601499 0 0 0 0
2291 3 52.913122777511994 24.89193423601499 0 -1 0 0
2299 3 56.83261263504699 24.89193423601499 0 -1 0 0
2307 3 60.752102492582 24.89193423601499 0 -1 0 0
2315 3 64.671592350117 24.89193423601499 0 -1 0 0
2323 3 68.591082207652 24.89193423601499 0 -1 0 0
2331 3 72.51057206518699 24.89193423601499 0 -1 0 0
2339 3 76.43006192272199 24.89193423601499 0 -1 0 0
2347 3 80.349551780257 24.89193423601499 0 -1 0 0
2355 3 84.26904163779199 24.89193423601499 0 -1 0 0
2363 3 88.188531495327 24.89193423601499 0 -1 0 0
2371 3 92.108021352862 24.89193423601499 0 -1 0 0
2379 3 96.027511210397 24.89193423601499 0 -1 0 0
2387 3 99.94700106793199 24.89193423601499 0 -1 0 0
2399 1 3.9192876631860045 26.02393004342899 1.174810031223 0 0 0
2407 1 7.838777520721003 26.02393004342899 1.174810031223 0 0 0
2415 1 11.758267378256 26.02393004342899 1.174810031223 0 0 0
2423 1 15.677757235791006 26.02393004342899 1.174810031223 0 0 0
2431 1 19.597247093326004 26.02393004342899 1.174810031223 0 0 0
2439 1 23.516736950861002 26.02393004342899 1.174810031223 0 0 0
2447 1 27.436226808396 26.02393004342899 1.174810031223 0 0 0
2455 1 31.355716665931 26.02393004342899 1.174810031223 0 0 0
2463 1 35.275206523466 26.02393004342899 1.174810031223 0 0 0
2471 1 39.194696381000995 26.02393004342899 1.174810031223 0 0 0
2479 1 43.11418623853601 26.02393004342899 1.174810031223 0 0 0
2487 1 47.033676096071005 26.02393004342899 1.174810031223 0 0 0
2495 1 50.953165953606 26.02393004342899 1.174810031223 0 0 0
2295 1 54.872655811140994 26.02393004342899 1.174810031223 -1 0 0
2303 1 58.79214566867599 26.02393004342899 1.174810031223 -1 0 0
2311 1 62.711635526211 26.02393004342899 1.174810031223 -1 0 0
2319 1 66.631125383746 26.02393004342899 1.174810031223 -1 0 0
2327 1 70.550615241281 26.02393004342899 1.174810031223 -1 0 0
2335 1 74.47010509881599 26.02393004342899 1.174810031223 -1 0 0
2343 1 78.38959495635099 26.02393004342899 1.174810031223 -1 0 0
2351 1 82.30908481388599 26.02393004342899 1.174810031223 -1 0 0
2359 1 86.228574671421 26.02393004342899 1.174810031223 -1 0 0
2367 1 90.14806452895598 26.02393004342899 1.174810031223 -1 0 0
2375 1 94.067554386491 26.02393004342899 1.174810031223 -1 0 0
2383 1 97.987044244026 26.02393004342899 1.174810031223 -1 0 0
2391 1 101.906534101561 26.02393004342899 1.174810031223 -1 0 0
2396 3 9.70078900053295e-06 28.286312022516 0 0 0 0
2404 3 3.9194995583239987 28.286312022516 0 0 0 0
2412 3 7.838989415859004 28.286312022516 0 0 0 0
2420 3 11.758479273394002 28.286312022516 0 0 0 0
2428 3 15.677969130929 28.286312022516 0 0 0 0
2436 3 19.597458988464 28.286312022516 0 0 0 0
2444 3 23.516948845998996 28.286312022516 0 0 0 0
2452 3 27.436438703533994 28.286312022516 0 0 0 0
2460 3 31.355928561069007 28.286312022516 0 0 0 0
2468 3 35.275418418604005 28.286312022516 0 0 0 0
2476 3 39.194908276139 28.286312022516 0 0 0 0
2484 3 43.114398133674 28.286312022516 0 0 0 0
2492 3 47.033887991209 28.286312022516 0 0 0 0
2292 3 50.953377848744 28.286312022516 0 -1 0 0
2300 3 54.872867706278996 28.286312022516 0 -1 0 0
2308 3 58.792357563813994 28.286312022516 0 -1 0 0
2316 3 62.71184742134899 28.286312022516 0 -1 0 0
2324 3 66.63133727888399 28.286312022516 0 -1 0 0
2332 3 70.550827136419 28.286312022516 0 -1 0 0
2340 3 74.47031699395399 28.286312022516 0 -1 0 0
2348 3 78.389806851489 28.286312022516 0 -1 0 0
2356 3 82.309296709024 28.286312022516 0 -1 0 0
2364 3 86.228786566559 28.286312022516 0 -1 0 0
2372 3 90.14827642409399 28.286312022516 0 -1 0 0
2380 3 94.06776628162899 28.286312022516 0 -1 0 0
2388 3 97.987256139164 28.286312022516 0 -1 0 0
2400 1 1.959542734418001 29.41830782993 1.174810031223 0 0 0
2408 1 5.879032591952999 29.41830782993 1.174810031223 0 0 0
2416 1 9.798522449488004 29.41830782993 1.174810031223 0 0 0
2424 1 13.718012307023002 29.41830782993 1.174810031223 0 0 0
2432 1 17.637502164558 29.41830782993 1.174810031223 0 0 0
2440 1 21.556992022093 29.41830782993 1.174810031223 0 0 0
2448 1 25.476481879627997 29.41830782993 1.174810031223 0 0 0
2456 1 29.395971737162995 29.41830782993 1.174810031223 0 0 0
2464 1 33.31546159469801 29.41830782993 1.174810031223 0 0 0
2472 1 37.234951452233005 29.41830782993 1.174810031223 0 0 0
2480 1 41.154441309768 29.41830782993 1.174810031223 0 0 0
2488 1 45.073931167303 29.41830782993 1.174810031223 0 0 0
2496 1 48.993421024838 29.41830782993 1.174810031223 0 0 0
2296 1 52.912910882373 29.41830782993 1.174810031223 -1 0 0
2304 1 56.832400739907996 29.41830782993 1.174810031223 -1 0 0
2312 1 60.751890597442994 29.41830782993 1.174810031223 -1 0 0
2320 1 64.67138045497799 29.41830782993 1.174810031223 -1 0 0
2328 1 68.59087031251299 29.41830782993 1.174810031223 -1 0 0
2336 1 72.51036017004799 29.41830782993 1.174810031223 -1 0 0
2344 1 76.429850027583 29.41830782993 1.174810031223 -1 0 0
2352 1 80.349339885118 29.41830782993 1.174810031223 -1 0 0
2360 1 84.268829742653 29.41830782993 1.174810031223 -1 0 0
2368 1 88.188319600188 29.41830782993 1.174810031223 -1 0 0
2376 1 92.107809457723 29.41830782993 1.174810031223 -1 0 0
2384 1 96.02729931525799 29.41830782993 1.174810031223 -1 0 0
2392 1 99.94678917279299 29.41830782993 1.174810031223 -1 0 0
2603 3 1.959754629557004 31.680689809016997 0 0 0 0
2607 1 3.9192876631860045 32.812685616431 1.174810031223 0 0 0
2611 3 5.879244487092002 31.680689809016997 0 0 0 0
2615 1 7.838777520721003 32.812685616431 1.174810031223 0 0 0
2619 3 9.798734344627 31.680689809016997 0 0 0 0
2623 1 11.758267378256 32.812685616431 1.174810031223 0 0 0
2627 3 13.718224202162006 31.680689809016997 0 0 0 0
2631 1 15.677757235791006 32.812685616431 1.174810031223 0 0 0
2635 3 17.637714059697004 31.680689809016997 0 0 0 0
2639 1 19.597247093326004 32.812685616431 1.174810031223 0 0 0
2643 3 21.557203917232002 31.680689809016997 0 0 0 0
2647 1 23.516736950861002 32.812685616431 1.174810031223 0 0 0
2651 3 25.476693774767 31.680689809016997 0 0 0 0
2655 1 27.436226808396 32.812685616431 1.174810031223 0 0 0
2659 3 29.396183632301998 31.680689809016997 0 0 0 0
2663 1 31.355716665931 32.812685616431 1.174810031223 0 0 0
2667 3 33.315673489836996 31.680689809016997 0 0 0 0
2671 1 35.275206523466 32.812685616431 1.174810031223 0 0 0
2675 3 37.235163347371994 31.680689809016997 0 0 0 0
2679 1 39.194696381000995 32.812685616431 1.174810031223 0 0 0
2683 3 41.15465320490701 31.680689809016997 0 0 0 0
2687 1 43.11418623853601 32.812685616431 1.174810031223 0 0 0
2691 3 45.074143062442005 31.680689809016997 0 0 0 0
2695 1 47.033676096071005 32.812685616431 1.174810031223 0 0 0
2699 3 48.993632919977 31.680689809016997 0 0 0 0
2703 1 50.953165953606 32.812685616431 1.174810031223 0 0 0
2499 3 52.913122777511994 31.680689809016997 0 -1 0 0
2503 1 54.872655811140994 32.812685616431 1.174810031223 -1 0 0
2507 3 56.83261263504699 31.680689809016997 0 -1 0 0
2511 1 58.79214566867599 32.812685616431 1.174810031223 -1 0 0
2515 3 60.752102492582 31.680689809016997 0 -1 0 0
2519 1 62.711635526211 32.812685616431 1.174810031223 -1 0 0
2523 3 64.671592350117 31.680689809016997 0 -1 0 0
2531 3 68.591082207652 31.680689809016997 0 -1 0 0
2527 1 66.631125383746 32.812685616431 1.174810031223 -1 0 0
2535 1 70.550615241281 32.812685616431 1.174810031223 -1 0 0
2539 3 72.51057206518699 31.680689809016997 0 -1 0 0
2543 1 74.47010509881599 32.812685616431 1.174810031223 -1 0 0
2547 3 76.43006192272199 31.680689809016997 0 -1 0 0
2551 1 78.38959495635099 32.812685616431 1.174810031223 -1 0 0
2555 3 80.349551780257 31.680689809016997 0 -1 0 0
2559 1 82.30908481388599 32.812685616431 1.174810031223 -1 0 0
2563 3 84.26904163779199 31.680689809016997 0 -1 0 0
2567 1 86.228574671421 32.812685616431 1.174810031223 -1 0 0
2571 3 88.188531495327 31.680689809016997 0 -1 0 0
2575 1 90.14806452895598 32.812685616431 1.174810031223 -1 0 0
2579 3 92.108021352862 31.680689809016997 0 -1 0 0
2583 1 94.067554386491 32.812685616431 1.174810031223 -1 0 0
2587 3 96.027511210397 31.680689809016997 0 -1 0 0