LAMMPS data file via write_data, version 29 Aug 2024, timestep = 6, units = metal

9360 atoms
12 atom types

0 101.90673629591 xlo xhi
0 101.83133359503 ylo yhi
-50 50 zlo zhi

Masses

1 114.818
2 114.818
3 114.818
4 114.818
5 114.818
6 114.818
7 32.06
8 32.06
9 32.06
10 32.06
11 32.06
12 32.06

Atoms # atomic

1572 7 3.919232690637286 1.1180286168050977 -0.07916522036778974 0 0 0
1568 1 1.9598016228809143 2.2480932686994426 1.1086022335289103 0 0 0
1771 7 1.9594877618688509 4.5124064033061275 -0.07916522036778378 0 0 0
1775 1 3.9195465516484096 5.6424710552004305 1.1086022335289087 0 0 0
1767 1 5.669411346787001e-05 5.642471055200457 1.1086022335289423 0 0 0
1580 7 7.838722548172267 1.1180286168051587 -0.0791652203678015 0 0 0
1576 1 5.879291480415948 2.248093268699418 1.1086022335289238 0 0 0
1584 1 9.798781337950928 2.2480932686994257 1.1086022335289327 0 0 0
1779 7 5.87897761940384 4.51240640330613 -0.07916522036781021 0 0 0
1787 7 9.798467476938834 4.512406403306135 -0.07916522036780342 0 0 0
1783 1 7.839036409183443 5.6424710552004385 1.108602233528921 0 0 0
1588 7 11.758212405707278 1.1180286168051414 -0.07916522036781519 0 0 0
1596 7 15.677702263242287 1.1180286168051667 -0.0791652203678103 0 0 0
1592 1 13.718271195485942 2.2480932686994253 1.1086022335289345 0 0 0
1795 7 13.717957334473835 4.512406403306129 -0.07916522036781351 0 0 0
1791 1 11.75852626671843 5.6424710552004385 1.1086022335289283 0 0 0
1799 1 15.678016124253435 5.642471055200444 1.1086022335289238 0 0 0
1604 7 19.59719212077728 1.1180286168050875 -0.07916522036778295 0 0 0
1600 1 17.637761053020924 2.248093268699431 1.108602233528922 0 0 0
1608 1 21.557250910555947 2.2480932686994404 1.1086022335289145 0 0 0
1803 7 17.63744719200883 4.51240640330612 -0.0791652203678057 0 0 0
1811 7 21.556937049543823 4.512406403306123 -0.07916522036779944 0 0 0
1807 1 19.597505981788444 5.642471055200444 1.1086022335289167 0 0 0
1612 7 23.516681978312263 1.118028616805087 -0.07916522036777586 0 0 0
1620 7 27.43617183584726 1.118028616805061 -0.0791652203677714 0 0 0
1616 1 25.476740768090952 2.2480932686994426 1.1086022335289172 0 0 0
1819 7 25.476426907078828 4.512406403306122 -0.0791652203677975 0 0 0
1815 1 23.516995839323446 5.642471055200444 1.1086022335289207 0 0 0
1823 1 27.43648569685844 5.642471055200446 1.1086022335289216 0 0 0
1628 7 31.35566169338226 1.1180286168050717 -0.07916522036776455 0 0 0
1624 1 29.396230625625964 2.2480932686994284 1.1086022335289303 0 0 0
1632 1 33.31572048316092 2.2480932686994315 1.10860223352893 0 0 0
1827 7 29.395916764613826 4.512406403306128 -0.07916522036781416 0 0 0
1835 7 33.31540662214883 4.51240640330613 -0.07916522036781433 0 0 0
1831 1 31.35597555439345 5.642471055200459 1.10860223352892 0 0 0
1636 7 35.27515155091728 1.1180286168050937 -0.0791652203677949 0 0 0
1644 7 39.19464140845226 1.1180286168051494 -0.0791652203678133 0 0 0
1640 1 37.23521034069594 2.2480932686994555 1.108602233528917 0 0 0
1843 7 37.23489647968382 4.512406403306111 -0.07916522036778814 0 0 0
1839 1 35.27546541192846 5.642471055200431 1.1086022335289194 0 0 0
1847 1 39.19495526946347 5.642471055200432 1.1086022335289103 0 0 0
1652 7 43.11413126598725 1.1180286168051499 -0.07916522036781239 0 0 0
1648 1 41.154700198230955 2.248093268699431 1.1086022335289196 0 0 0
1656 1 45.07419005576595 2.248093268699438 1.1086022335289374 0 0 0
1851 7 41.15438633721881 4.51240640330613 -0.0791652203677984 0 0 0
1859 7 45.0738761947538 4.512406403306117 -0.07916522036781486 0 0 0
1855 1 43.114445126998454 5.642471055200442 1.1086022335289272 0 0 0
1660 7 47.033621123522245 1.1180286168051283 -0.07916522036781097 0 0 0
1664 1 48.993679913300966 2.2480932686994395 1.1086022335289212 0 0 0
1867 7 48.99336605228881 4.512406403306116 -0.07916522036780455 0 0 0
1460 7 50.953110981057264 1.1180286168051214 -0.07916522036778616 -1 0 0
1863 1 47.03393498453346 5.642471055200446 1.1086022335289327 0 0 0
1468 7 54.87260083859226 1.1180286168051015 -0.07916522036779863 -1 0 0
1464 1 52.913169770835935 2.248093268699429 1.1086022335289214 -1 0 0
1667 7 52.91285590982384 4.51240640330612 -0.07916522036781437 -1 0 0
1871 1 50.95342484206843 5.642471055200451 1.1086022335289472 0 0 0
1671 1 54.87291469960346 5.642471055200424 1.1086022335289079 -1 0 0
1476 7 58.79209069612729 1.1180286168051083 -0.0791652203677893 -1 0 0
1472 1 56.83265962837093 2.248093268699445 1.1086022335289278 -1 0 0
1480 1 60.75214948590594 2.2480932686994155 1.1086022335289234 -1 0 0
1675 7 56.832345767358824 4.51240640330614 -0.07916522036778242 -1 0 0
1683 7 60.75183562489382 4.512406403306119 -0.07916522036782468 -1 0 0
1679 1 58.792404557138404 5.6424710552004536 1.1086022335289094 -1 0 0
1484 7 62.711580553662245 1.1180286168051183 -0.07916522036779076 -1 0 0
1492 7 66.63107041119727 1.1180286168051234 -0.07916522036778258 -1 0 0
1488 1 64.67163934344093 2.248093268699447 1.108602233528914 -1 0 0
1691 7 64.67132548242884 4.512406403306122 -0.07916522036778671 -1 0 0
1687 1 62.711894414673445 5.642471055200446 1.1086022335289327 -1 0 0
1695 1 66.63138427220842 5.642471055200449 1.1086022335289047 -1 0 0
1500 7 70.5505602687323 1.118028616805129 -0.07916522036776702 -1 0 0
1496 1 68.59112920097591 2.248093268699409 1.1086022335289112 -1 0 0
1504 1 72.51061905851088 2.248093268699413 1.1086022335289363 -1 0 0
1699 7 68.59081533996384 4.51240640330615 -0.07916522036779394 -1 0 0
1707 7 72.5103051974989 4.5124064033061035 -0.07916522036782953 -1 0 0
1703 1 70.55087412974336 5.64247105520046 1.1086022335289327 -1 0 0
1508 7 74.47005012626728 1.1180286168051699 -0.07916522036783281 -1 0 0
1516 7 78.38953998380231 1.1180286168051459 -0.07916522036778914 -1 0 0
1512 1 76.43010891604592 2.2480932686994506 1.1086022335289176 -1 0 0
1715 7 76.42979505503382 4.512406403306091 -0.07916522036780727 -1 0 0
1711 1 74.47036398727842 5.6424710552004145 1.1086022335289285 -1 0 0
1719 1 78.38985384481343 5.64247105520046 1.1086022335289345 -1 0 0
1524 7 82.30902984133732 1.1180286168051152 -0.0791652203677597 -1 0 0
1520 1 80.3495987735809 2.2480932686994213 1.108602233528909 -1 0 0
1528 1 84.26908863111586 2.2480932686994195 1.1086022335289114 -1 0 0
1723 7 80.34928491256883 4.512406403306127 -0.07916522036780105 -1 0 0
1731 7 84.26877477010382 4.512406403306143 -0.07916522036778782 -1 0 0
1727 1 82.30934370234844 5.642471055200423 1.1086022335288996 -1 0 0
1532 7 86.22851969887225 1.118028616805131 -0.07916522036787242 -1 0 0
1540 7 90.14800955640729 1.1180286168051758 -0.07916522036777682 -1 0 0
1536 1 88.188578488651 2.2480932686994533 1.1086022335289556 -1 0 0
1739 7 88.18826462763889 4.512406403306111 -0.07916522036781064 -1 0 0
1735 1 86.22883355988338 5.642471055200475 1.1086022335289256 -1 0 0
1743 1 90.1483234174184 5.642471055200424 1.1086022335289392 -1 0 0
1548 7 94.06749941394233 1.1180286168051308 -0.07916522036778995 -1 0 0
1544 1 92.10806834618587 2.248093268699413 1.1086022335289125 -1 0 0
1552 1 96.02755820372087 2.2480932686994244 1.1086022335289158 -1 0 0
1747 7 92.10775448517386 4.512406403306125 -0.07916522036781166 -1 0 0
1755 7 96.02724434270888 4.512406403306119 -0.07916522036780205 -1 0 0
1751 1 94.06781327495341 5.642471055200448 1.1086022335289318 -1 0 0
1564 7 101.90647912901231 1.1180286168050946 -0.0791652203678 -1 0 0
1556 7 97.98698927147728 1.118028616805096 -0.07916522036779679 -1 0 0
1560 1 99.9470480612559 2.2480932686994315 1.10860223352894 -1 0 0
1763 7 99.94673420024381 4.512406403306125 -0.07916522036782514 -1 0 0
1759 1 97.9873031324884 5.642471055200438 1.1086022335288888 -1 0 0
1780 7 3.919232690637293 7.906784189807114 -0.07916522036781032 0 0 0
1776 1 1.9598016228809516 9.036848841701467 1.1086022335289463 0 0 0
1979 7 1.9594877618688529 11.301161976308132 -0.07916522036779026 0 0 0
1788 7 7.838722548172267 7.90678418980712 -0.07916522036780146 0 0 0
1784 1 5.879291480415938 9.036848841701437 1.1086022335289247 0 0 0
1792 1 9.798781337950942 9.036848841701437 1.1086022335289265 0 0 0
1987 7 5.878977619403832 11.30116197630812 -0.079165220367808 0 0 0
1995 7 9.798467476938843 11.301161976308126 -0.07916522036780156 0 0 0
1796 7 11.75821240570728 7.906784189807125 -0.07916522036779867 0 0 0
1804 7 15.677702263242276 7.906784189807116 -0.07916522036779888 0 0 0
1800 1 13.718271195485931 9.036848841701437 1.108602233528923 0 0 0
2003 7 13.717957334473843 11.301161976308121 -0.07916522036780518 0 0 0
1812 7 19.59719212077728 7.906784189807119 -0.07916522036779859 0 0 0
1808 1 17.637761053020938 9.036848841701442 1.1086022335289218 0 0 0
1816 1 21.557250910555943 9.036848841701433 1.108602233528922 0 0 0
2011 7 17.63744719200885 11.301161976308123 -0.07916522036779713 0 0 0
2019 7 21.55693704954383 11.301161976308117 -0.07916522036780915 0 0 0
1820 7 23.516681978312278 7.906784189807122 -0.07916522036779441 0 0 0
1828 7 27.436171835847286 7.906784189807114 -0.07916522036780793 0 0 0
1824 1 25.476740768090924 9.036848841701435 1.1086022335289312 0 0 0
2027 7 25.476426907078846 11.301161976308128 -0.07916522036780417 0 0 0
1836 7 31.355661693382274 7.906784189807116 -0.07916522036779257 0 0 0
1832 1 29.396230625625943 9.036848841701424 1.108602233528932 0 0 0
1840 1 33.315720483160916 9.03684884170142 1.1086022335289316 0 0 0
2035 7 29.395916764613833 11.301161976308135 -0.07916522036780722 0 0 0
2043 7 33.31540662214881 11.301161976308125 -0.0791652203678236 0 0 0
1844 7 35.27515155091728 7.906784189807126 -0.07916522036780162 0 0 0
1852 7 39.194641408452284 7.906784189807118 -0.0791652203678009 0 0 0
1848 1 37.23521034069592 9.036848841701445 1.1086022335289174 0 0 0
2051 7 37.23489647968382 11.301161976308123 -0.07916522036779067 0 0 0
1860 7 43.11413126598726 7.906784189807113 -0.07916522036781287 0 0 0
1856 1 41.154700198230934 9.036848841701445 1.1086022335289256 0 0 0
1864 1 45.07419005576596 9.036848841701433 1.1086022335289325 0 0 0
2059 7 41.154386337218824 11.301161976308125 -0.07916522036779414 0 0 0
2067 7 45.073876194753815 11.301161976308128 -0.07916522036780804 0 0 0
1868 7 47.033621123522266 7.906784189807132 -0.07916522036779351 0 0 0
1872 1 48.99367991330093 9.036848841701428 1.1086022335289245 0 0 0
2075 7 48.99336605228883 11.30116197630812 -0.07916522036781923 0 0 0
1668 7 50.953110981057286 7.906784189807126 -0.07916522036780026 -1 0 0
1676 7 54.87260083859227 7.906784189807123 -0.0791652203678066 -1 0 0
1672 1 52.91316977083593 9.036848841701433 1.1086022335289203 -1 0 0
1875 7 52.9128559098238 11.301161976308126 -0.0791652203677949 -1 0 0
1684 7 58.79209069612731 7.906784189807112 -0.07916522036778782 -1 0 0
1680 1 56.832659628370926 9.036848841701454 1.1086022335289212 -1 0 0
1688 1 60.75214948590589 9.036848841701431 1.108602233528937 -1 0 0
1883 7 56.8323457673588 11.301161976308117 -0.07916522036779367 -1 0 0
1891 7 60.75183562489379 11.301161976308123 -0.07916522036781523 -1 0 0
1692 7 62.71158055366229 7.906784189807111 -0.07916522036781545 -1 0 0
1700 7 66.63107041119727 7.906784189807101 -0.07916522036779527 -1 0 0
1696 1 64.67163934344093 9.036848841701453 1.10860223352892 -1 0 0
1899 7 64.67132548242881 11.301161976308116 -0.07916522036779244 -1 0 0
1708 7 70.55056026873231 7.906784189807132 -0.07916522036777746 -1 0 0
1704 1 68.59112920097593 9.03684884170143 1.1086022335289205 -1 0 0
1712 1 72.51061905851088 9.036848841701417 1.1086022335289267 -1 0 0
1907 7 68.59081533996381 11.301161976308153 -0.07916522036778122 -1 0 0
1915 7 72.51030519749887 11.301161976308098 -0.07916522036783713 -1 0 0
1716 7 74.47005012626728 7.906784189807138 -0.0791652203678239 -1 0 0
1724 7 78.38953998380231 7.906784189807125 -0.0791652203677807 -1 0 0
1720 1 76.43010891604594 9.036848841701472 1.108602233528914 -1 0 0
1923 7 76.42979505503381 11.301161976308103 -0.07916522036778431 -1 0 0
1732 7 82.30902984133732 7.90678418980712 -0.07916522036780034 -1 0 0
1728 1 80.34959877358087 9.036848841701428 1.108602233528924 -1 0 0
1736 1 84.26908863111592 9.036848841701417 1.1086022335288934 -1 0 0
1931 7 80.34928491256882 11.301161976308125 -0.07916522036781622 -1 0 0
1939 7 84.26877477010378 11.301161976308123 -0.0791652203678072 -1 0 0
1740 7 86.22851969887229 7.906784189807121 -0.0791652203677707 -1 0 0
1748 7 90.14800955640726 7.9067841898071025 -0.07916522036784125 -1 0 0
1744 1 88.1885784886509 9.036848841701428 1.1086022335289292 -1 0 0
1947 7 88.1882646276388 11.301161976308137 -0.07916522036779938 -1 0 0
1756 7 94.06749941394223 7.906784189807122 -0.07916522036780436 -1 0 0
1752 1 92.10806834618599 9.036848841701435 1.108602233528938 -1 0 0
1760 1 96.02755820372097 9.036848841701453 1.108602233528933 -1 0 0
1955 7 92.10775448517383 11.301161976308139 -0.07916522036779974 -1 0 0
1963 7 96.02724434270884 11.301161976308112 -0.07916522036780133 -1 0 0
1772 7 101.90647912901224 7.9067841898071 -0.07916522036781361 -1 0 0
1764 7 97.98698927147724 7.906784189807123 -0.0791652203677816 -1 0 0
1768 1 99.94704806125594 9.036848841701419 1.1086022335289183 -1 0 0
1971 7 99.94673420024381 11.301161976308126 -0.07916522036782793 -1 0 0
1983 1 3.919546551648413 12.431226628202403 1.1086022335289223 0 0 0
1984 1 1.959801622880927 15.82560441470343 1.1086022335289312 0 0 0
1988 7 3.9192326906372887 14.69553976280913 -0.07916522036781551 0 0 0
1975 1 5.669411346787001e-05 12.43122662820244 1.1086022335289534 0 0 0
1991 1 7.83903640918344 12.431226628202433 1.1086022335289338 0 0 0
1992 1 5.879291480415944 15.825604414703443 1.1086022335289172 0 0 0
1996 7 7.83872254817227 14.695539762809123 -0.07916522036780045 0 0 0
2000 1 9.798781337950938 15.825604414703433 1.1086022335289205 0 0 0
1999 1 11.758526266718425 12.431226628202436 1.1086022335289274 0 0 0
2007 1 15.678016124253425 12.431226628202436 1.1086022335289245 0 0 0
2004 7 11.758212405707276 14.695539762809117 -0.07916522036779626 0 0 0
2008 1 13.71827119548593 15.825604414703431 1.1086022335289267 0 0 0
2012 7 15.677702263242281 14.695539762809117 -0.0791652203677988 0 0 0
2015 1 19.59750598178842 12.43122662820243 1.1086022335289216 0 0 0
2016 1 17.637761053020938 15.82560441470342 1.1086022335289218 0 0 0
2020 7 19.59719212077728 14.695539762809124 -0.07916522036779357 0 0 0
2024 1 21.557250910555943 15.825604414703418 1.108602233528911 0 0 0
2023 1 23.51699583932344 12.431226628202438 1.1086022335289338 0 0 0
2031 1 27.436485696858437 12.431226628202433 1.1086022335289174 0 0 0
2028 7 23.516681978312263 14.69553976280912 -0.07916522036779519 0 0 0
2032 1 25.47674076809095 15.825604414703426 1.1086022335289227 0 0 0
2036 7 27.436171835847265 14.695539762809114 -0.07916522036780058 0 0 0
2039 1 31.355975554393446 12.431226628202436 1.1086022335289156 0 0 0
2040 1 29.39623062562596 15.825604414703413 1.1086022335289312 0 0 0
2044 7 31.355661693382267 14.695539762809124 -0.07916522036779029 0 0 0
2048 1 33.315720483160916 15.825604414703424 1.1086022335289265 0 0 0
2047 1 35.27546541192848 12.431226628202433 1.1086022335289372 0 0 0
2055 1 39.194955269463456 12.431226628202433 1.1086022335289145 0 0 0
2052 7 35.275151550917286 14.695539762809123 -0.07916522036780174 0 0 0
2056 1 37.23521034069592 15.825604414703442 1.1086022335289116 0 0 0
2060 7 39.19464140845228 14.695539762809117 -0.07916522036779595 0 0 0
2063 1 43.11444512699845 12.431226628202424 1.108602233528921 0 0 0
2064 1 41.154700198230934 15.825604414703452 1.1086022335289147 0 0 0
2068 7 43.11413126598726 14.695539762809114 -0.07916522036781143 0 0 0
2072 1 45.07419005576595 15.825604414703426 1.1086022335289392 0 0 0
2071 1 47.03393498453343 12.431226628202444 1.1086022335289378 0 0 0
2076 7 47.03362112352228 14.69553976280912 -0.0791652203677991 0 0 0
2080 1 48.99367991330094 15.82560441470343 1.1086022335289054 0 0 0
1876 7 50.95311098105725 14.695539762809108 -0.07916522036779435 -1 0 0
2079 1 50.953424842068465 12.431226628202438 1.1086022335289072 0 0 0
1879 1 54.87291469960346 12.431226628202428 1.1086022335289267 -1 0 0
1880 1 52.91316977083594 15.825604414703422 1.1086022335289414 -1 0 0
1884 7 54.872600838592284 14.69553976280912 -0.07916522036780312 -1 0 0
1887 1 58.792404557138454 12.431226628202447 1.108602233528917 -1 0 0
1888 1 56.83265962837092 15.825604414703443 1.1086022335289192 -1 0 0
1892 7 58.79209069612728 14.695539762809096 -0.07916522036779887 -1 0 0
1896 1 60.752149485905925 15.82560441470343 1.108602233528924 -1 0 0
1895 1 62.711894414673466 12.43122662820243 1.1086022335289423 -1 0 0
1903 1 66.63138427220848 12.431226628202431 1.1086022335289052 -1 0 0
1900 7 62.71158055366227 14.69553976280912 -0.0791652203678092 -1 0 0
1904 1 64.67163934344093 15.825604414703458 1.1086022335289094 -1 0 0
1908 7 66.63107041119727 14.695539762809108 -0.07916522036779118 -1 0 0
1911 1 70.55087412974339 12.43122662820245 1.1086022335289394 -1 0 0
1912 1 68.59112920097591 15.825604414703417 1.1086022335289156 -1 0 0
1916 7 70.55056026873231 14.69553976280914 -0.07916522036777583 -1 0 0
1920 1 72.51061905851088 15.825604414703411 1.1086022335289198 -1 0 0
1919 1 74.47036398727845 12.431226628202399 1.1086022335289372 -1 0 0
1927 1 78.38985384481343 12.431226628202444 1.1086022335289245 -1 0 0
1924 7 74.47005012626725 14.695539762809133 -0.0791652203678388 -1 0 0
1928 1 76.43010891604598 15.825604414703463 1.1086022335289105 -1 0 0
1932 7 78.3895399838023 14.695539762809139 -0.0791652203677679 -1 0 0
1935 1 82.30934370234847 12.431226628202426 1.108602233528936 -1 0 0
1936 1 80.34959877358088 15.825604414703392 1.1086022335289227 -1 0 0
1940 7 82.30902984133726 14.695539762809107 -0.07916522036782407 -1 0 0
1944 1 84.26908863111598 15.825604414703431 1.1086022335289125 -1 0 0
1943 1 86.22883355988348 12.43122662820245 1.1086022335289114 -1 0 0
1951 1 90.14832341741845 12.43122662820242 1.10860223352894 -1 0 0
1948 7 86.22851969887226 14.695539762809132 -0.0791652203677605 -1 0 0
1952 1 88.18857848865092 15.825604414703392 1.1086022335289174 -1 0 0
1956 7 90.14800955640725 14.695539762809114 -0.07916522036782646 -1 0 0
1959 1 94.06781327495342 12.431226628202422 1.1086022335289294 -1 0 0
1960 1 92.10806834618597 15.825604414703447 1.1086022335289363 -1 0 0
1964 7 94.06749941394227 14.695539762809133 -0.07916522036780155 -1 0 0
1968 1 96.02755820372094 15.825604414703424 1.108602233528913 -1 0 0
1980 7 101.90647912901227 14.695539762809119 -0.07916522036780782 -1 0 0
1967 1 97.98730313248844 12.431226628202433 1.1086022335289198 -1 0 0
1972 7 97.98698927147723 14.695539762809119 -0.07916522036779981 -1 0 0
1976 1 99.94704806125594 15.825604414703422 1.1086022335289434 -1 0 0
2187 7 1.9594877618688196 18.08991754931016 -0.07916522036776555 0 0 0
2191 1 3.9195465516484145 19.219982201204395 1.1086022335289232 0 0 0
2196 7 3.919232690637302 21.484295335811137 -0.0791652203678261 0 0 0
2183 1 5.669411349629172e-05 19.219982201204406 1.1086022335289287 0 0 0
2192 1 1.9598016228809267 22.614359987705452 1.1086022335289423 0 0 0
2195 7 5.878977619403832 18.08991754931011 -0.07916522036779255 0 0 0
2203 7 9.798467476938841 18.089917549310123 -0.07916522036779072 0 0 0
2199 1 7.83903640918344 19.219982201204424 1.1086022335289354 0 0 0
2204 7 7.838722548172276 21.48429533581113 -0.07916522036781563 0 0 0
2200 1 5.879291480415928 22.614359987705438 1.1086022335289298 0 0 0
2208 1 9.798781337950944 22.61435998770544 1.1086022335289234 0 0 0
2211 7 13.717957334473839 18.08991754931012 -0.07916522036780646 0 0 0
2207 1 11.75852626671842 19.219982201204427 1.1086022335289332 0 0 0
2215 1 15.678016124253439 19.219982201204427 1.1086022335289338 0 0 0
2212 7 11.758212405707276 21.48429533581113 -0.07916522036780414 0 0 0
2220 7 15.677702263242287 21.48429533581113 -0.07916522036780166 0 0 0
2216 1 13.718271195485931 22.614359987705438 1.1086022335289232 0 0 0
2219 7 17.637447192008832 18.08991754931013 -0.0791652203677988 0 0 0
2227 7 21.556937049543826 18.08991754931013 -0.0791652203677897 0 0 0
2223 1 19.59750598178844 19.219982201204406 1.1086022335289243 0 0 0
2228 7 19.597192120777276 21.484295335811154 -0.07916522036779941 0 0 0
2224 1 17.63776105302094 22.61435998770542 1.1086022335289136 0 0 0
2232 1 21.557250910555926 22.61435998770542 1.108602233528931 0 0 0
2235 7 25.476426907078828 18.089917549310133 -0.07916522036778761 0 0 0
2231 1 23.516995839323446 19.219982201204413 1.1086022335289205 0 0 0
2239 1 27.43648569685844 19.219982201204402 1.1086022335289278 0 0 0
2236 7 23.516681978312278 21.48429533581113 -0.07916522036781468 0 0 0
2244 7 27.43617183584727 21.48429533581115 -0.07916522036780863 0 0 0
2240 1 25.476740768090952 22.614359987705427 1.1086022335289218 0 0 0
2243 7 29.395916764613823 18.089917549310137 -0.07916522036780241 0 0 0
2251 7 33.315406622148835 18.089917549310126 -0.0791652203678023 0 0 0
2247 1 31.35597555439344 19.219982201204427 1.1086022335289307 0 0 0
2252 7 31.355661693382277 21.484295335811115 -0.07916522036782617 0 0 0
2248 1 29.396230625625922 22.61435998770544 1.1086022335289432 0 0 0
2256 1 33.31572048316093 22.614359987705452 1.1086022335289365 0 0 0
2259 7 37.23489647968384 18.08991754931011 -0.07916522036779046 0 0 0
2255 1 35.27546541192844 19.219982201204438 1.108602233528926 0 0 0
2263 1 39.19495526946344 19.219982201204413 1.1086022335289223 0 0 0
2260 7 35.2751515509173 21.484295335811126 -0.07916522036779115 0 0 0
2268 7 39.194641408452306 21.484295335811137 -0.0791652203678116 0 0 0
2264 1 37.235210340695886 22.614359987705434 1.108602233528917 0 0 0
2267 7 41.154386337218824 18.089917549310105 -0.07916522036778609 0 0 0
2275 7 45.0738761947538 18.089917549310123 -0.07916522036781452 0 0 0
2271 1 43.11444512699844 19.21998220120445 1.1086022335289194 0 0 0
2276 7 43.11413126598728 21.48429533581109 -0.07916522036781339 0 0 0
2272 1 41.154700198230906 22.614359987705452 1.1086022335289192 0 0 0
2280 1 45.07419005576596 22.614359987705434 1.108602233528926 0 0 0
2283 7 48.99336605228882 18.089917549310112 -0.07916522036779555 0 0 0
2279 1 47.03393498453346 19.219982201204427 1.1086022335289383 0 0 0
2284 7 47.03362112352225 21.484295335811133 -0.07916522036780711 0 0 0
2084 7 50.95311098105724 21.48429533581112 -0.07916522036780647 -1 0 0
2288 1 48.99367991330096 22.61435998770544 1.1086022335289152 0 0 0
2287 1 50.95342484206843 19.219982201204445 1.1086022335289454 0 0 0
2083 7 52.912855909823826 18.089917549310126 -0.07916522036781874 -1 0 0
2087 1 54.87291469960346 19.219982201204434 1.1086022335289107 -1 0 0
2092 7 54.87260083859227 21.484295335811108 -0.07916522036779738 -1 0 0
2088 1 52.91316977083596 22.61435998770544 1.1086022335289412 -1 0 0
2091 7 56.832345767358824 18.08991754931013 -0.07916522036777063 -1 0 0
2099 7 60.751835624893836 18.089917549310112 -0.07916522036781405 -1 0 0
2095 1 58.792404557138404 19.219982201204438 1.1086022335289272 -1 0 0
2100 7 58.79209069612729 21.48429533581113 -0.07916522036778688 -1 0 0
2096 1 56.83265962837094 22.61435998770544 1.1086022335289023 -1 0 0
2104 1 60.75214948590589 22.61435998770543 1.108602233528943 -1 0 0
2107 7 64.67132548242884 18.089917549310094 -0.07916522036778757 -1 0 0
2103 1 62.711894414673424 19.219982201204438 1.1086022335289365 -1 0 0
2111 1 66.63138427220844 19.219982201204417 1.1086022335289327 -1 0 0
2108 7 62.711580553662316 21.484295335811122 -0.07916522036780899 -1 0 0
2116 7 66.63107041119729 21.48429533581113 -0.07916522036781352 -1 0 0
2112 1 64.67163934344089 22.614359987705463 1.108602233528903 -1 0 0
2115 7 68.59081533996384 18.08991754931014 -0.0791652203677865 -1 0 0
2123 7 72.51030519749885 18.089917549310112 -0.07916522036780325 -1 0 0
2119 1 70.5508741297434 19.21998220120441 1.1086022335289178 -1 0 0
2124 7 70.55056026873227 21.484295335811154 -0.07916522036779255 -1 0 0
2120 1 68.59112920097594 22.614359987705416 1.108602233528917 -1 0 0
2128 1 72.51061905851087 22.614359987705445 1.1086022335289545 -1 0 0
2131 7 76.42979505503385 18.089917549310105 -0.07916522036777435 -1 0 0
2127 1 74.47036398727843 19.219982201204413 1.1086022335289327 -1 0 0
2135 1 78.3898538448134 19.219982201204434 1.1086022335289167 -1 0 0
2132 7 74.4700501262673 21.48429533581112 -0.07916522036783898 -1 0 0
2140 7 78.38953998380228 21.48429533581114 -0.07916522036777711 -1 0 0
2136 1 76.43010891604595 22.61435998770545 1.108602233528901 -1 0 0
2139 7 80.34928491256882 18.089917549310133 -0.07916522036782876 -1 0 0
2147 7 84.2687747701038 18.08991754931012 -0.07916522036780145 -1 0 0
2143 1 82.30934370234846 19.219982201204438 1.1086022335289345 -1 0 0
2148 7 82.30902984133725 21.484295335811105 -0.07916522036783154 -1 0 0
2144 1 80.34959877358088 22.614359987705424 1.1086022335289285 -1 0 0
2152 1 84.269088631116 22.61435998770543 1.1086022335289023 -1 0 0
2155 7 88.18826462763884 18.089917549310165 -0.07916522036778594 -1 0 0
2151 1 86.22883355988345 19.21998220120445 1.1086022335289198 -1 0 0
2159 1 90.1483234174184 19.219982201204402 1.10860223352895 -1 0 0
2156 7 86.22851969887223 21.48429533581113 -0.07916522036775635 -1 0 0
2164 7 90.1480095564073 21.484295335811133 -0.07916522036783914 -1 0 0
2160 1 88.18857848865089 22.61435998770542 1.10860223352894 -1 0 0
2163 7 92.10775448517383 18.08991754931011 -0.07916522036781314 -1 0 0
2171 7 96.02724434270881 18.089917549310133 -0.07916522036777754 -1 0 0
2167 1 94.06781327495348 19.219982201204406 1.1086022335289296 -1 0 0
2172 7 94.06749941394224 21.48429533581113 -0.07916522036782518 -1 0 0
2168 1 92.10806834618595 22.61435998770543 1.1086022335289312 -1 0 0
2176 1 96.02755820372096 22.614359987705452 1.1086022335289323 -1 0 0
2188 7 101.90647912901227 21.484295335811122 -0.07916522036782014 -1 0 0
2179 7 99.94673420024381 18.089917549310137 -0.07916522036781833 -1 0 0
2175 1 97.98730313248844 19.219982201204406 1.1086022335289198 -1 0 0
2180 7 97.98698927147724 21.48429533581114 -0.07916522036781937 -1 0 0
2184 1 99.94704806125594 22.614359987705434 1.108602233528949 -1 0 0
2395 7 1.9594877618688882 24.87867312231212 -0.07916522036781307 0 0 0
2399 1 3.919546551648404 26.008737774206423 1.1086022335289194 0 0 0
2404 7 3.919232690637304 28.27305090881312 -0.0791652203678147 0 0 0
2391 1 5.669411341102659e-05 26.00873777420646 1.1086022335289685 0 0 0
2403 7 5.878977619403843 24.87867312231212 -0.07916522036781093 0 0 0
2411 7 9.798467476938836 24.878673122312126 -0.07916522036779236 0 0 0
2407 1 7.839036409183443 26.008737774206434 1.1086022335289234 0 0 0
2412 7 7.838722548172261 28.273050908813122 -0.07916522036779854 0 0 0
2419 7 13.71795733447384 24.878673122312126 -0.07916522036779915 0 0 0
2415 1 11.758526266718427 26.008737774206434 1.1086022335289216 0 0 0
2423 1 15.67801612425343 26.008737774206438 1.108602233528918 0 0 0
2420 7 11.758212405707283 28.273050908813115 -0.07916522036780357 0 0 0
2428 7 15.677702263242278 28.273050908813122 -0.07916522036779364 0 0 0
2427 7 17.637447192008825 24.878673122312126 -0.07916522036780946 0 0 0
2435 7 21.55693704954384 24.878673122312136 -0.07916522036780395 0 0 0
2431 1 19.59750598178844 26.008737774206438 1.10860223352893 0 0 0
2436 7 19.59719212077729 28.273050908813133 -0.07916522036779144 0 0 0
2443 7 25.47642690707884 24.878673122312133 -0.07916522036779025 0 0 0
2439 1 23.516995839323435 26.00873777420643 1.1086022335289116 0 0 0
2447 1 27.43648569685843 26.00873777420644 1.10860223352891 0 0 0
2444 7 23.516681978312285 28.273050908813126 -0.07916522036779569 0 0 0
2452 7 27.436171835847286 28.27305090881311 -0.07916522036779841 0 0 0
2451 7 29.395916764613833 24.878673122312126 -0.07916522036780409 0 0 0
2459 7 33.31540662214887 24.878673122312115 -0.07916522036779781 0 0 0
2455 1 31.355975554393424 26.008737774206445 1.1086022335289392 0 0 0
2460 7 31.35566169338226 28.273050908813136 -0.07916522036778773 0 0 0
2467 7 37.23489647968384 24.878673122312133 -0.07916522036779797 0 0 0
2463 1 35.27546541192842 26.00873777420642 1.1086022335289147 0 0 0
2471 1 39.19495526946344 26.008737774206434 1.1086022335289163 0 0 0
2468 7 35.275151550917286 28.273050908813122 -0.07916522036780738 0 0 0
2476 7 39.19464140845227 28.273050908813115 -0.079165220367804 0 0 0
2475 7 41.154386337218824 24.87867312231211 -0.07916522036779858 0 0 0
2483 7 45.07387619475381 24.878673122312122 -0.07916522036781286 0 0 0
2479 1 43.11444512699844 26.008737774206445 1.108602233528918 0 0 0
2484 7 43.11413126598729 28.273050908813104 -0.07916522036780362 0 0 0
2491 7 48.99336605228883 24.878673122312122 -0.07916522036779011 0 0 0
2487 1 47.03393498453345 26.008737774206445 1.108602233528923 0 0 0
2492 7 47.033621123522266 28.273050908813122 -0.0791652203677979 0 0 0
2292 7 50.95311098105728 28.27305090881312 -0.07916522036779647 -1 0 0
2495 1 50.95342484206843 26.00873777420644 1.1086022335289178 0 0 0
2291 7 52.9128559098238 24.878673122312115 -0.07916522036782489 -1 0 0
2295 1 54.872914699603484 26.008737774206445 1.1086022335289278 -1 0 0
2300 7 54.87260083859228 28.27305090881312 -0.07916522036780316 -1 0 0
2299 7 56.83234576735882 24.878673122312126 -0.0791652203677805 -1 0 0
2307 7 60.751835624893815 24.878673122312122 -0.07916522036781806 -1 0 0
2303 1 58.79240455713842 26.00873777420645 1.1086022335289132 -1 0 0
2308 7 58.79209069612728 28.273050908813108 -0.079165220367793 -1 0 0
2315 7 64.67132548242884 24.878673122312097 -0.07916522036778258 -1 0 0
2311 1 62.71189441467344 26.008737774206455 1.1086022335289378 -1 0 0
2319 1 66.63138427220842 26.008737774206452 1.1086022335289172 -1 0 0
2316 7 62.71158055366226 28.273050908813115 -0.07916522036780084 -1 0 0
2324 7 66.63107041119727 28.27305090881311 -0.07916522036779114 -1 0 0
2323 7 68.59081533996383 24.878673122312133 -0.07916522036779658 -1 0 0
2331 7 72.51030519749885 24.878673122312122 -0.0791652203678054 -1 0 0
2327 1 70.5508741297434 26.008737774206423 1.1086022335289278 -1 0 0
2332 7 70.55056026873234 28.273050908813158 -0.07916522036778458 -1 0 0
2339 7 76.42979505503382 24.878673122312108 -0.07916522036780137 -1 0 0
2335 1 74.47036398727843 26.00873777420641 1.1086022335289265 -1 0 0
2343 1 78.38985384481343 26.00873777420645 1.1086022335289256 -1 0 0