LAMMPS data file via write_data, version 29 Aug 2024, timestep = 6, units = metal

6240 atoms
8 atom types

0 101.90673629591 xlo xhi
0 101.83133359503 ylo yhi
-50 50 zlo zhi

Masses

1 114.818
2 114.818
3 114.818
4 114.818
5 32.06
6 32.06
7 32.06
8 32.06

Atoms # atomic

1572 5 3.9193651136517014 1.1220874406716286 -0.0815271184356188 0 0 0
1568 1 1.9596623544438754 2.251486477550722 1.1070346631124386 0 0 0
1771 5 1.9596201848833625 4.516465227172644 -0.08152711843562473 0 0 0
1775 1 3.919407283210815 5.645864264051726 1.1070346631124348 0 0 0
1580 5 7.838854971186693 1.122087440671636 -0.08152711843561655 0 0 0
1576 1 5.87915221197888 2.251486477550719 1.1070346631124353 0 0 0
1584 1 9.798642069513873 2.2514864775507184 1.107034663112433 0 0 0
1779 5 5.879110042418359 4.516465227172639 -0.08152711843562419 0 0 0
1787 5 9.798599899953365 4.516465227172638 -0.08152711843562577 0 0 0
1783 1 7.838897140745816 5.645864264051729 1.1070346631124326 0 0 0
1588 5 11.758344828721693 1.1220874406716312 -0.08152711843561623 0 0 0
1596 5 15.677834686256695 1.122087440671637 -0.08152711843561404 0 0 0
1592 1 13.718131927048878 2.2514864775507206 1.1070346631124326 0 0 0
1795 5 13.718089757488357 4.516465227172634 -0.08152711843562843 0 0 0
1791 1 11.758386998280814 5.645864264051729 1.1070346631124366 0 0 0
1799 1 15.677876855815818 5.645864264051725 1.1070346631124333 0 0 0
1604 5 19.5973245437917 1.1220874406716344 -0.08152711843561326 0 0 0
1600 1 17.637621784583878 2.2514864775507197 1.1070346631124335 0 0 0
1608 1 21.557111642118883 2.251486477550717 1.1070346631124302 0 0 0
1803 5 17.63757961502336 4.5164652271726355 -0.08152711843562262 0 0 0
1811 5 21.557069472558354 4.516465227172636 -0.08152711843562645 0 0 0
1807 1 19.597366713350816 5.645864264051727 1.1070346631124357 0 0 0
1612 5 23.5168144013267 1.1220874406716237 -0.08152711843561022 0 0 0
1620 5 27.436304258861696 1.1220874406716193 -0.08152711843561154 0 0 0
1616 1 25.476601499653878 2.251486477550718 1.1070346631124324 0 0 0
1819 5 25.47655933009336 4.516465227172638 -0.08152711843562353 0 0 0
1815 1 23.51685657088582 5.645864264051727 1.1070346631124361 0 0 0
1823 1 27.436346428420823 5.645864264051727 1.1070346631124304 0 0 0
1628 5 31.355794116396687 1.122087440671614 -0.08152711843561664 0 0 0
1624 1 29.39609135718888 2.25148647755072 1.1070346631124346 0 0 0
1632 1 33.31558121472387 2.2514864775507166 1.1070346631124373 0 0 0
1827 5 29.396049187628357 4.51646522717264 -0.08152711843562688 0 0 0
1835 5 33.31553904516337 4.5164652271726435 -0.08152711843562142 0 0 0
1831 1 31.355836285955828 5.645864264051729 1.1070346631124341 0 0 0
1636 5 35.275283973931685 1.122087440671633 -0.08152711843561496 0 0 0
1644 5 39.19477383146668 1.122087440671628 -0.08152711843561841 0 0 0
1640 1 37.235071072258876 2.2514864775507215 1.1070346631124302 0 0 0
1843 5 37.235028902698375 4.5164652271726355 -0.08152711843562581 0 0 0
1839 1 35.27532614349082 5.645864264051725 1.107034663112434 0 0 0
1847 1 39.19481600102582 5.645864264051728 1.1070346631124437 0 0 0
1652 5 43.11426368900168 1.1220874406716344 -0.0815271184356131 0 0 0
1648 1 41.154560929793895 2.251486477550719 1.1070346631124388 0 0 0
1656 1 45.074050787328886 2.2514864775507237 1.1070346631124348 0 0 0
1851 5 41.154518760233366 4.516465227172635 -0.08152711843563662 0 0 0
1859 5 45.074008617768364 4.516465227172641 -0.08152711843562463 0 0 0
1855 1 43.11430585856081 5.645864264051732 1.107034663112435 0 0 0
1660 5 47.033753546536694 1.1220874406716321 -0.0815271184356159 0 0 0
1664 1 48.99354064486388 2.251486477550726 1.1070346631124302 0 0 0
1867 5 48.99349847530336 4.5164652271726355 -0.08152711843562208 0 0 0
1460 5 50.95324340407169 1.122087440671631 -0.08152711843561374 -1 0 0
1863 1 47.0337957160958 5.645864264051726 1.107034663112431 0 0 0
1871 1 50.95328557363081 5.645864264051727 1.107034663112432 0 0 0
1468 5 54.87273326160669 1.1220874406716257 -0.08152711843562091 -1 0 0
1464 1 52.91303050239887 2.251486477550718 1.1070346631124366 -1 0 0
1667 5 52.91298833283837 4.516465227172636 -0.0815271184356287 -1 0 0
1671 1 54.87277543116582 5.645864264051725 1.107034663112436 -1 0 0
1476 5 58.79222311914168 1.1220874406716306 -0.08152711843561507 -1 0 0
1472 1 56.83252035993388 2.2514864775507224 1.1070346631124361 -1 0 0
1480 1 60.752010217468865 2.251486477550728 1.107034663112437 -1 0 0
1675 5 56.83247819037336 4.516465227172638 -0.08152711843562517 -1 0 0
1683 5 60.75196804790835 4.516465227172637 -0.0815271184356245 -1 0 0
1679 1 58.79226528870081 5.645864264051727 1.1070346631124313 -1 0 0
1484 5 62.711712976676694 1.1220874406716306 -0.0815271184356275 -1 0 0
1492 5 66.63120283421168 1.1220874406716097 -0.08152711843561164 -1 0 0
1488 1 64.67150007500388 2.2514864775507353 1.1070346631124308 -1 0 0
1691 5 64.67145790544336 4.516465227172628 -0.08152711843561859 -1 0 0
1687 1 62.7117551462358 5.64586426405172 1.1070346631124346 -1 0 0
1695 1 66.63124500377079 5.64586426405173 1.1070346631124326 -1 0 0
1500 5 70.55069269174668 1.1220874406716363 -0.08152711843561096 -1 0 0
1496 1 68.59098993253887 2.2514864775507166 1.1070346631124364 -1 0 0
1504 1 72.51047979007387 2.2514864775507153 1.107034663112428 -1 0 0
1699 5 68.59094776297835 4.51646522717264 -0.08152711843562968 -1 0 0
1707 5 72.51043762051336 4.516465227172639 -0.08152711843561786 -1 0 0
1703 1 70.55073486130581 5.645864264051728 1.1070346631124306 -1 0 0
1508 5 74.47018254928169 1.1220874406716381 -0.08152711843561276 -1 0 0
1516 5 78.38967240681669 1.1220874406716403 -0.08152711843561061 -1 0 0
1512 1 76.42996964760887 2.251486477550722 1.107034663112432 -1 0 0
1715 5 76.42992747804836 4.516465227172636 -0.0815271184356323 -1 0 0
1711 1 74.47022471884081 5.645864264051731 1.1070346631124344 -1 0 0
1719 1 78.38971457637581 5.6458642640517365 1.1070346631124441 -1 0 0
1524 5 82.30916226435171 1.1220874406716286 -0.08152711843561428 -1 0 0
1520 1 80.34945950514386 2.251486477550724 1.1070346631124424 -1 0 0
1528 1 84.26894936267885 2.251486477550729 1.1070346631124295 -1 0 0
1723 5 80.34941733558337 4.516465227172639 -0.0815271184356314 -1 0 0
1731 5 84.26890719311835 4.516465227172633 -0.08152711843562137 -1 0 0
1727 1 82.3092044339108 5.645864264051724 1.10703466311243 -1 0 0
1532 5 86.22865212188667 1.1220874406716266 -0.08152711843563631 -1 0 0
1540 5 90.1481419794217 1.1220874406716306 -0.08152711843561929 -1 0 0
1536 1 88.18843922021388 2.2514864775507366 1.107034663112451 -1 0 0
1739 5 88.18839705065336 4.516465227172637 -0.0815271184356308 -1 0 0
1735 1 86.22869429144582 5.645864264051735 1.107034663112441 -1 0 0
1743 1 90.14818414898083 5.645864264051724 1.107034663112432 -1 0 0
1548 5 94.06763183695668 1.1220874406716295 -0.08152711843561605 -1 0 0
1544 1 92.10792907774888 2.2514864775507304 1.1070346631124242 -1 0 0
1552 1 96.02741893528388 2.251486477550716 1.1070346631124297 -1 0 0
1747 5 92.10788690818835 4.51646522717263 -0.08152711843561895 -1 0 0
1755 5 96.02737676572335 4.5164652271726355 -0.08152711843563025 -1 0 0
1751 1 94.06767400651582 5.645864264051727 1.1070346631124266 -1 0 0
1564 5 101.90661155202667 1.122087440671628 -0.0815271184356098 -1 0 0
1556 5 97.98712169449168 1.1220874406716372 -0.08152711843561158 -1 0 0
1560 1 99.94690879281887 2.2514864775507095 1.1070346631124328 -1 0 0
1763 5 99.94686662325834 4.516465227172636 -0.0815271184356299 -1 0 0
1759 1 97.98716386405081 5.645864264051733 1.1070346631124353 -1 0 0
1767 1 101.90665372158581 5.645864264051737 1.107034663112442 -1 0 0
1780 5 3.919365113651695 7.910843013673637 -0.08152711843562001 0 0 0
1776 1 1.9596623544438763 9.040242050552722 1.1070346631124368 0 0 0
1979 5 1.9596201848833597 11.305220800174641 -0.08152711843562352 0 0 0
1788 5 7.838854971186691 7.910843013673635 -0.08152711843562041 0 0 0
1784 1 5.87915221197888 9.040242050552724 1.107034663112438 0 0 0
1792 1 9.798642069513877 9.040242050552727 1.1070346631124386 0 0 0
1987 5 5.87911004241836 11.305220800174638 -0.08152711843562349 0 0 0
1995 5 9.798599899953361 11.305220800174636 -0.08152711843562328 0 0 0
1796 5 11.758344828721693 7.910843013673635 -0.08152711843562052 0 0 0
1804 5 15.677834686256693 7.910843013673641 -0.08152711843561941 0 0 0
1800 1 13.718131927048878 9.040242050552727 1.1070346631124357 0 0 0
2003 5 13.71808975748836 11.30522080017463 -0.08152711843562702 0 0 0
1812 5 19.597324543791697 7.910843013673637 -0.08152711843561881 0 0 0
1808 1 17.637621784583878 9.040242050552726 1.1070346631124381 0 0 0
1816 1 21.55711164211888 9.040242050552727 1.107034663112438 0 0 0
2011 5 17.637579615023355 11.305220800174633 -0.08152711843562542 0 0 0
2019 5 21.55706947255835 11.305220800174636 -0.08152711843562374 0 0 0
1820 5 23.5168144013267 7.9108430136736345 -0.08152711843562271 0 0 0
1828 5 27.436304258861696 7.9108430136736345 -0.08152711843561815 0 0 0
1824 1 25.47660149965388 9.040242050552724 1.107034663112437 0 0 0
2027 5 25.476559330093355 11.305220800174636 -0.08152711843562284 0 0 0
1836 5 31.35579411639669 7.910843013673628 -0.08152711843562749 0 0 0
1832 1 29.396091357188876 9.040242050552726 1.107034663112439 0 0 0
1840 1 33.31558121472387 9.040242050552724 1.1070346631124404 0 0 0
2035 5 29.396049187628357 11.305220800174638 -0.0815271184356259 0 0 0
2043 5 33.31553904516336 11.305220800174638 -0.08152711843562427 0 0 0
1844 5 35.275283973931685 7.910843013673634 -0.08152711843562248 0 0 0
1852 5 39.19477383146668 7.9108430136736425 -0.08152711843562303 0 0 0
1848 1 37.23507107225888 9.040242050552727 1.107034663112432 0 0 0
2051 5 37.23502890269837 11.30522080017463 -0.08152711843562364 0 0 0
1860 5 43.11426368900169 7.910843013673632 -0.08152711843562124 0 0 0
1856 1 41.15456092979388 9.040242050552727 1.107034663112445 0 0 0
1864 1 45.074050787328886 9.040242050552727 1.1070346631124381 0 0 0
2059 5 41.154518760233366 11.305220800174629 -0.08152711843563536 0 0 0
2067 5 45.074008617768364 11.305220800174638 -0.08152711843562288 0 0 0
1868 5 47.03375354653669 7.910843013673632 -0.0815271184356244 0 0 0
1872 1 48.99354064486389 9.040242050552727 1.1070346631124293 0 0 0
2075 5 48.993498475303355 11.305220800174627 -0.0815271184356267 0 0 0
1668 5 50.95324340407168 7.910843013673636 -0.08152711843562058 -1 0 0
1676 5 54.87273326160668 7.910843013673636 -0.08152711843562586 -1 0 0
1672 1 52.91303050239888 9.040242050552727 1.1070346631124361 -1 0 0
1875 5 52.912988332838374 11.305220800174634 -0.08152711843562402 -1 0 0
1684 5 58.79222311914168 7.910843013673633 -0.0815271184356225 -1 0 0
1680 1 56.83252035993388 9.040242050552733 1.1070346631124361 -1 0 0
1688 1 60.75201021746887 9.040242050552731 1.107034663112446 -1 0 0
1883 5 56.83247819037336 11.305220800174633 -0.08152711843562109 -1 0 0
1891 5 60.75196804790834 11.305220800174633 -0.08152711843562913 -1 0 0
1692 5 62.711712976676694 7.91084301367364 -0.08152711843562734 -1 0 0
1700 5 66.63120283421168 7.9108430136736345 -0.08152711843561693 -1 0 0
1696 1 64.67150007500388 9.040242050552735 1.1070346631124404 -1 0 0
1899 5 64.67145790544333 11.305220800174629 -0.08152711843562674 -1 0 0
1708 5 70.55069269174668 7.910843013673631 -0.08152711843562299 -1 0 0
1704 1 68.59098993253886 9.040242050552727 1.107034663112427 -1 0 0
1712 1 72.51047979007387 9.040242050552724 1.1070346631124381 -1 0 0
1907 5 68.59094776297835 11.305220800174638 -0.08152711843561704 -1 0 0
1915 5 72.51043762051336 11.305220800174629 -0.08152711843562598 -1 0 0
1716 5 74.47018254928169 7.910843013673637 -0.08152711843561891 -1 0 0
1724 5 78.38967240681669 7.910843013673644 -0.0815271184356195 -1 0 0
1720 1 76.42996964760887 9.04024205055273 1.1070346631124295 -1 0 0
1923 5 76.42992747804836 11.305220800174633 -0.08152711843562108 -1 0 0
1732 5 82.3091622643517 7.910843013673629 -0.08152711843562305 -1 0 0
1728 1 80.34945950514384 9.04024205055273 1.1070346631124466 -1 0 0
1736 1 84.26894936267887 9.040242050552722 1.1070346631124328 -1 0 0
1931 5 80.34941733558337 11.305220800174636 -0.08152711843562739 -1 0 0
1939 5 84.26890719311834 11.30522080017463 -0.08152711843563205 -1 0 0
1740 5 86.22865212188668 7.910843013673641 -0.08152711843561906 -1 0 0
1748 5 90.14814197942171 7.910843013673632 -0.081527118435626 -1 0 0
1744 1 88.18843922021387 9.040242050552731 1.1070346631124433 -1 0 0
1947 5 88.18839705065335 11.305220800174638 -0.08152711843562196 -1 0 0
1756 5 94.06763183695669 7.910843013673633 -0.08152711843562131 -1 0 0
1752 1 92.10792907774886 9.040242050552738 1.1070346631124317 -1 0 0
1760 1 96.02741893528388 9.04024205055272 1.1070346631124273 -1 0 0
1955 5 92.10788690818836 11.305220800174625 -0.08152711843561988 -1 0 0
1963 5 96.02737676572335 11.305220800174627 -0.08152711843562993 -1 0 0
1772 5 101.90661155202669 7.9108430136736345 -0.08152711843561496 -1 0 0
1764 5 97.98712169449168 7.910843013673635 -0.08152711843562117 -1 0 0
1768 1 99.94690879281889 9.040242050552726 1.1070346631124448 -1 0 0
1971 5 99.94686662325834 11.305220800174634 -0.08152711843562843 -1 0 0
1983 1 3.9194072832108144 12.434619837053722 1.1070346631124337 0 0 0
1984 1 1.9596623544438752 15.828997623554715 1.1070346631124326 0 0 0
1988 5 3.919365113651696 14.699598586675634 -0.08152711843562102 0 0 0
1991 1 7.838897140745819 12.43461983705372 1.1070346631124324 0 0 0
1992 1 5.879152211978879 15.828997623554718 1.1070346631124361 0 0 0
1996 5 7.8388549711866915 14.69959858667563 -0.08152711843562414 0 0 0
2000 1 9.798642069513875 15.828997623554722 1.107034663112439 0 0 0
1999 1 11.758386998280818 12.434619837053724 1.107034663112439 0 0 0
2007 1 15.677876855815816 12.434619837053718 1.1070346631124355 0 0 0
2004 5 11.758344828721697 14.699598586675629 -0.08152711843562375 0 0 0
2008 1 13.718131927048876 15.828997623554724 1.1070346631124361 0 0 0
2012 5 15.677834686256695 14.699598586675634 -0.08152711843562266 0 0 0
2015 1 19.59736671335082 12.434619837053722 1.1070346631124375 0 0 0
2016 1 17.637621784583875 15.828997623554727 1.107034663112438 0 0 0
2020 5 19.597324543791704 14.69959858667563 -0.08152711843562283 0 0 0
2024 1 21.55711164211888 15.82899762355472 1.1070346631124341 0 0 0
2023 1 23.51685657088582 12.43461983705372 1.107034663112436 0 0 0
2031 1 27.436346428420823 12.43461983705372 1.1070346631124366 0 0 0
2028 5 23.5168144013267 14.699598586675632 -0.08152711843562158 0 0 0
2032 1 25.476601499653878 15.828997623554722 1.107034663112435 0 0 0
2036 5 27.4363042588617 14.69959858667563 -0.08152711843562442 0 0 0
2039 1 31.355836285955828 12.434619837053726 1.1070346631124355 0 0 0
2040 1 29.39609135718888 15.828997623554718 1.1070346631124357 0 0 0
2044 5 31.355794116396687 14.699598586675627 -0.08152711843562639 0 0 0
2048 1 33.31558121472386 15.828997623554718 1.1070346631124368 0 0 0
2047 1 35.27532614349082 12.43461983705372 1.1070346631124353 0 0 0
2055 1 39.19481600102581 12.434619837053724 1.1070346631124441 0 0 0
2052 5 35.275283973931685 14.69959858667563 -0.08152711843562355 0 0 0
2056 1 37.235071072258876 15.828997623554727 1.1070346631124328 0 0 0
2060 5 39.19477383146669 14.699598586675634 -0.08152711843562327 0 0 0
2063 1 43.11430585856081 12.434619837053724 1.1070346631124375 0 0 0
2064 1 41.15456092979388 15.82899762355472 1.107034663112439 0 0 0
2068 5 43.11426368900169 14.69959858667563 -0.0815271184356235 0 0 0
2072 1 45.074050787328886 15.828997623554724 1.107034663112435 0 0 0
2071 1 47.0337957160958 12.434619837053722 1.107034663112431 0 0 0
2079 1 50.95328557363081 12.434619837053726 1.1070346631124388 0 0 0
2076 5 47.033753546536694 14.699598586675627 -0.08152711843562643 0 0 0
2080 1 48.993540644863884 15.82899762355472 1.1070346631124328 0 0 0
1876 5 50.953243404071685 14.699598586675634 -0.08152711843561947 -1 0 0
1879 1 54.87277543116581 12.434619837053715 1.10703466311243 -1 0 0
1880 1 52.91303050239887 15.82899762355472 1.1070346631124328 -1 0 0
1884 5 54.87273326160668 14.699598586675625 -0.08152711843562888 -1 0 0
1887 1 58.79226528870081 12.43461983705372 1.1070346631124326 -1 0 0
1888 1 56.83252035993387 15.828997623554727 1.1070346631124393 -1 0 0
1892 5 58.79222311914169 14.699598586675629 -0.08152711843562199 -1 0 0
1896 1 60.752010217468865 15.828997623554725 1.1070346631124393 -1 0 0
1895 1 62.711755146235824 12.434619837053713 1.1070346631124361 -1 0 0
1903 1 66.63124500377081 12.43461983705373 1.1070346631124384 -1 0 0
1900 5 62.71171297667671 14.699598586675632 -0.08152711843562885 -1 0 0
1904 1 64.67150007500388 15.828997623554729 1.107034663112437 -1 0 0
1908 5 66.63120283421169 14.699598586675625 -0.08152711843562255 -1 0 0
1911 1 70.5507348613058 12.434619837053722 1.1070346631124357 -1 0 0
1912 1 68.59098993253887 15.82899762355472 1.1070346631124262 -1 0 0
1916 5 70.55069269174669 14.699598586675632 -0.08152711843561773 -1 0 0
1920 1 72.51047979007387 15.82899762355472 1.1070346631124302 -1 0 0
1919 1 74.47022471884083 12.434619837053722 1.107034663112435 -1 0 0
1927 1 78.38971457637581 12.434619837053727 1.1070346631124368 -1 0 0
1924 5 74.4701825492817 14.69959858667563 -0.08152711843562233 -1 0 0
1928 1 76.42996964760887 15.82899762355472 1.107034663112438 -1 0 0
1932 5 78.38967240681669 14.699598586675636 -0.08152711843562445 -1 0 0
1935 1 82.3092044339108 12.434619837053717 1.1070346631124277 -1 0 0
1936 1 80.34945950514384 15.82899762355472 1.1070346631124466 -1 0 0
1940 5 82.30916226435171 14.699598586675624 -0.08152711843562138 -1 0 0
1944 1 84.26894936267885 15.828997623554718 1.1070346631124324 -1 0 0
1943 1 86.22869429144582 12.434619837053724 1.1070346631124444 -1 0 0
1951 1 90.14818414898082 12.434619837053722 1.1070346631124433 -1 0 0
1948 5 86.2286521218867 14.699598586675634 -0.08152711843562896 -1 0 0
1952 1 88.18843922021387 15.828997623554717 1.1070346631124441 -1 0 0
1956 5 90.1481419794217 14.69959858667563 -0.08152711843562556 -1 0 0
1959 1 94.0676740065158 12.434619837053718 1.107034663112427 -1 0 0
1960 1 92.10792907774886 15.82899762355473 1.1070346631124293 -1 0 0
1964 5 94.06763183695669 14.69959858667563 -0.0815271184356225 -1 0 0
1968 1 96.02741893528386 15.828997623554718 1.1070346631124282 -1 0 0
1980 5 101.90661155202669 14.699598586675632 -0.08152711843561507 -1 0 0
1967 1 97.98716386405083 12.434619837053726 1.1070346631124381 -1 0 0
1975 1 101.90665372158583 12.434619837053729 1.1070346631124426 -1 0 0
1972 5 97.98712169449168 14.699598586675636 -0.08152711843562245 -1 0 0
1976 1 99.94690879281887 15.828997623554713 1.1070346631124377 -1 0 0
2187 5 1.9596201848833599 18.093976373176638 -0.08152711843561924 0 0 0
2191 1 3.9194072832108153 19.22337541005572 1.1070346631124375 0 0 0
2196 5 3.9193651136516987 21.488354159677638 -0.08152711843562588 0 0 0
2192 1 1.9596623544438714 22.617753196556727 1.1070346631124321 0 0 0
2195 5 5.87911004241836 18.093976373176634 -0.08152711843561646 0 0 0
2203 5 9.798599899953365 18.093976373176634 -0.08152711843561851 0 0 0
2199 1 7.838897140745814 19.22337541005572 1.1070346631124364 0 0 0
2204 5 7.8388549711866915 21.488354159677634 -0.08152711843562424 0 0 0
2200 1 5.879152211978881 22.61775319655673 1.1070346631124348 0 0 0
2208 1 9.798642069513878 22.61775319655673 1.1070346631124324 0 0 0
2211 5 13.718089757488357 18.093976373176627 -0.08152711843561884 0 0 0
2207 1 11.75838699828082 19.223375410055723 1.1070346631124377 0 0 0
2215 1 15.677876855815816 19.223375410055723 1.107034663112436 0 0 0
2212 5 11.758344828721695 21.488354159677634 -0.08152711843562108 0 0 0
2220 5 15.677834686256698 21.488354159677638 -0.08152711843562295 0 0 0
2216 1 13.718131927048873 22.61775319655673 1.1070346631124333 0 0 0
2219 5 17.63757961502336 18.093976373176627 -0.08152711843561744 0 0 0
2227 5 21.557069472558354 18.093976373176627 -0.08152711843562038 0 0 0
2223 1 19.597366713350816 19.223375410055723 1.1070346631124421 0 0 0
2228 5 19.5973245437917 21.488354159677634 -0.08152711843562309 0 0 0
2224 1 17.637621784583878 22.617753196556734 1.1070346631124361 0 0 0
2232 1 21.557111642118876 22.61775319655673 1.1070346631124304 0 0 0
2235 5 25.476559330093362 18.09397637317663 -0.0815271184356167 0 0 0
2231 1 23.51685657088582 19.223375410055723 1.1070346631124386 0 0 0
2239 1 27.436346428420823 19.223375410055727 1.1070346631124355 0 0 0
2236 5 23.5168144013267 21.48835415967763 -0.08152711843562271 0 0 0
2244 5 27.4363042588617 21.488354159677634 -0.08152711843562421 0 0 0
2240 1 25.47660149965388 22.61775319655673 1.1070346631124344 0 0 0
2243 5 29.396049187628364 18.09397637317663 -0.0815271184356192 0 0 0
2251 5 33.315539045163376 18.09397637317663 -0.08152711843561673 0 0 0
2247 1 31.35583628595582 19.223375410055723 1.1070346631124381 0 0 0
2252 5 31.35579411639669 21.48835415967763 -0.08152711843562932 0 0 0
2248 1 29.396091357188876 22.61775319655673 1.1070346631124346 0 0 0
2256 1 33.31558121472388 22.617753196556723 1.107034663112434 0 0 0
2259 5 37.235028902698375 18.093976373176627 -0.0815271184356158 0 0 0
2255 1 35.27532614349082 19.223375410055723 1.1070346631124348 0 0 0
2263 1 39.19481600102582 19.223375410055723 1.107034663112443 0 0 0
2260 5 35.27528397393168 21.48835415967763 -0.08152711843562303 0 0 0
2268 5 39.194773831466684 21.48835415967764 -0.08152711843562178 0 0 0
2264 1 37.23507107225888 22.617753196556734 1.107034663112429 0 0 0
2267 5 41.154518760233366 18.093976373176627 -0.08152711843562918 0 0 0
2275 5 45.074008617768364 18.09397637317663 -0.08152711843561625 0 0 0
2271 1 43.11430585856082 19.223375410055723 1.1070346631124386 0 0 0
2276 5 43.11426368900169 21.48835415967763 -0.08152711843563143 0 0 0
2272 1 41.154560929793874 22.61775319655673 1.1070346631124404 0 0 0
2280 1 45.074050787328886 22.617753196556727 1.107034663112439 0 0 0
2283 5 48.993498475303355 18.093976373176627 -0.08152711843561919 0 0 0
2279 1 47.03379571609581 19.223375410055723 1.1070346631124317 0 0 0
2287 1 50.9532855736308 19.223375410055723 1.1070346631124393 0 0 0
2284 5 47.03375354653669 21.48835415967763 -0.08152711843562355 0 0 0
2084 5 50.95324340407169 21.488354159677638 -0.08152711843562506 -1 0 0
2288 1 48.993540644863884 22.617753196556734 1.1070346631124308 0 0 0
2083 5 52.912988332838374 18.093976373176634 -0.08152711843561726 -1 0 0
2087 1 54.87277543116581 19.223375410055723 1.107034663112435 -1 0 0
2092 5 54.87273326160669 21.48835415967763 -0.08152711843562885 -1 0 0
2088 1 52.91303050239887 22.61775319655673 1.1070346631124355 -1 0 0
2091 5 56.832478190373365 18.09397637317663 -0.08152711843561775 -1 0 0
2099 5 60.75196804790836 18.09397637317663 -0.08152711843561666 -1 0 0
2095 1 58.792265288700804 19.22337541005572 1.1070346631124373 -1 0 0
2100 5 58.79222311914169 21.488354159677638 -0.08152711843562266 -1 0 0
2096 1 56.83252035993387 22.61775319655673 1.1070346631124355 -1 0 0
2104 1 60.752010217468865 22.617753196556734 1.1070346631124317 -1 0 0
2107 5 64.67145790544336 18.093976373176623 -0.08152711843562327 -1 0 0
2103 1 62.7117551462358 19.223375410055716 1.1070346631124386 -1 0 0
2111 1 66.6312450037708 19.223375410055727 1.107034663112437 -1 0 0
2108 5 62.7117129766767 21.488354159677638 -0.08152711843562727 -1 0 0
2116 5 66.63120283421169 21.48835415967763 -0.08152711843562607 -1 0 0
2112 1 64.67150007500386 22.61775319655674 1.1070346631124357 -1 0 0
2115 5 68.59094776297836 18.093976373176627 -0.08152711843561283 -1 0 0
2123 5 72.51043762051337 18.093976373176623 -0.0815271184356137 -1 0 0
2119 1 70.55073486130581 19.223375410055723 1.107034663112435 -1 0 0
2124 5 70.55069269174669 21.48835415967764 -0.08152711843561612 -1 0 0
2120 1 68.59098993253886 22.617753196556734 1.107034663112426 -1 0 0
2128 1 72.51047979007386 22.617753196556727 1.1070346631124273 -1 0 0
2131 5 76.42992747804836 18.093976373176627 -0.08152711843562219 -1 0 0
2127 1 74.47022471884081 19.223375410055723 1.1070346631124337 -1 0 0
2135 1 78.3897145763758 19.223375410055727 1.1070346631124486 -1 0 0
2132 5 74.4701825492817 21.488354159677634 -0.0815271184356209 -1 0 0
2140 5 78.3896724068167 21.488354159677634 -0.08152711843562749 -1 0 0
2136 1 76.42996964760886 22.61775319655673 1.1070346631124328 -1 0 0
2139 5 80.34941733558337 18.093976373176634 -0.08152711843562202 -1 0 0
2147 5 84.26890719311835 18.09397637317663 -0.08152711843561639 -1 0 0
2143 1 82.30920443391079 19.223375410055716 1.1070346631124302 -1 0 0
2148 5 82.30916226435171 21.488354159677634 -0.08152711843562338 -1 0 0
2144 1 80.34945950514386 22.617753196556727 1.1070346631124413 -1 0 0
2152 1 84.26894936267885 22.617753196556727 1.1070346631124306 -1 0 0
2155 5 88.18839705065336 18.09397637317663 -0.08152711843562781 -1 0 0
2151 1 86.2286942914458 19.223375410055723 1.107034663112443 -1 0 0
2159 1 90.14818414898082 19.223375410055723 1.107034663112443 -1 0 0
2156 5 86.2286521218867 21.488354159677634 -0.08152711843563089 -1 0 0
2164 5 90.1481419794217 21.488354159677634 -0.08152711843562661 -1 0 0
2160 1 88.18843922021388 22.61775319655673 1.1070346631124415 -1 0 0
2163 5 92.10788690818836 18.093976373176623 -0.08152711843561411 -1 0 0
2171 5 96.02737676572335 18.093976373176623 -0.08152711843562357 -1 0 0
2167 1 94.0676740065158 19.22337541005572 1.1070346631124284 -1 0 0
2172 5 94.06763183695668 21.488354159677634 -0.08152711843562667 -1 0 0
2168 1 92.10792907774888 22.61775319655674 1.1070346631124275 -1 0 0
2176 1 96.02741893528388 22.61775319655673 1.107034663112439 -1 0 0
2188 5 101.90661155202667 21.488354159677634 -0.08152711843561442 -1 0 0
2179 5 99.94686662325834 18.093976373176627 -0.08152711843562437 -1 0 0
2175 1 97.98716386405083 19.22337541005573 1.1070346631124426 -1 0 0
2183 1 101.90665372158583 19.22337541005573 1.1070346631124435 -1 0 0
2180 5 97.98712169449169 21.488354159677634 -0.08152711843562338 -1 0 0
2184 1 99.94690879281887 22.617753196556723 1.1070346631124328 -1 0 0
2395 5 1.9596201848833588 24.88273194617864 -0.08152711843562042 0 0 0
2399 1 3.9194072832108153 26.01213098305772 1.1070346631124377 0 0 0
2404 5 3.9193651136517036 28.27710973267963 -0.08152711843562789 0 0 0
2403 5 5.879110042418359 24.882731946178637 -0.0815271184356183 0 0 0
2411 5 9.798599899953366 24.88273194617864 -0.0815271184356213 0 0 0
2407 1 7.838897140745814 26.012130983057723 1.107034663112436 0 0 0
2412 5 7.83885497118669 28.27710973267963 -0.08152711843562663 0 0 0
2419 5 13.718089757488356 24.882731946178637 -0.0815271184356227 0 0 0
2415 1 11.75838699828082 26.012130983057723 1.1070346631124373 0 0 0
2423 1 15.677876855815818 26.012130983057727 1.1070346631124328 0 0 0
2420 5 11.758344828721697 28.277109732679634 -0.08152711843562213 0 0 0
2428 5 15.677834686256695 28.277109732679634 -0.08152711843562113 0 0 0
2427 5 17.63757961502336 24.882731946178634 -0.08152711843561775 0 0 0
2435 5 21.557069472558357 24.882731946178637 -0.08152711843561843 0 0 0
2431 1 19.597366713350812 26.012130983057723 1.1070346631124348 0 0 0
2436 5 19.597324543791704 28.277109732679637 -0.08152711843562029 0 0 0
2443 5 25.476559330093362 24.882731946178637 -0.08152711843562108 0 0 0
2439 1 23.516856570885814 26.012130983057727 1.1070346631124381 0 0 0
2447 1 27.43634642842082 26.012130983057727 1.1070346631124386 0 0 0
2444 5 23.51681440132671 28.277109732679634 -0.08152711843562117 0 0 0
2452 5 27.436304258861703 28.277109732679634 -0.08152711843562421 0 0 0
2451 5 29.396049187628368 24.882731946178637 -0.08152711843562059 0 0 0
2459 5 33.315539045163376 24.88273194617864 -0.08152711843562033 0 0 0
2455 1 31.355836285955817 26.012130983057723 1.1070346631124373 0 0 0
2460 5 31.355794116396687 28.277109732679627 -0.08152711843563565 0 0 0
2467 5 37.23502890269837 24.882731946178634 -0.08152711843561741 0 0 0
2463 1 35.27532614349082 26.01213098305772 1.1070346631124315 0 0 0
2471 1 39.19481600102582 26.012130983057727 1.1070346631124381 0 0 0
2468 5 35.275283973931685 28.277109732679634 -0.08152711843561875 0 0 0
2476 5 39.1947738314667 28.27710973267963 -0.08152711843562364 0 0 0
2475 5 41.154518760233366 24.882731946178637 -0.08152711843562958 0 0 0
2483 5 45.07400861776837 24.882731946178637 -0.08152711843562406 0 0 0
2479 1 43.11430585856081 26.012130983057727 1.1070346631124353 0 0 0
2484 5 43.11426368900169 28.27710973267963 -0.08152711843562271 0 0 0
2491 5 48.993498475303355 24.882731946178634 -0.08152711843562031 0 0 0
2487 1 47.03379571609581 26.012130983057727 1.1070346631124328 0 0 0
2495 1 50.9532855736308 26.012130983057727 1.1070346631124406 0 0 0
2492 5 47.033753546536694 28.277109732679634 -0.08152711843562342 0 0 0
2292 5 50.953243404071685 28.277109732679637 -0.08152711843562042 -1 0 0
2291 5 52.912988332838374 24.882731946178644 -0.08152711843562359 -1 0 0
2295 1 54.87277543116581 26.012130983057723 1.1070346631124361 -1 0 0
2300 5 54.87273326160668 28.27710973267963 -0.08152711843562828 -1 0 0
2299 5 56.832478190373365 24.88273194617864 -0.08152711843562267 -1 0 0
2307 5 60.751968047908356 24.882731946178634 -0.08152711843562167 -1 0 0
2303 1 58.792265288700804 26.012130983057727 1.107034663112435 -1 0 0
2308 5 58.79222311914169 28.277109732679637 -0.08152711843561984 -1 0 0
2315 5 64.67145790544336 24.882731946178634 -0.08152711843561777 -1 0 0
2311 1 62.71175514623581 26.012130983057716 1.1070346631124384 -1 0 0
2319 1 66.6312450037708 26.012130983057727 1.1070346631124306 -1 0 0
2316 5 62.711712976676694 28.277109732679634 -0.08152711843563196 -1 0 0
2324 5 66.63120283421169 28.27710973267963 -0.08152711843562147 -1 0 0
2323 5 68.59094776297836 24.882731946178637 -0.08152711843561658 -1 0 0
2331 5 72.51043762051336 24.882731946178634 -0.08152711843562063 -1 0 0
2327 1 70.55073486130581 26.012130983057723 1.107034663112434 -1 0 0
2332 5 70.55069269174668 28.277109732679627 -0.08152711843562711 -1 0 0
2339 5 76.42992747804837 24.88273194617864 -0.08152711843561913 -1 0 0
2335 1 74.47022471884081 26.012130983057727 1.1070346631124348 -1 0 0
2343 1 78.3897145763758 26.012130983057734 1.1070346631124426 -1 0 0
2340 5 74.47018254928169 28.27710973267963 -0.08152711843562126 -1 0 0
2348 5 78.38967240681669 28.277109732679637 -0.08152711843561716 -1 0 0