LAMMPS data file via write_data, version 29 Aug 2024, timestep = 3, units = metal

8568 atoms
24 atom types

0 97.444 xlo xhi
0 101.682 ylo yhi
-50 114.95790329431615 zlo zhi

Masses

1 10.81
2 10.81
3 10.81
4 10.81
5 10.81
6 10.81
7 10.81
8 10.81
9 10.81
10 10.81
11 10.81
12 10.81
13 10.81
14 10.81
15 10.81
16 10.81
17 10.81
18 10.81
19 10.81
20 10.81
21 10.81
22 10.81
23 10.81
24 10.81

Atoms # atomic

2147 11 2.842170943040401e-14 0.8069340983233371 0.09548162991055961 0 0 0
2157 9 2.8659999999999894 0.8069340983233245 0.09548162991057771 0 0 0
2159 11 5.731999999999998 0.8069340983233244 0.09548162991057357 0 0 0
2343 3 1.4210854715202004e-14 2.421039580487998 0.09550277222439883 0 0 0
2148 12 1.4330000000000014 1.6140664132689453 1.0004288495665203 0 0 0
2353 1 2.86599999999999 2.4210395804880274 0.09550277222441259 0 0 0
2158 10 4.298999999999994 1.6140664132689448 1.0004288495665188 0 0 0
2355 3 5.731999999999998 2.421039580488026 0.09550277222440852 0 0 0
2347 7 2.842170943040401e-14 4.035025434397093 0.09548281486040909 0 0 0
2344 4 1.4330000000000054 3.227934778557642 1.000415665012715 0 0 0
2357 5 2.8659999999999894 4.035025434397075 0.09548281486042416 0 0 0
2354 2 4.298999999999993 3.227934778557641 1.000415665012708 0 0 0
2359 7 5.731999999999998 4.035025434397077 0.0954828148604204 0 0 0
2348 8 1.4330000000000027 4.841999785232894 1.0004089743778553 0 0 0
2358 6 4.298999999999994 4.841999785232894 1.0004089743778515 0 0 0
2351 11 2.842170943040401e-14 5.6489340983171665 0.09548162991014691 0 0 0
2361 9 2.8659999999999894 5.648934098317169 0.09548162991016272 0 0 0
2363 11 5.731999999999999 5.64893409831717 0.09548162991015852 0 0 0
2169 9 8.597999999999999 0.8069340983233242 0.09548162991057327 0 0 0
2160 12 7.164999999999999 1.6140664132689455 1.0004288495665195 0 0 0
2365 1 8.597999999999999 2.4210395804880274 0.09550277222440813 0 0 0
2170 10 10.031000000000004 1.614066413268945 1.0004288495665183 0 0 0
2356 4 7.164999999999999 3.227934778557641 1.000415665012709 0 0 0
2369 5 8.597999999999999 4.035025434397075 0.09548281486041985 0 0 0
2366 2 10.031000000000004 3.2279347785576418 1.0004156650127078 0 0 0
2360 8 7.164999999999999 4.841999785232894 1.0004089743778524 0 0 0
2370 6 10.031000000000004 4.841999785232893 1.0004089743778513 0 0 0
2373 9 8.597999999999999 5.64893409831717 0.09548162991015799 0 0 0
2171 11 11.464000000000006 0.806934098323325 0.09548162991057639 0 0 0
2367 3 11.464000000000006 2.421039580488026 0.09550277222441131 0 0 0
2371 7 11.464000000000006 4.035025434397076 0.09548281486042298 0 0 0
2375 11 11.464000000000006 5.648934098317169 0.09548162991016106 0 0 0
2181 9 14.330000000000002 0.8069340983233381 0.095481629910569 0 0 0
2172 12 12.897000000000006 1.6140664132689473 1.0004288495665183 0 0 0
2377 1 14.330000000000004 2.4210395804879967 0.09550277222440819 0 0 0
2182 10 15.762999999999986 1.6140664132689648 1.000428849566517 0 0 0
2368 4 12.897000000000004 3.2279347785576427 1.0004156650127132 0 0 0
2381 5 14.330000000000004 4.035025434397094 0.09548281486041814 0 0 0
2378 2 15.762999999999991 3.2279347785576338 1.0004156650127105 0 0 0
2372 8 12.897000000000006 4.841999785232892 1.000408974377853 0 0 0
2382 6 15.762999999999984 4.841999785232901 1.0004089743778568 0 0 0
2385 9 14.330000000000004 5.648934098317162 0.09548162991015599 0 0 0
2183 11 17.196 0.8069340983233294 0.09548162991057244 0 0 0
2379 3 17.196 2.4210395804880336 0.09550277222441368 0 0 0
2383 7 17.196 4.035025434397033 0.09548281486042273 0 0 0
2387 11 17.196 5.648934098317202 0.09548162991016214 0 0 0
2193 9 20.06200000000001 0.8069340983233289 0.09548162991056916 0 0 0
2184 12 18.628999999999987 1.6140664132689622 1.000428849566517 0 0 0
2389 1 20.06200000000001 2.4210395804880354 0.09550277222441042 0 0 0
2194 10 21.494999999999994 1.6140664132689624 1.0004288495665168 0 0 0
2380 4 18.628999999999987 3.2279347785576387 1.0004156650127036 0 0 0
2393 5 20.06200000000001 4.0350254343970295 0.09548281486041951 0 0 0
2390 2 21.494999999999994 3.22793477855764 1.0004156650127032 0 0 0
2384 8 18.628999999999987 4.841999785232906 1.000408974377861 0 0 0
2394 6 21.494999999999994 4.841999785232904 1.000408974377861 0 0 0
2397 9 20.06200000000001 5.648934098317204 0.09548162991015935 0 0 0
2195 11 22.928000000000008 0.8069340983233283 0.09548162991056963 0 0 0
2391 3 22.928000000000008 2.421039580488036 0.09550277222441077 0 0 0
2395 7 22.928000000000008 4.0350254343970295 0.09548281486042 0 0 0
2399 11 22.928000000000008 5.648934098317204 0.09548162991015935 0 0 0
2205 9 25.794000000000008 0.8069340983233295 0.09548162991056978 0 0 0
2196 12 24.360999999999994 1.6140664132689622 1.0004288495665172 0 0 0
2401 1 25.794000000000008 2.4210395804880345 0.095502772224411 0 0 0
2206 10 27.226999999999993 1.6140664132689622 1.0004288495665168 0 0 0
2392 4 24.360999999999994 3.2279347785576404 1.0004156650127038 0 0 0
2405 5 25.794000000000008 4.03502543439703 0.09548281486042023 0 0 0
2402 2 27.226999999999993 3.2279347785576404 1.0004156650127038 0 0 0
2396 8 24.360999999999994 4.841999785232904 1.0004089743778617 0 0 0
2406 6 27.226999999999993 4.841999785232904 1.0004089743778615 0 0 0
2409 9 25.794000000000008 5.648934098317204 0.09548162991015967 0 0 0
2207 11 28.660000000000007 0.8069340983233295 0.09548162991056959 0 0 0
2403 3 28.660000000000007 2.4210395804880345 0.09550277222441089 0 0 0
2407 7 28.660000000000007 4.0350254343970295 0.09548281486041994 0 0 0
2411 11 28.660000000000007 5.648934098317204 0.0954816299101597 0 0 0
2217 9 31.526000000000007 0.8069340983233291 0.09548162991056904 0 0 0
2208 12 30.092999999999993 1.6140664132689626 1.0004288495665168 0 0 0
2413 1 31.526000000000007 2.4210395804880345 0.09550277222441003 0 0 0
2218 10 32.95899999999999 1.6140664132689622 1.0004288495665163 0 0 0
2404 4 30.092999999999993 3.227934778557639 1.0004156650127036 0 0 0
2417 5 31.526000000000007 4.0350254343970295 0.09548281486041901 0 0 0
2414 2 32.95899999999999 3.227934778557639 1.0004156650127027 0 0 0
2408 8 30.092999999999993 4.841999785232906 1.0004089743778612 0 0 0
2418 6 32.95899999999999 4.841999785232906 1.0004089743778606 0 0 0
2421 9 31.526000000000007 5.648934098317204 0.095481629910159 0 0 0
2219 11 34.392 0.8069340983233295 0.09548162991056938 0 0 0
2415 3 34.392 2.4210395804880345 0.09550277222441052 0 0 0
2419 7 34.392 4.0350254343970295 0.09548281486041944 0 0 0
2423 11 34.392 5.648934098317204 0.09548162991015947 0 0 0
2229 9 37.258 0.8069340983233295 0.09548162991056995 0 0 0
2220 12 35.824999999999996 1.6140664132689622 1.0004288495665168 0 0 0
2425 1 37.258 2.4210395804880345 0.0955027722244111 0 0 0
2230 10 38.690999999999995 1.6140664132689628 1.0004288495665175 0 0 0
2416 4 35.824999999999996 3.2279347785576396 1.0004156650127034 0 0 0
2429 5 37.258 4.0350254343970295 0.09548281486042004 0 0 0
2426 2 38.690999999999995 3.2279347785576396 1.000415665012704 0 0 0
2420 8 35.824999999999996 4.841999785232906 1.000408974377861 0 0 0
2430 6 38.690999999999995 4.841999785232906 1.0004089743778617 0 0 0
2433 9 37.258 5.648934098317204 0.09548162991015993 0 0 0
2231 11 40.124 0.8069340983233293 0.09548162991056987 0 0 0
2427 3 40.124 2.421039580488035 0.09550277222441103 0 0 0
2431 7 40.124 4.0350254343970295 0.09548281486042001 0 0 0
2435 11 40.124 5.648934098317204 0.09548162991015997 0 0 0
2241 9 42.99000000000001 0.8069340983233295 0.09548162991057 0 0 0
2232 12 41.556999999999995 1.6140664132689622 1.0004288495665172 0 0 0
2437 1 42.99000000000001 2.4210395804880345 0.0955027722244113 0 0 0
2242 10 44.423 1.6140664132689624 1.0004288495665141 0 0 0
2428 4 41.556999999999995 3.227934778557639 1.0004156650127038 0 0 0
2441 5 42.99000000000001 4.0350254343970295 0.09548281486042008 0 0 0
2438 2 44.423 3.227934778557638 1.0004156650127005 0 0 0
2432 8 41.556999999999995 4.841999785232906 1.0004089743778615 0 0 0
2442 6 44.423 4.841999785232906 1.000408974377858 0 0 0
2445 9 42.99000000000001 5.648934098317204 0.09548162991016018 0 0 0
2243 11 45.85600000000001 0.8069340983233292 0.09548162991056884 0 0 0
2439 3 45.85600000000001 2.421039580488035 0.09550277222441 0 0 0
2443 7 45.85600000000001 4.035025434397033 0.09548281486041903 0 0 0
2447 11 45.85600000000001 5.648934098317203 0.09548162991015872 0 0 0
2049 9 48.721999999999994 0.8069340983233245 0.09548162991057126 -1 0 0
2244 12 47.288999999999994 1.6140664132689622 1.0004288495665221 0 0 0
2245 1 48.721999999999994 2.421039580488026 0.09550277222440964 -1 0 0
2050 10 50.15499999999999 1.6140664132689448 1.0004288495665166 -1 0 0
2440 4 47.288999999999994 3.2279347785576338 1.0004156650127105 0 0 0
2249 5 48.721999999999994 4.035025434397074 0.09548281486041933 -1 0 0
2246 2 50.15499999999999 3.2279347785576413 1.000415665012706 -1 0 0
2444 8 47.289 4.841999785232903 1.0004089743778604 0 0 0
2250 6 50.15499999999999 4.841999785232894 1.0004089743778497 -1 0 0
2253 9 48.721999999999994 5.648934098317168 0.09548162991015861 -1 0 0
2051 11 51.588 0.8069340983233247 0.09548162991057442 -1 0 0
2061 9 54.45400000000001 0.8069340983233246 0.09548162991057123 -1 0 0
2247 3 51.588 2.4210395804880274 0.09550277222440898 -1 0 0
2052 12 53.021000000000015 1.6140664132689448 1.0004288495665166 -1 0 0
2257 1 54.45400000000001 2.421039580488026 0.09550277222440964 -1 0 0
2062 10 55.88700000000001 1.6140664132689626 1.0004288495665221 -1 0 0
2251 7 51.588 4.035025434397075 0.095482814860421 -1 0 0
2248 4 53.021000000000015 3.2279347785576413 1.000415665012706 -1 0 0
2261 5 54.45400000000001 4.035025434397074 0.0954828148604193 -1 0 0
2258 2 55.88700000000001 3.2279347785576338 1.0004156650127103 -1 0 0
2252 8 53.021000000000015 4.841999785232894 1.0004089743778497 -1 0 0
2262 6 55.887 4.841999785232903 1.0004089743778604 -1 0 0
2255 11 51.588 5.64893409831717 0.09548162991015922 -1 0 0
2265 9 54.45400000000001 5.648934098317168 0.09548162991015856 -1 0 0
2063 11 57.31999999999999 0.8069340983233292 0.09548162991056888 -1 0 0
2259 3 57.31999999999999 2.421039580488035 0.09550277222441006 -1 0 0
2263 7 57.31999999999999 4.035025434397033 0.09548281486041899 -1 0 0
2267 11 57.31999999999999 5.648934098317203 0.0954816299101588 -1 0 0
2073 9 60.18599999999999 0.8069340983233296 0.09548162991057005 -1 0 0
2064 12 58.753 1.6140664132689628 1.0004288495665141 -1 0 0
2269 1 60.18599999999999 2.4210395804880345 0.09550277222441135 -1 0 0
2074 10 61.61900000000001 1.6140664132689626 1.0004288495665175 -1 0 0
2260 4 58.753 3.227934778557638 1.0004156650127005 -1 0 0
2273 5 60.18599999999999 4.0350254343970295 0.09548281486042015 -1 0 0
2270 2 61.61900000000001 3.227934778557639 1.000415665012704 -1 0 0
2264 8 58.753 4.841999785232906 1.000408974377858 -1 0 0
2274 6 61.61900000000001 4.841999785232906 1.0004089743778617 -1 0 0
2277 9 60.18599999999999 5.648934098317204 0.09548162991016027 -1 0 0
2075 11 63.052 0.8069340983233295 0.09548162991056967 -1 0 0
2085 9 65.91799999999999 0.8069340983233295 0.09548162991056969 -1 0 0
2271 3 63.052 2.4210395804880345 0.09550277222441089 -1 0 0
2076 12 64.48500000000001 1.6140664132689626 1.000428849566517 -1 0 0
2281 1 65.91799999999999 2.4210395804880345 0.09550277222441095 -1 0 0
2086 10 67.35100000000001 1.6140664132689626 1.000428849566517 -1 0 0
2275 7 63.052 4.0350254343970295 0.09548281486041993 -1 0 0
2272 4 64.48500000000001 3.2279347785576404 1.0004156650127036 -1 0 0
2285 5 65.91799999999999 4.0350254343970295 0.09548281486042001 -1 0 0
2282 2 67.35100000000001 3.227934778557639 1.0004156650127036 -1 0 0
2276 8 64.48500000000001 4.841999785232904 1.0004089743778615 -1 0 0
2286 6 67.35100000000001 4.841999785232906 1.0004089743778615 -1 0 0
2279 11 63.052 5.648934098317204 0.09548162991015963 -1 0 0
2289 9 65.91799999999999 5.648934098317204 0.09548162991015965 -1 0 0
2087 11 68.78399999999999 0.8069340983233295 0.09548162991056969 -1 0 0
2283 3 68.78399999999999 2.4210395804880345 0.0955027722244109 -1 0 0
2287 7 68.78399999999999 4.0350254343970295 0.09548281486041996 -1 0 0
2291 11 68.78399999999999 5.648934098317204 0.09548162991015967 -1 0 0
2097 9 71.64999999999999 0.8069340983233295 0.09548162991056965 -1 0 0
2088 12 70.21700000000001 1.6140664132689626 1.000428849566517 -1 0 0
2293 1 71.64999999999999 2.4210395804880345 0.09550277222441095 -1 0 0
2098 10 73.08300000000001 1.6140664132689626 1.0004288495665172 -1 0 0
2284 4 70.21700000000001 3.2279347785576404 1.0004156650127036 -1 0 0
2297 5 71.64999999999999 4.0350254343970295 0.09548281486042 -1 0 0
2294 2 73.08300000000001 3.227934778557639 1.0004156650127036 -1 0 0
2288 8 70.21700000000001 4.841999785232904 1.0004089743778615 -1 0 0
2298 6 73.08300000000001 4.841999785232906 1.0004089743778615 -1 0 0
2301 9 71.64999999999999 5.648934098317204 0.09548162991015967 -1 0 0
2099 11 74.51599999999999 0.8069340983233295 0.09548162991056881 -1 0 0
2295 3 74.51599999999999 2.4210395804880345 0.09550277222441009 -1 0 0
2299 7 74.51599999999999 4.0350254343970295 0.0954828148604189 -1 0 0
2303 11 74.51599999999999 5.648934098317204 0.09548162991015896 -1 0 0
2109 9 77.38200000000002 0.8069340983233283 0.09548162991057617 -1 0 0
2100 12 75.94900000000001 1.6140664132689624 1.0004288495665166 -1 0 0
2305 1 77.38200000000002 2.421039580488036 0.09550277222441736 -1 0 0
2110 10 78.81500000000001 1.6140664132689637 1.0004288495665195 -1 0 0
2296 4 75.94900000000001 3.227934778557639 1.0004156650127027 -1 0 0
2309 5 77.38200000000002 4.0350254343970295 0.09548281486042626 -1 0 0
2306 2 78.81500000000001 3.2279347785576378 1.000415665012706 -1 0 0
2300 8 75.94900000000001 4.841999785232906 1.0004089743778606 -1 0 0
2310 6 78.81500000000001 4.841999785232906 1.000408974377864 -1 0 0
2313 9 77.38200000000002 5.648934098317203 0.09548162991016616 -1 0 0
2111 11 80.24799999999998 0.8069340983233302 0.09548162991055453 -1 0 0
2307 3 80.24799999999998 2.421039580488036 0.09550277222439674 -1 0 0
2311 7 80.24799999999998 4.035025434397028 0.0954828148604057 -1 0 0
2315 11 80.24799999999998 5.6489340983172065 0.09548162991014571 -1 0 0
2121 9 83.114 0.8069340983233275 0.09548162991059012 -1 0 0
2112 12 81.68099999999998 1.6140664132689622 1.000428849566516 -1 0 0
2317 1 83.114 2.4210395804880447 0.09550277222442986 -1 0 0
2122 10 84.54700000000001 1.6140664132689617 1.0004288495665163 -1 0 0
2308 4 81.68099999999998 3.227934778557642 1.000415665012701 -1 0 0
2321 5 83.114 4.03502543439699 0.09548281486044037 -1 0 0
2318 2 84.54700000000001 3.227934778557642 1.000415665012702 -1 0 0
2312 8 81.68099999999998 4.841999785232902 1.0004089743778657 -1 0 0
2322 6 84.54700000000001 4.841999785232901 1.0004089743778668 -1 0 0
2325 9 83.114 5.648934098317268 0.0954816299101798 -1 0 0
2123 11 85.98 0.8069340983233289 0.09548162991054777 -1 0 0
2133 9 88.846 0.806934098323329 0.09548162991059198 -1 0 0
2319 3 85.98 2.421039580488036 0.09550277222438974 -1 0 0
2124 12 87.413 1.6140664132689624 1.000428849566517 -1 0 0
2329 1 88.846 2.4210395804880434 0.09550277222443194 -1 0 0
2134 10 90.27900000000001 1.6140664132689622 1.0004288495665177 -1 0 0
2323 7 85.98 4.0350254343970295 0.09548281486039971 -1 0 0
2320 4 87.413 3.2279347785576418 1.0004156650127018 -1 0 0
2333 5 88.846 4.03502543439699 0.0954828148604414 -1 0 0
2330 2 90.27900000000001 3.2279347785576418 1.000415665012702 -1 0 0
2324 8 87.413 4.841999785232901 1.0004089743778668 -1 0 0
2334 6 90.27900000000001 4.841999785232901 1.0004089743778668 -1 0 0
2327 11 85.98 5.648934098317204 0.09548162991013755 -1 0 0
2337 9 88.846 5.64893409831727 0.09548162991018178 -1 0 0
2135 11 91.712 0.8069340983233303 0.09548162991054927 -1 0 0
2145 9 94.57799999999999 0.8069340983233265 0.09548162991058698 -1 0 0
2331 3 91.712 2.4210395804880345 0.09550277222439128 -1 0 0
2136 12 93.14499999999998 1.6140664132689624 1.00042884956652 -1 0 0
2341 1 94.57799999999999 2.4210395804880456 0.0955027722244268 -1 0 0
2146 10 96.01100000000001 1.614066413268966 1.000428849566511 -1 0 0
2335 7 91.712 4.0350254343970295 0.09548281486040032 -1 0 0
2332 4 93.14499999999998 3.2279347785576418 1.000415665012705 -1 0 0
2345 5 94.57799999999999 4.0350254343969905 0.09548281486043748 -1 0 0
2342 2 96.01100000000001 3.227934778557638 1.0004156650127032 -1 0 0
2336 8 93.14499999999998 4.841999785232901 1.0004089743778695 -1 0 0
2346 6 96.01100000000002 4.841999785232895 1.000408974377857 -1 0 0
2339 11 91.712 5.648934098317204 0.09548162991013823 -1 0 0
2349 9 94.57799999999999 5.64893409831727 0.09548162991017654 -1 0 0
2352 12 1.433000000000003 6.456066413270968 1.000428849567238 0 0 0
2362 10 4.298999999999994 6.456066413270969 1.0004288495672335 0 0 0
2547 3 2.842170943040401e-14 7.263039580490835 0.09550277222452444 0 0 0
2548 4 1.4330000000000036 8.069934778557464 1.0004156650124818 0 0 0
2557 1 2.86599999999999 7.263039580490835 0.09550277222454 0 0 0
2558 2 4.298999999999994 8.069934778557466 1.0004156650124776 0 0 0
2559 3 5.731999999999998 7.263039580490833 0.09550277222453576 0 0 0
2551 7 2.842170943040401e-14 8.877025434395504 0.09548281486046309 0 0 0
2561 5 2.86599999999999 8.877025434395506 0.0954828148604784 0 0 0
2563 7 5.731999999999998 8.877025434395506 0.09548281486047455 0 0 0
2555 11 2.842170943040401e-14 10.490934098319697 0.0954816299100786 0 0 0
2552 8 1.4330000000000034 9.683999785232297 1.0004089743781754 0 0 0
2565 9 2.8659999999999894 10.490934098319697 0.09548162991009419 0 0 0
2562 6 4.298999999999993 9.683999785232293 1.0004089743781712 0 0 0
2567 11 5.731999999999998 10.490934098319697 0.09548162991008996 0 0 0
2556 12 1.4330000000000034 11.298066413270984 1.000428849566743 0 0 0
2566 10 4.298999999999994 11.298066413270986 1.0004288495667384 0 0 0
2364 12 7.164999999999999 6.456066413270969 1.0004288495672342 0 0 0
2374 10 10.031000000000004 6.456066413270971 1.0004288495672333 0 0 0
2560 4 7.164999999999999 8.069934778557466 1.0004156650124783 0 0 0
2569 1 8.597999999999999 7.263039580490833 0.09550277222453539 0 0 0
2570 2 10.031000000000004 8.069934778557464 1.0004156650124774 0 0 0
2573 5 8.597999999999999 8.877025434395506 0.09548281486047416 0 0 0
2564 8 7.164999999999999 9.683999785232293 1.0004089743781721 0 0 0
2577 9 8.597999999999999 10.490934098319697 0.09548162991008947 0 0 0
2574 6 10.031000000000004 9.683999785232293 1.000408974378171 0 0 0
2568 12 7.164999999999999 11.298066413270986 1.0004288495667393 0 0 0
2578 10 10.031000000000004 11.298066413270986 1.0004288495667382 0 0 0
2571 3 11.464000000000006 7.263039580490834 0.09550277222453897 0 0 0
2575 7 11.464000000000006 8.877025434395506 0.09548281486047716 0 0 0
2579 11 11.464000000000006 10.490934098319697 0.09548162991009279 0 0 0
2376 12 12.897000000000006 6.456066413270971 1.0004288495672364 0 0 0
2386 10 15.762999999999987 6.456066413270966 1.000428849567234 0 0 0
2572 4 12.897000000000006 8.069934778557464 1.00041566501248 0 0 0
2581 1 14.330000000000004 7.263039580490837 0.0955027722245341 0 0 0
2582 2 15.762999999999987 8.069934778557462 1.0004156650124794 0 0 0
2585 5 14.330000000000004 8.877025434395506 0.09548281486047208 0 0 0
2576 8 12.897000000000006 9.683999785232293 1.0004089743781737 0 0 0
2589 9 14.330000000000004 10.490934098319697 0.09548162991008798 0 0 0
2586 6 15.762999999999987 9.683999785232295 1.0004089743781734 0 0 0
2580 12 12.897000000000006 11.298066413270986 1.000428849566741 0 0 0
2590 10 15.762999999999987 11.298066413270988 1.0004288495667404 0 0 0
2583 3 17.196 7.263039580490828 0.09550277222453811 0 0 0
2587 7 17.196 8.877025434395506 0.09548281486047744 0 0 0
2591 11 17.196 10.490934098319697 0.09548162991009286 0 0 0
2388 12 18.628999999999987 6.45606641327096 1.000428849567231 0 0 0
2398 10 21.494999999999994 6.456066413270961 1.0004288495672309 0 0 0
2584 4 18.628999999999987 8.069934778557466 1.000415665012478 0 0 0
2593 1 20.06200000000001 7.263039580490827 0.09550277222453496 0 0 0
2594 2 21.494999999999994 8.069934778557466 1.000415665012478 0 0 0
2597 5 20.06200000000001 8.877025434395506 0.09548281486047439 0 0 0
2588 8 18.628999999999987 9.683999785232293 1.000408974378172 0 0 0
2601 9 20.06200000000001 10.490934098319697 0.09548162991008967 0 0 0
2598 6 21.494999999999994 9.683999785232293 1.000408974378172 0 0 0
2592 12 18.628999999999987 11.298066413270988 1.0004288495667388 0 0 0
2602 10 21.494999999999994 11.298066413270988 1.0004288495667388 0 0 0
2595 3 22.928000000000008 7.263039580490827 0.09550277222453506 0 0 0
2599 7 22.928000000000008 8.877025434395506 0.09548281486047476 0 0 0
2603 11 22.928000000000008 10.490934098319697 0.09548162991008997 0 0 0
2400 12 24.360999999999994 6.456066413270961 1.000428849567231 0 0 0
2410 10 27.226999999999993 6.456066413270961 1.000428849567231 0 0 0
2596 4 24.360999999999994 8.069934778557466 1.0004156650124785 0 0 0
2605 1 25.794000000000008 7.263039580490827 0.09550277222453535 0 0 0
2606 2 27.226999999999993 8.069934778557466 1.0004156650124783 0 0 0
2609 5 25.794000000000008 8.877025434395506 0.09548281486047505 0 0 0
2600 8 24.360999999999994 9.683999785232293 1.0004089743781723 0 0 0
2613 9 25.794000000000008 10.490934098319697 0.0954816299100903 0 0 0
2610 6 27.226999999999993 9.683999785232293 1.0004089743781721 0 0 0
2604 12 24.360999999999994 11.298066413270988 1.0004288495667393 0 0 0
2614 10 27.226999999999993 11.298066413270988 1.0004288495667393 0 0 0
2607 3 28.660000000000007 7.263039580490827 0.0955027722245352 0 0 0
2611 7 28.660000000000007 8.877025434395506 0.09548281486047483 0 0 0
2615 11 28.660000000000007 10.490934098319697 0.09548162991008968 0 0 0
2412 12 30.092999999999993 6.45606641327096 1.0004288495672309 0 0 0
2422 10 32.95899999999999 6.45606641327096 1.0004288495672302 0 0 0
2608 4 30.092999999999993 8.069934778557466 1.000415665012478 0 0 0
2617 1 31.526000000000007 7.263039580490827 0.09550277222453445 0 0 0
2618 2 32.95899999999999 8.069934778557466 1.0004156650124774 0 0 0
2621 5 31.526000000000007 8.877025434395506 0.09548281486047401 0 0 0
2612 8 30.092999999999993 9.683999785232292 1.0004089743781721 0 0 0
2625 9 31.526000000000007 10.490934098319697 0.09548162991008871 0 0 0
2622 6 32.95899999999999 9.683999785232292 1.0004089743781712 0 0 0
2616 12 30.092999999999993 11.298066413270991 1.000428849566739 0 0 0
2626 10 32.95899999999999 11.298066413270991 1.0004288495667384 0 0 0
2619 3 34.392 7.263039580490827 0.09550277222453495 0 0 0
2623 7 34.392 8.877025434395506 0.0954828148604745 0 0 0
2627 11 34.392 10.490934098319697 0.09548162991008938 0 0 0
2424 12 35.824999999999996 6.45606641327096 1.0004288495672309 0 0 0
2434 10 38.690999999999995 6.45606641327096 1.0004288495672315 0 0 0
2620 4 35.824999999999996 8.069934778557466 1.000415665012478 0 0 0
2629 1 37.258 7.263039580490827 0.09550277222453549 0 0 0
2630 2 38.690999999999995 8.069934778557466 1.0004156650124787 0 0 0
2633 5 37.258 8.877025434395506 0.09548281486047505 0 0 0
2624 8 35.824999999999996 9.683999785232293 1.0004089743781721 0 0 0
2637 9 37.258 10.490934098319697 0.09548162991008988 0 0 0
2634 6 38.690999999999995 9.683999785232292 1.0004089743781723 0 0 0
2628 12 35.824999999999996 11.298066413270988 1.0004288495667388 0 0 0
2638 10 38.690999999999995 11.298066413270991 1.0004288495667395 0 0 0
2631 3 40.124 7.263039580490827 0.09550277222453543 0 0 0
2635 7 40.124 8.877025434395506 0.09548281486047497 0 0 0
2639 11 40.124 10.490934098319697 0.09548162991008971 0 0 0
2436 12 41.556999999999995 6.45606641327096 1.0004288495672313 0 0 0
2446 10 44.423 6.456066413270962 1.000428849567228 0 0 0
2632 4 41.556999999999995 8.069934778557466 1.0004156650124785 0 0 0
2641 1 42.99000000000001 7.263039580490827 0.09550277222453593 0 0 0
2642 2 44.423 8.069934778557462 1.0004156650124751 0 0 0
2645 5 42.99000000000001 8.877025434395506 0.09548281486047477 0 0 0
2636 8 41.556999999999995 9.683999785232292 1.0004089743781723 0 0 0
2649 9 42.99000000000001 10.490934098319697 0.09548162991009006 0 0 0
2646 6 44.423 9.683999785232295 1.0004089743781688 0 0 0
2640 12 41.556999999999995 11.298066413270991 1.0004288495667393 0 0 0
2650 10 44.423 11.298066413270988 1.0004288495667362 0 0 0
2643 3 45.85600000000001 7.263039580490828 0.0955027722245345 0 0 0
2647 7 45.85600000000001 8.877025434395506 0.09548281486047401 0 0 0
2651 11 45.85600000000001 10.490934098319695 0.09548162991008927 0 0 0
2448 12 47.288999999999994 6.456066413270963 1.0004288495672367 0 0 0
2254 10 50.15499999999999 6.4560664132709675 1.0004288495672315 -1 0 0
2644 4 47.288999999999994 8.069934778557466 1.000415665012482 0 0 0
2449 1 48.721999999999994 7.263039580490837 0.09550277222453507 -1 0 0
2450 2 50.15499999999999 8.069934778557469 1.0004156650124756 -1 0 0
2453 5 48.721999999999994 8.877025434395504 0.0954828148604744 -1 0 0
2648 8 47.288999999999994 9.683999785232293 1.0004089743781759 0 0 0
2457 9 48.721999999999994 10.490934098319697 0.09548162991008945 -1 0 0
2454 6 50.15499999999999 9.683999785232292 1.0004089743781692 -1 0 0
2652 12 47.288999999999994 11.298066413270988 1.000428849566743 0 0 0
2458 10 50.15499999999999 11.298066413270986 1.0004288495667366 -1 0 0
2256 12 53.021000000000015 6.4560664132709675 1.0004288495672315 -1 0 0
2266 10 55.88700000000001 6.456066413270963 1.0004288495672367 -1 0 0
2451 3 51.588 7.263039580490833 0.09550277222453606 -1 0 0
2452 4 53.021000000000015 8.069934778557469 1.0004156650124756 -1 0 0
2461 1 54.45400000000001 7.263039580490837 0.09550277222453506 -1 0 0
2462 2 55.88700000000001 8.069934778557466 1.000415665012482 -1 0 0
2455 7 51.588 8.877025434395506 0.09548281486047615 -1 0 0
2465 5 54.45400000000001 8.877025434395504 0.09548281486047439 -1 0 0
2459 11 51.588 10.490934098319697 0.0954816299100909 -1 0 0
2456 8 53.021000000000015 9.683999785232292 1.0004089743781692 -1 0 0
2469 9 54.45400000000001 10.490934098319697 0.09548162991008943 -1 0 0
2466 6 55.88700000000001 9.683999785232293 1.0004089743781759 -1 0 0
2460 12 53.021000000000015 11.298066413270986 1.0004288495667366 -1 0 0
2470 10 55.88700000000001 11.298066413270988 1.000428849566743 -1 0 0
2463 3 57.31999999999999 7.263039580490828 0.09550277222453453 -1 0 0
2467 7 57.31999999999999 8.877025434395506 0.09548281486047402 -1 0 0
2471 11 57.31999999999999 10.490934098319695 0.09548162991008925 -1 0 0
2268 12 58.753 6.456066413270962 1.000428849567228 -1 0 0
2278 10 61.61900000000001 6.45606641327096 1.0004288495672315 -1 0 0
2464 4 58.753 8.069934778557462 1.0004156650124751 -1 0 0
2473 1 60.18599999999999 7.263039580490828 0.09550277222453593 -1 0 0
2474 2 61.61900000000001 8.069934778557466 1.0004156650124787 -1 0 0
2477 5 60.18599999999999 8.877025434395506 0.09548281486047487 -1 0 0
2468 8 58.753 9.683999785232295 1.000408974378169 -1 0 0
2481 9 60.18599999999999 10.490934098319697 0.09548162991009045 -1 0 0
2478 6 61.61900000000001 9.683999785232293 1.0004089743781726 -1 0 0
2472 12 58.753 11.298066413270988 1.0004288495667362 -1 0 0
2482 10 61.61900000000001 11.298066413270988 1.0004288495667397 -1 0 0
2280 12 64.48500000000001 6.456066413270961 1.000428849567231 -1 0 0
2290 10 67.35100000000001 6.45606641327096 1.000428849567231 -1 0 0
2475 3 63.052 7.263039580490827 0.09550277222453517 -1 0 0
2476 4 64.48500000000001 8.069934778557466 1.0004156650124783 -1 0 0
2485 1 65.91799999999999 7.263039580490827 0.0955027722245352 -1 0 0
2486 2 67.35100000000001 8.069934778557466 1.0004156650124783 -1 0 0
2479 7 63.052 8.877025434395506 0.09548281486047482 -1 0 0
2489 5 65.91799999999999 8.877025434395506 0.09548281486047479 -1 0 0
2483 11 63.052 10.490934098319697 0.0954816299100901 -1 0 0
2480 8 64.48500000000001 9.683999785232293 1.0004089743781721 -1 0 0
2493 9 65.91799999999999 10.490934098319697 0.09548162991009007 -1 0 0
2490 6 67.35100000000001 9.683999785232293 1.0004089743781721 -1 0 0
2484 12 64.48500000000001 11.298066413270988 1.0004288495667393 -1 0 0
2494 10 67.35100000000001 11.298066413270988 1.0004288495667393 -1 0 0
2487 3 68.78399999999999 7.263039580490827 0.09550277222453521 -1 0 0
2491 7 68.78399999999999 8.877025434395506 0.09548281486047484 -1 0 0
2495 11 68.78399999999999 10.490934098319697 0.09548162991009011 -1 0 0
2292 12 70.21700000000001 6.456066413270961 1.000428849567231 -1 0 0
2302 10 73.08300000000001 6.45606641327096 1.000428849567231 -1 0 0
2488 4 70.21700000000001 8.069934778557466 1.0004156650124783 -1 0 0
2497 1 71.64999999999999 7.263039580490827 0.09550277222453525 -1 0 0
2498 2 73.08300000000001 8.069934778557466 1.0004156650124783 -1 0 0
2501 5 71.64999999999999 8.877025434395506 0.09548281486047479 -1 0 0
2492 8 70.21700000000001 9.683999785232293 1.0004089743781721 -1 0 0
2505 9 71.64999999999999 10.490934098319697 0.09548162991009007 -1 0 0
2502 6 73.08300000000001 9.683999785232293 1.0004089743781721 -1 0 0
2496 12 70.21700000000001 11.298066413270988 1.0004288495667393 -1 0 0
2506 10 73.08300000000001 11.298066413270988 1.0004288495667393 -1 0 0
2499 3 74.51599999999999 7.263039580490827 0.09550277222453443 -1 0 0
2503 7 74.51599999999999 8.877025434395506 0.09548281486047404 -1 0 0
2507 11 74.51599999999999 10.490934098319697 0.0954816299100889 -1 0 0
2304 12 75.94900000000001 6.45606641327096 1.0004288495672304 -1 0 0
2314 10 78.81500000000001 6.456066413270962 1.0004288495672335 -1 0 0
2500 4 75.94900000000001 8.069934778557464 1.0004156650124774 -1 0 0
2509 1 77.38200000000002 7.263039580490829 0.0955027722245419 -1 0 0
2510 2 78.81500000000001 8.069934778557462 1.0004156650124805 -1 0 0
2513 5 77.38200000000002 8.877025434395504 0.09548281486048085 -1 0 0
2504 8 75.94900000000001 9.683999785232292 1.0004089743781714 -1 0 0
2517 9 77.38200000000002 10.490934098319697 0.09548162991009584 -1 0 0
2514 6 78.81500000000001 9.683999785232293 1.0004089743781743 -1 0 0
2508 12 75.94900000000001 11.298066413270991 1.0004288495667386 -1 0 0
2518 10 78.81500000000001 11.298066413270991 1.0004288495667415 -1 0 0
2511 3 80.24799999999998 7.263039580490829 0.09550277222452162 -1 0 0
2515 7 80.24799999999998 8.877025434395504 0.09548281486046016 -1 0 0