LAMMPS data file via write_data, version 29 Aug 2024, timestep = 1, units = metal

12852 atoms
36 atom types

0 97.444 xlo xhi
0 101.682 ylo yhi
-50 119.91580658863232 zlo zhi

Masses

1 10.81
2 10.81
3 10.81
4 10.81
5 10.81
6 10.81
7 10.81
8 10.81
9 10.81
10 10.81
11 10.81
12 10.81
13 10.81
14 10.81
15 10.81
16 10.81
17 10.81
18 10.81
19 10.81
20 10.81
21 10.81
22 10.81
23 10.81
24 10.81
25 10.81
26 10.81
27 10.81
28 10.81
29 10.81
30 10.81
31 10.81
32 10.81
33 10.81
34 10.81
35 10.81
36 10.81

Atoms # atomic

2147 11 0 0.8069996903422806 0.005377843467217131 0 0 0
2157 9 2.8659999999999997 0.8069996903422806 0.005377843467215682 0 0 0
2159 11 5.731999999999999 0.8069996903422806 0.00537784346721568 0 0 0
2343 3 0 2.421000195731101 0.005377952959502568 0 0 0
2148 12 1.4329999999999992 1.6140004065154905 0.912597766075185 0 0 0
2353 1 2.8659999999999997 2.421000195731101 0.00537795295950103 0 0 0
2158 10 4.2989999999999995 1.6140004065154905 0.9125977660751845 0 0 0
2355 3 5.731999999999999 2.421000195731101 0.005377952959501028 0 0 0
2347 7 0 4.035000007216499 0.005377862113933056 0 0 0
2344 4 1.4329999999999992 3.227999791525507 0.9125976933505371 0 0 0
2357 5 2.8659999999999997 4.035000007216499 0.0053778621139315514 0 0 0
2354 2 4.2989999999999995 3.227999791525507 0.9125976933505366 0 0 0
2359 7 5.731999999999999 4.035000007216499 0.005377862113931548 0 0 0
2348 8 1.4329999999999992 4.8419999986830815 0.9125976756568351 0 0 0
2358 6 4.2989999999999995 4.8419999986830815 0.9125976756568347 0 0 0
2351 11 0 5.648999690342257 0.00537784346721652 0 0 0
2361 9 2.8659999999999997 5.648999690342257 0.005377843467215076 0 0 0
2363 11 5.731999999999999 5.648999690342257 0.005377843467215074 0 0 0
2169 9 8.597999999999999 0.8069996903422806 0.005377843467215683 0 0 0
2171 11 11.463999999999999 0.8069996903422806 0.005377843467215683 0 0 0
2160 12 7.164999999999999 1.6140004065154905 0.9125977660751845 0 0 0
2365 1 8.597999999999999 2.421000195731101 0.005377952959501031 0 0 0
2170 10 10.030999999999999 1.6140004065154905 0.9125977660751845 0 0 0
2367 3 11.463999999999999 2.421000195731101 0.005377952959501032 0 0 0
2356 4 7.164999999999999 3.227999791525507 0.9125976933505366 0 0 0
2369 5 8.597999999999999 4.035000007216499 0.0053778621139315514 0 0 0
2366 2 10.030999999999999 3.227999791525507 0.9125976933505366 0 0 0
2371 7 11.463999999999999 4.035000007216499 0.00537786211393155 0 0 0
2360 8 7.164999999999999 4.8419999986830815 0.9125976756568347 0 0 0
2370 6 10.030999999999999 4.8419999986830815 0.9125976756568347 0 0 0
2373 9 8.597999999999999 5.648999690342257 0.005377843467215077 0 0 0
2375 11 11.463999999999999 5.648999690342257 0.005377843467215077 0 0 0
2181 9 14.330000000000002 0.8069996903422806 0.0053778434672171315 0 0 0
2172 12 12.896999999999998 1.6140004065154905 0.912597766075185 0 0 0
2377 1 14.330000000000002 2.421000195731101 0.005377952959502567 0 0 0
2182 10 15.762999999999996 1.6140004065154905 0.912597766075185 0 0 0
2368 4 12.896999999999998 3.227999791525507 0.9125976933505371 0 0 0
2381 5 14.330000000000002 4.035000007216499 0.005377862113933056 0 0 0
2378 2 15.762999999999996 3.2279997915255074 0.9125976933505371 0 0 0
2372 8 12.896999999999998 4.8419999986830815 0.9125976756568351 0 0 0
2382 6 15.762999999999996 4.8419999986830815 0.9125976756568354 0 0 0
2385 9 14.330000000000002 5.648999690342257 0.005377843467216522 0 0 0
2183 11 17.196000000000005 0.8069996903422807 0.00537784346721557 0 0 0
2379 3 17.196000000000005 2.421000195731101 0.00537795295950106 0 0 0
2383 7 17.196000000000005 4.035000007216499 0.005377862113931534 0 0 0
2387 11 17.196000000000005 5.648999690342257 0.005377843467214958 0 0 0
2193 9 20.062000000000005 0.8069996903422807 0.00537784346721557 0 0 0
2184 12 18.628999999999998 1.6140004065154905 0.9125977660751844 0 0 0
2389 1 20.062000000000005 2.421000195731101 0.00537795295950106 0 0 0
2194 10 21.494999999999997 1.6140004065154905 0.9125977660751844 0 0 0
2380 4 18.628999999999998 3.2279997915255074 0.9125976933505366 0 0 0
2393 5 20.062000000000005 4.035000007216499 0.0053778621139315376 0 0 0
2390 2 21.494999999999997 3.2279997915255074 0.9125976933505366 0 0 0
2384 8 18.628999999999998 4.8419999986830815 0.9125976756568348 0 0 0
2394 6 21.494999999999997 4.8419999986830815 0.9125976756568348 0 0 0
2397 9 20.062000000000005 5.648999690342257 0.005377843467214959 0 0 0
2195 11 22.928000000000004 0.8069996903422807 0.005377843467215574 0 0 0
2391 3 22.928000000000004 2.421000195731101 0.005377952959501065 0 0 0
2395 7 22.928000000000004 4.035000007216499 0.0053778621139315376 0 0 0
2399 11 22.928000000000004 5.648999690342257 0.00537784346721496 0 0 0
2205 9 25.794000000000004 0.8069996903422807 0.00537784346721557 0 0 0
2196 12 24.360999999999997 1.6140004065154905 0.9125977660751844 0 0 0
2401 1 25.794000000000004 2.421000195731101 0.00537795295950106 0 0 0
2206 10 27.226999999999997 1.6140004065154905 0.9125977660751844 0 0 0
2392 4 24.360999999999997 3.2279997915255074 0.9125976933505366 0 0 0
2405 5 25.794000000000004 4.035000007216499 0.005377862113931535 0 0 0
2402 2 27.226999999999997 3.2279997915255074 0.9125976933505366 0 0 0
2396 8 24.360999999999997 4.8419999986830815 0.9125976756568348 0 0 0
2406 6 27.226999999999997 4.8419999986830815 0.9125976756568348 0 0 0
2409 9 25.794000000000004 5.648999690342257 0.005377843467214957 0 0 0
2207 11 28.660000000000004 0.8069996903422807 0.0053778434672155685 0 0 0
2403 3 28.660000000000004 2.421000195731101 0.005377952959501059 0 0 0
2407 7 28.660000000000004 4.035000007216499 0.005377862113931535 0 0 0
2411 11 28.660000000000004 5.648999690342257 0.005377843467214956 0 0 0
2217 9 31.526000000000003 0.8069996903422807 0.005377843467215567 0 0 0
2208 12 30.092999999999996 1.6140004065154905 0.9125977660751844 0 0 0
2413 1 31.526000000000003 2.421000195731101 0.005377952959501058 0 0 0
2218 10 32.958999999999996 1.6140004065154905 0.9125977660751844 0 0 0
2404 4 30.092999999999996 3.2279997915255074 0.9125976933505366 0 0 0
2417 5 31.526000000000003 4.035000007216499 0.005377862113931534 0 0 0
2414 2 32.958999999999996 3.2279997915255074 0.9125976933505366 0 0 0
2408 8 30.092999999999996 4.8419999986830815 0.9125976756568348 0 0 0
2418 6 32.958999999999996 4.8419999986830815 0.9125976756568348 0 0 0
2421 9 31.526000000000003 5.648999690342257 0.0053778434672149536 0 0 0
2219 11 34.392 0.8069996903422807 0.005377843467215569 0 0 0
2415 3 34.392 2.421000195731101 0.0053779529595010585 0 0 0
2419 7 34.392 4.035000007216499 0.005377862113931537 0 0 0
2423 11 34.392 5.648999690342257 0.005377843467214956 0 0 0
2229 9 37.258 0.8069996903422807 0.005377843467215568 0 0 0
2220 12 35.824999999999996 1.6140004065154905 0.9125977660751844 0 0 0
2425 1 37.258 2.421000195731101 0.0053779529595010585 0 0 0
2230 10 38.690999999999995 1.6140004065154905 0.9125977660751844 0 0 0
2416 4 35.824999999999996 3.2279997915255074 0.9125976933505366 0 0 0
2429 5 37.258 4.035000007216499 0.005377862113931532 0 0 0
2426 2 38.690999999999995 3.2279997915255074 0.9125976933505366 0 0 0
2420 8 35.824999999999996 4.8419999986830815 0.9125976756568348 0 0 0
2430 6 38.690999999999995 4.8419999986830815 0.9125976756568348 0 0 0
2433 9 37.258 5.648999690342257 0.0053778434672149536 0 0 0
2231 11 40.124 0.8069996903422807 0.005377843467215568 0 0 0
2427 3 40.124 2.421000195731101 0.005377952959501058 0 0 0
2431 7 40.124 4.035000007216499 0.005377862113931532 0 0 0
2435 11 40.124 5.648999690342257 0.005377843467214953 0 0 0
2241 9 42.99 0.8069996903422807 0.005377843467215569 0 0 0
2232 12 41.556999999999995 1.6140004065154905 0.9125977660751844 0 0 0
2437 1 42.99 2.421000195731101 0.00537795295950106 0 0 0
2242 10 44.422999999999995 1.6140004065154905 0.9125977660751844 0 0 0
2428 4 41.556999999999995 3.2279997915255074 0.9125976933505366 0 0 0
2441 5 42.99 4.035000007216499 0.005377862113931536 0 0 0
2438 2 44.422999999999995 3.2279997915255074 0.9125976933505366 0 0 0
2432 8 41.556999999999995 4.8419999986830815 0.9125976756568348 0 0 0
2442 6 44.422999999999995 4.8419999986830815 0.9125976756568348 0 0 0
2445 9 42.99 5.648999690342257 0.005377843467214956 0 0 0
2243 11 45.856 0.8069996903422807 0.005377843467215048 0 0 0
2439 3 45.856 2.421000195731101 0.00537795295950054 0 0 0
2443 7 45.856 4.035000007216499 0.0053778621139310085 0 0 0
2447 11 45.856 5.648999690342257 0.005377843467214435 0 0 0
2049 9 48.722 0.8069996903422806 0.00537784346721516 -1 0 0
2244 12 47.288999999999994 1.6140004065154905 0.912597766075183 0 0 0
2245 1 48.722 2.421000195731101 0.00537795295950051 -1 0 0
2050 10 50.155 1.6140004065154905 0.9125977660751845 -1 0 0
2440 4 47.288999999999994 3.2279997915255074 0.9125976933505351 0 0 0
2249 5 48.722 4.035000007216499 0.005377862113931028 -1 0 0
2246 2 50.155 3.227999791525507 0.9125976933505366 -1 0 0
2444 8 47.288999999999994 4.8419999986830815 0.9125976756568333 0 0 0
2250 6 50.155 4.8419999986830815 0.9125976756568347 -1 0 0
2253 9 48.722 5.648999690342257 0.005377843467214554 -1 0 0
2051 11 51.588 0.8069996903422806 0.00537784346721568 -1 0 0
2061 9 54.454 0.8069996903422806 0.00537784346721516 -1 0 0
2247 3 51.588 2.421000195731101 0.005377952959501031 -1 0 0
2052 12 53.021 1.6140004065154905 0.9125977660751845 -1 0 0
2257 1 54.454 2.421000195731101 0.00537795295950051 -1 0 0
2062 10 55.88700000000001 1.6140004065154905 0.912597766075183 -1 0 0
2251 7 51.588 4.035000007216499 0.0053778621139315514 -1 0 0
2248 4 53.021 3.227999791525507 0.9125976933505366 -1 0 0
2261 5 54.454 4.035000007216499 0.005377862113931028 -1 0 0
2258 2 55.88700000000001 3.2279997915255074 0.9125976933505351 -1 0 0
2252 8 53.021 4.8419999986830815 0.9125976756568347 -1 0 0
2262 6 55.88700000000001 4.8419999986830815 0.9125976756568333 -1 0 0
2255 11 51.588 5.648999690342257 0.005377843467215077 -1 0 0
2265 9 54.454 5.648999690342257 0.005377843467214554 -1 0 0
2063 11 57.32 0.8069996903422807 0.005377843467215048 -1 0 0
2073 9 60.186 0.8069996903422807 0.0053778434672155685 -1 0 0
2259 3 57.32 2.421000195731101 0.00537795295950054 -1 0 0
2064 12 58.75300000000001 1.6140004065154905 0.9125977660751844 -1 0 0
2269 1 60.186 2.421000195731101 0.005377952959501063 -1 0 0
2074 10 61.61900000000001 1.6140004065154905 0.9125977660751844 -1 0 0
2263 7 57.32 4.035000007216499 0.00537786211393101 -1 0 0
2260 4 58.75300000000001 3.2279997915255074 0.9125976933505366 -1 0 0
2273 5 60.186 4.035000007216499 0.005377862113931535 -1 0 0
2270 2 61.61900000000001 3.2279997915255074 0.9125976933505366 -1 0 0
2264 8 58.75300000000001 4.8419999986830815 0.9125976756568348 -1 0 0
2274 6 61.61900000000001 4.8419999986830815 0.9125976756568348 -1 0 0
2267 11 57.32 5.648999690342257 0.005377843467214434 -1 0 0
2277 9 60.186 5.648999690342257 0.0053778434672149536 -1 0 0
2075 11 63.052 0.8069996903422807 0.0053778434672155685 -1 0 0
2085 9 65.91799999999999 0.8069996903422807 0.0053778434672155685 -1 0 0
2271 3 63.052 2.421000195731101 0.00537795295950106 -1 0 0
2076 12 64.48500000000001 1.6140004065154905 0.9125977660751844 -1 0 0
2281 1 65.91799999999999 2.421000195731101 0.005377952959501063 -1 0 0
2086 10 67.35100000000001 1.6140004065154905 0.9125977660751844 -1 0 0
2275 7 63.052 4.035000007216499 0.005377862113931537 -1 0 0
2272 4 64.48500000000001 3.2279997915255074 0.9125976933505366 -1 0 0
2285 5 65.91799999999999 4.035000007216499 0.005377862113931535 -1 0 0
2282 2 67.35100000000001 3.2279997915255074 0.9125976933505366 -1 0 0
2276 8 64.48500000000001 4.8419999986830815 0.9125976756568348 -1 0 0
2286 6 67.35100000000001 4.8419999986830815 0.9125976756568348 -1 0 0
2279 11 63.052 5.648999690342257 0.005377843467214954 -1 0 0
2289 9 65.91799999999999 5.648999690342257 0.0053778434672149536 -1 0 0
2087 11 68.78399999999999 0.8069996903422807 0.0053778434672155685 -1 0 0
2283 3 68.78399999999999 2.421000195731101 0.00537795295950106 -1 0 0
2287 7 68.78399999999999 4.035000007216499 0.005377862113931537 -1 0 0
2291 11 68.78399999999999 5.648999690342257 0.005377843467214954 -1 0 0
2097 9 71.64999999999999 0.8069996903422807 0.0053778434672155685 -1 0 0
2088 12 70.21700000000001 1.6140004065154905 0.9125977660751844 -1 0 0
2293 1 71.64999999999999 2.421000195731101 0.005377952959501063 -1 0 0
2098 10 73.08300000000001 1.6140004065154905 0.9125977660751844 -1 0 0
2284 4 70.21700000000001 3.2279997915255074 0.9125976933505366 -1 0 0
2297 5 71.64999999999999 4.035000007216499 0.005377862113931535 -1 0 0
2294 2 73.08300000000001 3.2279997915255074 0.9125976933505366 -1 0 0
2288 8 70.21700000000001 4.8419999986830815 0.9125976756568348 -1 0 0
2298 6 73.08300000000001 4.8419999986830815 0.9125976756568348 -1 0 0
2301 9 71.64999999999999 5.648999690342257 0.0053778434672149536 -1 0 0
2099 11 74.51599999999999 0.8069996903422807 0.0053778434672155685 -1 0 0
2295 3 74.51599999999999 2.421000195731101 0.005377952959501059 -1 0 0
2299 7 74.51599999999999 4.035000007216499 0.005377862113931537 -1 0 0
2303 11 74.51599999999999 5.648999690342257 0.005377843467214954 -1 0 0
2109 9 77.38199999999999 0.8069996903422807 0.005377843467215567 -1 0 0
2100 12 75.94900000000001 1.6140004065154905 0.9125977660751844 -1 0 0
2305 1 77.38199999999999 2.421000195731101 0.005377952959501058 -1 0 0
2110 10 78.81500000000001 1.6140004065154905 0.9125977660751855 -1 0 0
2296 4 75.94900000000001 3.2279997915255074 0.9125976933505366 -1 0 0
2309 5 77.38199999999999 4.035000007216499 0.0053778621139315315 -1 0 0
2306 2 78.81500000000001 3.2279997915255074 0.9125976933505376 -1 0 0
2300 8 75.94900000000001 4.8419999986830815 0.9125976756568348 -1 0 0
2310 6 78.81500000000001 4.8419999986830815 0.9125976756568358 -1 0 0
2313 9 77.38199999999999 5.648999690342257 0.005377843467214948 -1 0 0
2111 11 80.248 0.8069996903422807 0.005377843467218577 -1 0 0
2121 9 83.114 0.8069996903422807 0.005377843467212538 -1 0 0
2307 3 80.248 2.421000195731101 0.005377952959504099 -1 0 0
2112 12 81.681 1.6140004065154905 0.9125977660751844 -1 0 0
2317 1 83.114 2.421000195731101 0.005377952959498011 -1 0 0
2122 10 84.54700000000001 1.6140004065154905 0.9125977660751844 -1 0 0
2311 7 80.248 4.035000007216499 0.005377862113934576 -1 0 0
2308 4 81.681 3.2279997915255074 0.9125976933505366 -1 0 0
2321 5 83.114 4.035000007216499 0.0053778621139284775 -1 0 0
2318 2 84.54700000000001 3.2279997915255074 0.9125976933505366 -1 0 0
2312 8 81.681 4.8419999986830815 0.9125976756568348 -1 0 0
2322 6 84.54700000000001 4.8419999986830815 0.9125976756568348 -1 0 0
2315 11 80.248 5.648999690342257 0.005377843467217961 -1 0 0
2325 9 83.114 5.648999690342257 0.005377843467211922 -1 0 0
2123 11 85.98 0.8069996903422807 0.005377843467218585 -1 0 0
2133 9 88.846 0.8069996903422807 0.005377843467212541 -1 0 0
2319 3 85.98 2.421000195731101 0.005377952959504108 -1 0 0
2124 12 87.413 1.6140004065154905 0.9125977660751844 -1 0 0
2329 1 88.846 2.421000195731101 0.005377952959498016 -1 0 0
2134 10 90.27900000000001 1.6140004065154905 0.9125977660751844 -1 0 0
2323 7 85.98 4.035000007216499 0.005377862113934584 -1 0 0
2320 4 87.413 3.2279997915255074 0.9125976933505366 -1 0 0
2333 5 88.846 4.035000007216499 0.005377862113928483 -1 0 0
2330 2 90.27900000000001 3.2279997915255074 0.9125976933505366 -1 0 0
2324 8 87.413 4.8419999986830815 0.9125976756568348 -1 0 0
2334 6 90.27900000000001 4.8419999986830815 0.9125976756568348 -1 0 0
2327 11 85.98 5.648999690342257 0.005377843467217971 -1 0 0
2337 9 88.846 5.648999690342257 0.005377843467211928 -1 0 0
2135 11 91.712 0.8069996903422807 0.005377843467218587 -1 0 0
2145 9 94.578 0.8069996903422807 0.005377843467212541 -1 0 0
2331 3 91.712 2.421000195731101 0.005377952959504108 -1 0 0
2136 12 93.145 1.6140004065154905 0.9125977660751844 -1 0 0
2341 1 94.578 2.421000195731101 0.005377952959498016 -1 0 0
2146 10 96.01100000000001 1.6140004065154905 0.912597766075184 -1 0 0
2335 7 91.712 4.035000007216499 0.005377862113934584 -1 0 0
2332 4 93.145 3.2279997915255074 0.9125976933505366 -1 0 0
2345 5 94.578 4.035000007216499 0.005377862113928483 -1 0 0
2342 2 96.01100000000001 3.2279997915255074 0.9125976933505361 -1 0 0
2336 8 93.145 4.8419999986830815 0.9125976756568348 -1 0 0
2346 6 96.01100000000001 4.8419999986830815 0.9125976756568343 -1 0 0
2339 11 91.712 5.648999690342257 0.005377843467217971 -1 0 0
2349 9 94.578 5.648999690342257 0.005377843467211928 -1 0 0
2352 12 1.4329999999999992 6.456000406515489 0.912597766075185 0 0 0
2362 10 4.2989999999999995 6.456000406515489 0.9125977660751845 0 0 0
2547 3 0 7.2630001957311 0.005377952959502567 0 0 0
2548 4 1.4329999999999992 8.069999791525506 0.9125976933505371 0 0 0
2557 1 2.8659999999999997 7.2630001957311 0.00537795295950103 0 0 0
2558 2 4.2989999999999995 8.069999791525506 0.9125976933505366 0 0 0
2559 3 5.731999999999999 7.2630001957311 0.00537795295950103 0 0 0
2551 7 0 8.877000007216497 0.0053778621139330554 0 0 0
2561 5 2.8659999999999997 8.877000007216497 0.005377862113931547 0 0 0
2563 7 5.731999999999999 8.877000007216497 0.005377862113931547 0 0 0
2555 11 0 10.490999690342267 0.005377843467215914 0 0 0
2552 8 1.4329999999999992 9.68399999868308 0.9125976756568351 0 0 0
2565 9 2.8659999999999997 10.490999690342267 0.005377843467214466 0 0 0
2562 6 4.2989999999999995 9.68399999868308 0.9125976756568347 0 0 0
2567 11 5.731999999999999 10.490999690342267 0.005377843467214467 0 0 0
2556 12 1.4329999999999992 11.298000406515492 0.9125977660751814 0 0 0
2566 10 4.2989999999999995 11.298000406515492 0.9125977660751808 0 0 0
2364 12 7.164999999999999 6.456000406515489 0.9125977660751845 0 0 0
2374 10 10.030999999999999 6.456000406515489 0.9125977660751845 0 0 0
2560 4 7.164999999999999 8.069999791525506 0.9125976933505366 0 0 0
2569 1 8.597999999999999 7.2630001957311 0.00537795295950103 0 0 0
2570 2 10.030999999999999 8.069999791525506 0.9125976933505366 0 0 0
2571 3 11.463999999999999 7.2630001957311 0.005377952959501032 0 0 0
2573 5 8.597999999999999 8.877000007216497 0.005377862113931547 0 0 0
2575 7 11.463999999999999 8.877000007216497 0.005377862113931548 0 0 0
2564 8 7.164999999999999 9.68399999868308 0.9125976756568347 0 0 0
2577 9 8.597999999999999 10.490999690342267 0.005377843467214467 0 0 0
2574 6 10.030999999999999 9.68399999868308 0.9125976756568347 0 0 0
2579 11 11.463999999999999 10.490999690342267 0.00537784346721447 0 0 0
2568 12 7.164999999999999 11.298000406515492 0.9125977660751808 0 0 0
2578 10 10.030999999999999 11.298000406515492 0.9125977660751808 0 0 0
2376 12 12.896999999999998 6.456000406515489 0.912597766075185 0 0 0
2386 10 15.762999999999996 6.456000406515489 0.912597766075185 0 0 0
2572 4 12.896999999999998 8.069999791525506 0.9125976933505371 0 0 0
2581 1 14.330000000000002 7.2630001957311 0.005377952959502566 0 0 0
2582 2 15.762999999999996 8.069999791525506 0.9125976933505371 0 0 0
2585 5 14.330000000000002 8.877000007216497 0.005377862113933053 0 0 0
2576 8 12.896999999999998 9.68399999868308 0.9125976756568351 0 0 0
2589 9 14.330000000000002 10.490999690342267 0.005377843467215914 0 0 0
2586 6 15.762999999999996 9.68399999868308 0.9125976756568354 0 0 0
2580 12 12.896999999999998 11.298000406515492 0.9125977660751814 0 0 0
2590 10 15.762999999999996 11.298000406515492 0.9125977660751814 0 0 0
2583 3 17.196000000000005 7.2630001957311 0.00537795295950106 0 0 0
2587 7 17.196000000000005 8.877000007216497 0.005377862113931532 0 0 0
2591 11 17.196000000000005 10.490999690342267 0.005377843467214348 0 0 0
2388 12 18.628999999999998 6.456000406515489 0.9125977660751844 0 0 0
2398 10 21.494999999999997 6.456000406515489 0.9125977660751844 0 0 0
2584 4 18.628999999999998 8.069999791525506 0.9125976933505366 0 0 0
2593 1 20.062000000000005 7.2630001957311 0.005377952959501059 0 0 0
2594 2 21.494999999999997 8.069999791525506 0.9125976933505366 0 0 0
2597 5 20.062000000000005 8.877000007216497 0.005377862113931535 0 0 0
2588 8 18.628999999999998 9.68399999868308 0.9125976756568348 0 0 0
2601 9 20.062000000000005 10.490999690342267 0.005377843467214348 0 0 0
2598 6 21.494999999999997 9.68399999868308 0.9125976756568348 0 0 0
2592 12 18.628999999999998 11.298000406515492 0.9125977660751808 0 0 0
2602 10 21.494999999999997 11.298000406515492 0.9125977660751808 0 0 0
2595 3 22.928000000000004 7.2630001957311 0.005377952959501063 0 0 0
2599 7 22.928000000000004 8.877000007216497 0.005377862113931539 0 0 0
2603 11 22.928000000000004 10.490999690342267 0.0053778434672143525 0 0 0
2400 12 24.360999999999997 6.456000406515489 0.9125977660751844 0 0 0
2410 10 27.226999999999997 6.456000406515489 0.9125977660751844 0 0 0
2596 4 24.360999999999997 8.069999791525506 0.9125976933505366 0 0 0
2605 1 25.794000000000004 7.2630001957311 0.00537795295950106 0 0 0
2606 2 27.226999999999997 8.069999791525506 0.9125976933505366 0 0 0
2609 5 25.794000000000004 8.877000007216497 0.005377862113931535 0 0 0
2600 8 24.360999999999997 9.68399999868308 0.9125976756568348 0 0 0
2613 9 25.794000000000004 10.490999690342267 0.005377843467214348 0 0 0
2610 6 27.226999999999997 9.68399999868308 0.9125976756568348 0 0 0
2604 12 24.360999999999997 11.298000406515492 0.9125977660751808 0 0 0
2614 10 27.226999999999997 11.298000406515492 0.9125977660751808 0 0 0
2607 3 28.660000000000004 7.2630001957311 0.0053779529595010585 0 0 0
2611 7 28.660000000000004 8.877000007216497 0.005377862113931534 0 0 0
2615 11 28.660000000000004 10.490999690342267 0.005377843467214346 0 0 0
2412 12 30.092999999999996 6.456000406515489 0.9125977660751844 0 0 0
2422 10 32.958999999999996 6.456000406515489 0.9125977660751844 0 0 0
2608 4 30.092999999999996 8.069999791525506 0.9125976933505366 0 0 0
2617 1 31.526000000000003 7.2630001957311 0.005377952959501058 0 0 0
2618 2 32.958999999999996 8.069999791525506 0.9125976933505366 0 0 0
2621 5 31.526000000000003 8.877000007216497 0.005377862113931531 0 0 0
2612 8 30.092999999999996 9.68399999868308 0.9125976756568348 0 0 0
2625 9 31.526000000000003 10.490999690342267 0.005377843467214343 0 0 0
2622 6 32.958999999999996 9.68399999868308 0.9125976756568348 0 0 0
2616 12 30.092999999999996 11.298000406515492 0.9125977660751808 0 0 0
2626 10 32.958999999999996 11.298000406515492 0.9125977660751808 0 0 0
2619 3 34.392 7.2630001957311 0.0053779529595010585 0 0 0
2623 7 34.392 8.877000007216497 0.005377862113931534 0 0 0
2627 11 34.392 10.490999690342267 0.0053778434672143455 0 0 0
2424 12 35.824999999999996 6.456000406515489 0.9125977660751844 0 0 0
2434 10 38.690999999999995 6.456000406515489 0.9125977660751844 0 0 0
2620 4 35.824999999999996 8.069999791525506 0.9125976933505366 0 0 0
2629 1 37.258 7.2630001957311 0.005377952959501058 0 0 0
2630 2 38.690999999999995 8.069999791525506 0.9125976933505366 0 0 0
2633 5 37.258 8.877000007216497 0.005377862113931529 0 0 0
2624 8 35.824999999999996 9.68399999868308 0.9125976756568348 0 0 0
2637 9 37.258 10.490999690342267 0.005377843467214345 0 0 0
2634 6 38.690999999999995 9.68399999868308 0.9125976756568348 0 0 0
2628 12 35.824999999999996 11.298000406515492 0.9125977660751808 0 0 0
2638 10 38.690999999999995 11.298000406515492 0.9125977660751808 0 0 0
2631 3 40.124 7.2630001957311 0.005377952959501057 0 0 0
2635 7 40.124 8.877000007216497 0.00537786211393153 0 0 0
2639 11 40.124 10.490999690342267 0.005377843467214343 0 0 0
2436 12 41.556999999999995 6.456000406515489 0.9125977660751844 0 0 0
2446 10 44.422999999999995 6.456000406515489 0.9125977660751844 0 0 0
2632 4 41.556999999999995 8.069999791525506 0.9125976933505366 0 0 0
2641 1 42.99 7.2630001957311 0.0053779529595010585 0 0 0
2642 2 44.422999999999995 8.069999791525506 0.9125976933505366 0 0 0
2645 5 42.99 8.877000007216497 0.005377862113931531 0 0 0
2636 8 41.556999999999995 9.68399999868308 0.9125976756568348 0 0 0
2649 9 42.99 10.490999690342267 0.005377843467214346 0 0 0
2646 6 44.422999999999995 9.68399999868308 0.9125976756568348 0 0 0
2640 12 41.556999999999995 11.298000406515492 0.9125977660751808 0 0 0
2650 10 44.422999999999995 11.298000406515492 0.9125977660751808 0 0 0
2643 3 45.856 7.2630001957311 0.005377952959500539 0 0 0
2647 7 45.856 8.877000007216497 0.005377862113931008 0 0 0
2651 11 45.856 10.490999690342267 0.005377843467213824 0 0 0
2448 12 47.288999999999994 6.456000406515489 0.912597766075183 0 0 0
2254 10 50.155 6.456000406515489 0.9125977660751845 -1 0 0
2644 4 47.288999999999994 8.069999791525506 0.9125976933505351 0 0 0
2449 1 48.722 7.2630001957311 0.005377952959500509 -1 0 0
2450 2 50.155 8.069999791525506 0.9125976933505366 -1 0 0
2453 5 48.722 8.877000007216497 0.0053778621139310276 -1 0 0
2648 8 47.288999999999994 9.68399999868308 0.9125976756568333 0 0 0
2457 9 48.722 10.490999690342267 0.005377843467213944 -1 0 0
2454 6 50.155 9.68399999868308 0.9125976756568347 -1 0 0
2652 12 47.288999999999994 11.298000406515492 0.9125977660751794 0 0 0
2458 10 50.155 11.298000406515492 0.9125977660751808 -1 0 0
2256 12 53.021 6.456000406515489 0.9125977660751845 -1 0 0
2266 10 55.88700000000001 6.456000406515489 0.912597766075183 -1 0 0
2451 3 51.588 7.2630001957311 0.00537795295950103 -1 0 0
2452 4 53.021 8.069999791525506 0.9125976933505366 -1 0 0
2461 1 54.454 7.2630001957311 0.005377952959500509 -1 0 0
2462 2 55.88700000000001 8.069999791525506 0.9125976933505351 -1 0 0
2455 7 51.588 8.877000007216497 0.005377862113931552 -1 0 0
2465 5 54.454 8.877000007216497 0.0053778621139310276 -1 0 0
2459 11 51.588 10.490999690342267 0.00537784346721447 -1 0 0
2456 8 53.021 9.68399999868308 0.9125976756568347 -1 0 0
2469 9 54.454 10.490999690342267 0.005377843467213944 -1 0 0
2466 6 55.88700000000001 9.68399999868308 0.9125976756568333 -1 0 0
2460 12 53.021 11.298000406515492 0.9125977660751808 -1 0 0
2470 10 55.88700000000001 11.298000406515492 0.9125977660751794 -1 0 0
2268 12 58.75300000000001 6.456000406515489 0.9125977660751844 -1 0 0
2278 10 61.61900000000001 6.456000406515489 0.9125977660751844 -1 0 0
2463 3 57.32 7.2630001957311 0.005377952959500539 -1 0 0
2464 4 58.75300000000001 8.069999791525506 0.9125976933505366 -1 0 0
2473 1 60.186 7.2630001957311 0.005377952959501059 -1 0 0
2474 2 61.61900000000001 8.069999791525506 0.9125976933505366 -1 0 0
2467 7 57.32 8.877000007216497 0.005377862113931008 -1 0 0
2477 5 60.186 8.877000007216497 0.005377862113931532 -1 0 0
2471 11 57.32 10.490999690342267 0.005377843467213824 -1 0 0
2468 8 58.75300000000001 9.68399999868308 0.9125976756568348 -1 0 0
2481 9 60.186 10.490999690342267 0.005377843467214345 -1 0 0
2478 6 61.61900000000001 9.68399999868308 0.9125976756568348 -1 0 0
2472 12 58.75300000000001 11.298000406515492 0.9125977660751808 -1 0 0
2482 10 61.61900000000001 11.298000406515492 0.9125977660751808 -1 0 0
2280 12 64.48500000000001 6.456000406515489 0.9125977660751844 -1 0 0
2290 10 67.35100000000001 6.456000406515489 0.9125977660751844 -1 0 0
2475 3 63.052 7.2630001957311 0.005377952959501059 -1 0 0
2476 4 64.48500000000001 8.069999791525506 0.9125976933505366 -1 0 0
2485 1 65.91799999999999 7.2630001957311 0.005377952959501059 -1 0 0
2486 2 67.35100000000001 8.069999791525506 0.9125976933505366 -1 0 0
2479 7 63.052 8.877000007216497 0.005377862113931535 -1 0 0
2489 5 65.91799999999999 8.877000007216497 0.005377862113931532 -1 0 0
2483 11 63.052 10.490999690342267 0.0053778434672143455 -1 0 0
2480 8 64.48500000000001 9.68399999868308 0.9125976756568348 -1 0 0
2493 9 65.91799999999999 10.490999690342267 0.005377843467214345 -1 0 0
2490 6 67.35100000000001 9.68399999868308 0.9125976756568348 -1 0 0
2484 12 64.48500000000001 11.298000406515492 0.9125977660751808 -1 0 0
2494 10 67.35100000000001 11.298000406515492 0.9125977660751808 -1 0 0
2487 3 68.78399999999999 7.2630001957311 0.005377952959501059 -1 0 0
2491 7 68.78399999999999 8.877000007216497 0.005377862113931535 -1 0 0
2495 11 68.78399999999999 10.490999690342267 0.0053778434672143455 -1 0 0
2292 12 70.21700000000001 6.456000406515489 0.9125977660751844 -1 0 0
2302 10 73.08300000000001 6.456000406515489 0.9125977660751844 -1 0 0
2488 4 70.21700000000001 8.069999791525506 0.9125976933505366 -1 0 0
2497 1 71.64999999999999 7.2630001957311 0.005377952959501059 -1 0 0
2498 2 73.08300000000001 8.069999791525506 0.9125976933505366 -1 0 0
2501 5 71.64999999999999 8.877000007216497 0.005377862113931532 -1 0 0
2492 8 70.21700000000001 9.68399999868308 0.9125976756568348 -1 0 0
2505 9 71.64999999999999 10.490999690342267 0.005377843467214345 -1 0 0
2502 6 73.08300000000001 9.68399999868308 0.9125976756568348 -1 0 0
2496 12 70.21700000000001 11.298000406515492 0.9125977660751808 -1 0 0
2506 10 73.08300000000001 11.298000406515492 0.9125977660751808 -1 0 0
2499 3 74.51599999999999 7.2630001957311 0.0053779529595010585 -1 0 0
2503 7 74.51599999999999 8.877000007216497 0.005377862113931535 -1 0 0
2507 11 74.51599999999999 10.490999690342267 0.0053778434672143455 -1 0 0
2304 12 75.94900000000001 6.456000406515489 0.9125977660751844 -1 0 0
2314 10 78.81500000000001 6.456000406515489 0.9125977660751855 -1 0 0
2500 4 75.94900000000001 8.069999791525506 0.9125976933505366 -1 0 0
2509 1 77.38199999999999 7.2630001957311 0.005377952959501057 -1 0 0
2510 2 78.81500000000001 8.069999791525506 0.9125976933505376 -1 0 0
2513 5 77.38199999999999 8.877000007216497 0.005377862113931531 -1 0 0
2504 8 75.94900000000001 9.68399999868308 0.9125976756568348 -1 0 0
2517 9 77.38199999999999 10.490999690342267 0.005377843467214341 -1 0 0
2514 6 78.81500000000001 9.68399999868308 0.9125976756568358 -1 0 0
2508 12 75.94900000000001 11.298000406515492 0.9125977660751808 -1 0 0
2518 10 78.81500000000001 11.298000406515492 0.9125977660751818 -1 0 0
2316 12 81.681 6.456000406515489 0.9125977660751844 -1 0 0
2326 10 84.54700000000001 6.456000406515489 0.9125977660751844 -1 0 0
2511 3 80.248 7.2630001957311 0.0053779529595041 -1 0 0
2512 4 81.681 8.069999791525506 0.9125976933505366 -1 0 0
2521 1 83.114 7.2630001957311 0.00537795295949801 -1 0 0
2522 2 84.54700000000001 8.069999791525506 0.9125976933505366 -1 0 0